default_name
111975
  63.4285872  27.6807373  72.1496326  62.5755872  27.4557373  72.6456326
  63.6135872  26.9957373  71.4286326  63.3135872  28.6007373  71.7356326
  64.5695872  27.7457373  73.0916326  64.7855872  26.7397373  73.4416326
  65.8485872  28.2797373  72.4066326  66.6025872  28.5067373  73.1606326
  66.2525872  27.4827373  71.7826326  65.6315872  29.5087373  71.5196326
  64.5265872  30.0867373  71.5656326  66.5535872  29.8747373  70.7616326
  64.1495872  28.5567373  74.3166326  63.0085872  28.9747373  74.3986326
  65.0585872  28.7377373  75.3366326  65.9915872  28.3687373  75.2156326
  64.7655872  29.5437373  76.5216326  63.8445872  29.1727373  76.9756326
  65.9045872  29.3707373  77.5356326  66.8545872  29.7327373  77.1226326
  65.6915872  29.9417373  78.4486326  66.0245872  28.3167373  77.8136326
  64.5545872  31.0237373  76.1436326  65.4435872  31.6587373  75.6016326
  63.3335872  31.5887373  76.4636326  62.6555872  30.9597373  76.8946326
  62.9295872  32.9817373  76.1986326  63.8295872  33.5777373  76.0406326
  62.0415872  33.0617373  74.9366326  61.1475872  32.4567373  75.1046326
  61.7175872  34.0937373  74.7916326  62.7095872  32.5757373  73.6386326
  63.0845872  31.5627373  73.7806326  61.9585872  32.5407373  72.8486326
  63.8555872  33.4827373  73.1756326  63.4375872  34.4157373  72.7906326
  64.5125872  33.7117373  74.0146326  64.6575872  32.8247373  72.1356326
  64.4805872  31.8397373  71.9466326  65.6745872  33.3537373  71.4886326
  66.0305872  34.5967373  71.5946326  65.4065872  35.2677373  72.0446326
  66.7665872  34.9307373  70.9936326  66.4005872  32.6297373  70.6966326
  66.2655872  31.6197373  70.6516326  67.1505872  33.0887373  70.1976326
  62.2005872  33.5717373  77.4046326  61.4145872  32.8907373  78.0396326
  62.4495872  34.8957373  77.7066326  63.1185872  35.3677373  77.1106326
  61.9075872  35.6087373  78.8796326  62.2315872  35.0927373  79.7866326
  62.5065872  37.0247373  78.8806326  63.5825872  36.9567373  78.7106326
  62.0755872  37.5977373  78.0606326  62.2845872  37.7577373  80.2106326
  61.2465872  37.6397373  80.5026326  62.9105872  37.3067373  80.9816326
  62.5925872  39.2577373  80.1106326  61.9165872  39.7057373  79.3906326
  62.3785872  39.7347373  81.0656326  63.9985872  39.5127373  79.7476326
  64.7085872  39.2797373  80.4296326  64.4535872  40.0037373  78.6126326
  63.6925872  40.3857373  77.6316326  62.6785872  40.4017373  77.7496326
  64.1025872  40.8447373  76.8316326  65.7325872  40.0937373  78.4406326
  66.3355872  39.7437373  79.1756326  66.1085872  40.3617373  77.5386326
  60.3655872  35.5967373  78.9146326  59.7755872  35.3207373  79.9446326
  59.7205872  35.7557373  77.7096326  60.3105872  36.0227373  76.9366326
  58.3085872  35.4497373  77.4266326  57.9275872  34.7817373  78.1996326
  57.4255872  36.7107373  77.4056326  57.6825872  37.3177373  76.5386326
  55.9355872  36.3827373  77.3416326  55.6465872  35.7417373  78.1836326
  55.3415872  37.3027373  77.3996326  55.6765872  35.8767373  76.4046326
  57.6185872  37.4887373  78.5576326  58.5125872  37.9457373  78.4246326
  58.2285872  34.7407373  76.0746326  58.9085872  35.1287373  75.1366326
  57.3875872  33.6567373  75.9416326  56.8485872  33.3707373  76.7536326
  57.2625872  32.8967373  74.6906326  58.2535872  32.8147373  74.2416326
  56.8055872  31.4717373  74.9996326  57.3565872  31.0967373  75.8636326
  55.7395872  31.4657373  75.2296326  57.0665872  30.6207373  73.9036326
  56.3945872  29.8757373  73.9566326  56.3565872  33.6227373  73.6786326
  55.1585872  33.3937373  73.6126326  56.9545872  34.6137373  72.9196326
  57.9385872  34.7657373  73.1286326  56.2855872  35.5277373  71.9726326
  55.4445872  35.9937373  72.4866326  57.3015872  36.6217373  71.5806326
  57.7695872  37.0147373  72.4856326  58.0875872  36.1637373  70.9756326
  56.6865872  37.8087373  70.8176326  56.0225872  37.4527373  70.0326326
  56.0995872  38.4077373  71.5166326  57.7615872  38.7017373  70.1806326
  57.2845872  39.6187373  69.8266326  58.4995872  38.9737373  70.9326326
  58.4205872  38.0317373  69.0406326  58.0595872  37.1367373  68.7446326
  59.3615872  38.5277373  68.2616326  59.9505872  39.6597373  68.4866326
  59.6615872  40.2447373  69.2636326  60.7445872  39.9067373  67.9076326
  59.7115872  37.8757373  67.1986326  59.1825872  37.0737373  66.9076326
  60.3155872  38.3247373  66.5046326  55.7495872  34.7927373  70.7296326
  56.4975872  34.1187373  70.0436326  54.4335872  34.9997373  70.3666326
  53.8635872  35.5337373  71.0086326  53.7975872  34.3467373  69.2066326
  54.1815872  33.3257373  69.1516326  52.2715872  34.2487373  69.4256326
  51.8695872  35.2177373  69.7156326  51.7995872  33.9577373  68.4876326
  51.8615872  33.2097373  70.4586326  52.6515872  32.7057373  71.2216326
  50.5715872  32.8177373  70.5246326  50.3495872  32.1217373  71.2156326
  49.8635872  33.2357373  69.9126326  54.1465872  34.9797373  67.8396326
  53.9095872  34.3537373  66.8176326  54.7445872  36.2277373  67.8056326
  54.8075872  36.7187373  68.6856326  55.3655872  36.8317373  66.6096326
  54.6815872  36.7227373  65.7686326  55.6485872  38.3417373  66.8016326
  56.4235872  38.4507373  67.5496326  56.1455872  39.0007373  65.5146326
  55.3685872  38.9627373  64.7446326  56.3865872  40.0577373  65.6916326
  57.0525872  38.5197373  65.1296326  54.4475872  39.1537373  67.2946326
  54.0965872  38.8017373  68.2696326  54.7305872  40.2067373  67.4196326
  53.6175872  39.1177373  66.5816326  56.6735872  36.0907373  66.2836326
  57.5175872  35.9127373  67.1546326  56.8615872  35.6237373  65.0036326
  56.1275872  35.8297373  64.3266326  58.0375872  34.8677373  64.5476326
  58.2195872  34.0647373  65.2626326  57.6815872  34.2237373  63.2026326
  58.5135872  33.6037373  62.8666326  56.7995872  33.5927373  63.3266326
  57.3305872  35.5007373  61.9576326  57.0155872  34.6697373  60.9586326
  59.3415872  35.7007373  64.4696326  59.2965872  36.9157373  64.4666326
  60.5455872  35.0117373  64.4226326  60.4855872  34.0047373  64.4156326
  61.8825872  35.6317373  64.2606326  62.0235872  36.3767373  65.0456326
  62.9885872  34.5617373  64.4046326  63.0965872  34.3017373  65.4586326
  62.6985872  33.6677373  63.8506326  64.2355872  35.0127373  63.8936326
  64.9955872  34.4847373  64.2516326  62.0405872  36.3527373  62.9146326
  61.4265872  35.9727373  61.9276326  62.9785872  37.3667373  62.8436326
  63.3915872  37.6537373  63.7346326  63.3295872  38.1007373  61.6286326
  62.4655872  38.7037373  61.3816326  64.5135872  39.0477373  61.9016326
  64.5355872  39.3117373  62.9536326  65.4535872  38.5457373  61.6716326
  64.4115872  40.3457373  61.1116326  63.3455872  40.8747373  60.8836326
  65.5465872  40.9277373  60.6636326  65.4595872  41.8757373  60.2986326
  66.4535872  40.5017373  60.8186326  63.6355872  37.1967373  60.4236326
  63.3725872  37.5817373  59.3006326  64.1855872  35.9507373  60.6356326
  64.3515872  35.6797373  61.6026326  64.4585872  35.0027373  59.5446326
  65.0565872  35.5047373  58.7866326  65.2645872  33.7987373  60.0696326
  64.6045872  33.1737373  60.6726326  65.5855872  33.2047373  59.2126326
  66.5015872  34.1357373  60.9266326  66.1555872  34.5267373  61.8836326
  67.0365872  33.2067373  61.1326326  67.4885872  35.1447373  60.3166326
  67.5385872  35.3297373  59.0756326  68.2655872  35.7637373  61.0766326
  63.1645872  34.5387373  58.8436326  63.0825872  34.5387373  57.6246326
  62.0815872  34.2137373  59.6326326  62.1965872  34.3457373  60.6326326
  60.7435872  33.8927373  59.1136326  60.8495872  33.2177373  58.2656326
  59.9435872  33.1547373  60.2046326  60.3995872  32.1787373  60.3756326
  60.0425872  33.7227373  61.1306326  58.4355872  32.9617373  59.9546326
  57.9955872  32.5667373  60.8716326  57.9745872  33.9297373  59.7666326
  58.0425872  32.0267373  58.8076326  58.8575872  31.7737373  57.8976326
  56.8595872  31.6027373  58.8036326  60.0215872  35.1537373  58.6076326
  59.3095872  35.1037373  57.6206326  60.2475872  36.3587373  59.2466326
  60.8125872  36.3177373  60.0956326  59.6895872  37.6427373  58.7786326
  58.6045872  37.5487373  58.7096326  60.0275872  38.7697373  59.7706326
  61.1035872  38.8337373  59.8806326  59.6795872  39.7197373  59.3616326
  59.3485872  38.5497373  61.1346326  58.2905872  38.7387373  60.9966326
  59.4395872  37.5097373  61.4356326  59.8645872  39.3937373  62.3116326
  59.1265872  39.3267373  63.1136326  60.7815872  38.9487373  62.6926326
  60.1225872  40.8117373  61.9846326  60.3195872  41.0607373  61.0306326
  60.2175872  41.7877373  62.8686326  60.0815872  41.5857373  64.1466326
  60.1865872  40.6297373  64.4806326  60.2625872  42.3287373  64.7946326
  60.5045872  42.9957373  62.4766326  60.8145872  43.1387373  61.5186326
  60.7205872  43.6917373  63.1676326  60.1835872  37.9697373  57.3676326
  59.3835872  38.2617373  56.4956326  61.5345872  37.8367373  57.1136326
  62.1135872  37.6027373  57.9206326  62.1705872  37.9937373  55.7956326
  61.9125872  38.9737373  55.3916326  63.7015872  37.9137373  55.9486326
  63.9465872  37.0447373  56.5586326  64.1545872  37.7807373  54.9646326
  64.2915872  39.1887373  56.5876326  64.1135872  40.0277373  55.9136326
  63.7765872  39.4067373  57.5236326  65.8035872  39.1087373  56.8696326
  66.3395872  38.9447373  55.9336326  66.1245872  40.0637373  57.2926326
  66.1445872  37.9857373  57.8566326  65.5265872  38.1017373  58.7486326
  65.8995872  37.0257373  57.3936326  67.5715872  37.9857373  58.2446326
  67.8105872  38.7927373  58.8176326  67.7865872  37.1387373  58.7696326
  68.1785872  37.9917373  57.4266326  61.6335872  36.9677373  54.7876326
  61.2655872  37.3617373  53.6906326  61.4675872  35.6517373  55.1976326
  61.8425872  35.4127373  56.1136326  60.8325872  34.6057373  54.3726326
  61.4065872  34.5027373  53.4506326  60.8495872  33.2397373  55.0926326
  61.8845872  32.9017373  55.1726326  60.4515872  33.3547373  56.0986326
  60.0145872  32.1607373  54.3736326  58.9585872  32.4277373  54.4416326
  60.2985872  32.1147373  53.3206326  60.2025872  30.7697373  54.9976326
  61.1915872  30.3957373  54.7266326  60.1655872  30.8467373  56.0836326
  59.1805872  29.8147373  54.5246326  59.3965872  29.2547373  53.6936326
  58.0115872  29.5417373  55.0746326  57.5875872  30.1107373  56.1666326
  58.1935872  30.7597373  56.6786326  56.7285872  29.8567373  56.6046326
  57.2175872  28.6697373  54.5326326  57.5165872  28.1747373  53.6796326
  56.3405872  28.4377373  54.9406326  59.4265872  35.0227373  53.9516326
  59.1565872  35.0777373  52.7676326  58.5145872  35.3877373  54.9216326
  58.8315872  35.3017373  55.8886326  57.1255872  35.7887373  54.6336326
  56.6375872  34.9817373  54.0836326  56.3425872  36.0337373  55.9306326
  56.9025872  36.7017373  56.5876326  55.3885872  36.5037373  55.6846326
  56.0575872  34.7127373  56.6516326  55.5715872  34.0197373  55.9666326
  56.9955872  34.2657373  56.9776326  55.1505872  34.9257373  57.8626326
  55.5795872  35.6947373  58.5076326  54.1665872  35.2517373  57.5246326
  55.0485872  33.6687373  58.6076326  55.7565872  32.9607373  58.4176326
  54.2215872  33.3457373  59.5716326  53.2175872  34.0847373  59.9426326
  52.9875872  34.9247373  59.4176326  52.6295872  33.7737373  60.7036326
  54.4385872  32.2327373  60.1986326  55.2485872  31.6847373  59.9046326
  53.8755872  32.0037373  61.0066326  57.0515872  37.0097373  53.7266326
  56.2735872  36.9987373  52.7916326  57.9145872  38.0617373  53.9596326
  58.5055872  37.9837373  54.7866326  57.9655872  39.2847373  53.1416326
  56.9765872  39.7457373  53.1546326  58.9695872  40.2597373  53.7836326
  58.7685872  40.3037373  54.8526326  59.9865872  39.8857373  53.6496326
  58.8685872  41.6867373  53.2236326  59.2445872  41.7037373  52.1986326
  57.8235872  42.0007373  53.2236326  59.6785872  42.6647373  54.0906326
  59.2695872  42.6627373  55.1016326  60.7205872  42.3397373  54.1316326
  59.6115872  44.0847373  53.5166326  60.1165872  44.0947373  52.5466326
  58.5645872  44.3557373  53.3556326  60.2495872  45.0747373  54.4166326
  61.2145872  44.8297373  54.6456326  60.3385872  45.9817373  53.9546326
  59.7515872  45.1987373  55.2836326  58.2865872  38.9757373  51.6746326
  57.6215872  39.4797373  50.7866326  59.2895872  38.0677373  51.4116326
  59.8005872  37.7027373  52.2126326  59.6365872  37.6107373  50.0626326
  59.7095872  38.4877373  49.4206326  61.0205872  36.9377373  50.1156326
  61.7465872  37.6627373  50.5066326  60.9795872  36.1257373  50.8546326
  61.5845872  36.3677373  48.8126326  61.1905872  36.8647373  47.5516326
  60.4765872  37.6697373  47.4716326  61.7025872  36.2917373  46.3726326
  61.3775872  36.6517373  45.4116326  62.6305872  35.2347373  46.4456326
  63.0915872  34.6677373  45.3046326  62.8505872  35.1967373  44.5276326
  63.0665872  34.7687373  47.7016326  63.7965872  33.9707373  47.7476326
  62.5375872  35.3297373  48.8796326  62.8595872  34.9517373  49.8416326
  58.5585872  36.6887373  49.4586326  58.1245872  36.8937373  48.3376326
  58.0665872  35.6677373  50.2376326  58.4885872  35.5577373  51.1586326
  57.1155872  34.6497373  49.7836326  57.5145872  34.1857373  48.8806326
  57.0295872  33.5717373  50.8756326  58.0495872  33.3397373  51.2076326
  56.5225872  33.9847373  51.7556326  56.3695872  32.2517373  50.4936326
  54.9755872  32.1647373  50.3136326  54.3585872  33.0477373  50.3956326
  54.3725872  30.9177373  50.0696326  53.3015872  30.8497373  49.9556326
  55.1565872  29.7547373  49.9916326  54.6975872  28.7907373  49.8206326
  56.5455872  29.8397373  50.1676326  57.1445872  28.9417373  50.1496326
  57.1525872  31.0827373  50.4136326  58.2215872  31.1247373  50.5726326
  55.7435872  35.2517373  49.4306326  55.1735872  34.9037373  48.4136326
  55.2265872  36.2437373  50.2456326  55.7685872  36.4707373  51.0786326
  54.0005872  37.0167373  49.9826326  53.1355872  36.3517373  49.9666326
  53.8315872  38.0447373  51.1166326  53.6915872  37.5027373  52.0596326
  54.7645872  38.6137373  51.2266326  52.7035872  39.0427373  50.9896326
  52.6775872  40.2697373  51.6536326  51.4275872  40.7337373  51.5536326
  51.0485872  41.5977373  52.0876326  50.6695872  39.8737373  50.8576326
  49.6505872  39.8677373  50.9316326  51.4565872  38.8017373  50.4906326
  51.1255872  37.8707373  50.0516326  54.0775872  37.7337373  48.6336326
  53.1925872  37.6037373  47.8046326  55.2185872  38.4707373  48.4036326
  55.8915872  38.4977373  49.1646326  55.5185872  39.2177373  47.1846326
  54.7145872  39.9327373  47.0036326  56.8175872  39.9977373  47.4556326
  56.6695872  40.6217373  48.3386326  57.6145872  39.2907373  47.6726326
  57.2685872  40.9047373  46.3116326  57.4795872  40.2987373  45.4306326
  56.4455872  41.5787373  46.0836326  58.7215872  41.9317373  46.6826326
  59.9915872  40.6627373  46.9376326  60.1055872  40.0507373  46.0346326
  60.9505872  41.1387373  47.1686326  59.7205872  40.0197373  47.7806326
  55.6045872  38.2937373  45.9536326  55.0425872  38.5977373  44.9156326
  56.2625872  37.0877373  46.0926326  56.7285872  36.9287373  46.9846326
  56.3805872  36.0707373  45.0426326  56.7555872  36.5567373  44.1416326
  57.4235872  35.0347373  45.5116326  58.3795872  35.5427373  45.6486326
  57.1125872  34.6507373  46.4836326  57.6325872  33.8277373  44.5776326
  56.6935872  33.2867373  44.4746326  58.1295872  34.2357373  43.1896326
  59.0675872  34.7997373  43.2606326  58.3075872  33.3487373  42.5706326
  57.3865872  34.8537373  42.6716326  58.6705872  32.8847373  45.1886326
  58.3405872  32.5347373  46.1756326  58.8195872  32.0027373  44.5546326
  59.6365872  33.3907373  45.3096326  55.0255872  35.4307373  44.6796326
  54.6845872  35.3367373  43.5096326  54.2015872  35.0027373  45.7016326
  54.5525872  35.0987373  46.6546326  52.8885872  34.3827373  45.4726326
  53.0235872  33.5597373  44.7696326  52.3265872  33.8097373  46.7856326
  53.1175872  33.7727373  47.5406326  51.5725872  34.4897373  47.1976326
  51.7305872  32.4107373  46.6676326  50.5245872  32.1797373  45.9756326
  50.0055872  33.0057373  45.5076326  50.0035872  30.8707373  45.8776326
  49.0855872  30.6867373  45.3386326  50.6765872  29.7927373  46.4976326
  50.2045872  28.5207373  46.4066326  49.5895872  28.3987373  45.6356326
  51.8735872  30.0317373  47.2006326  52.3865872  29.2077373  47.6676326
  52.4065872  31.3317373  47.2636326  53.3535872  31.5037373  47.7546326
  51.8975872  35.3747373  44.8486326  51.1055872  34.9947373  44.0016326
  51.9825872  36.6987373  45.2376326  52.6385872  36.9157373  45.9866326
  51.2115872  37.7897373  44.6416326  50.1515872  37.5657373  44.7666326
  51.5285872  39.0887373  45.4106326  51.1785872  38.9737373  46.4376326
  52.6095872  39.2147373  45.4456326  50.9295872  40.3817373  44.8266326
  51.3255872  40.5417373  43.8246326  49.4035872  40.3427373  44.7636326
  48.9715872  40.1477373  45.7526326  49.0125872  41.2997373  44.3966326
  49.0745872  39.5617373  44.0706326  51.3385872  41.5687373  45.6976326
  52.4305872  41.6367373  45.7616326  50.9605872  42.5067373  45.2716326
  50.9395872  41.4607373  46.7126326  51.4735872  37.8947373  43.1296326
  50.5265872  37.8737373  42.3626326  52.7805872  37.9157373  42.6726326
  53.5205872  37.9257373  43.3716326  53.1205872  37.9137373  41.2336326
  52.6715872  38.7937373  40.7726326  54.6445872  37.9707373  40.9896326
  55.1265872  37.1517373  41.5226326  55.0115872  37.8597373  39.5026326
  54.4845872  38.6207373  38.9116326  56.0895872  38.0027373  39.3586326
  54.7555872  36.8727373  39.0996326  55.2365872  39.2907373  41.4846326
  55.0445872  39.4217373  42.5516326  56.3235872  39.3057373  41.3386326
  54.8035872  40.1427373  40.9506326  52.5245872  36.6907373  40.5326326
  51.9175872  36.8227373  39.4846326  52.6535872  35.4627373  41.1416326
  53.1695872  35.4307373  42.0176326  52.1655872  34.2217373  40.5366326
  52.5865872  34.1367373  39.5326326  52.6655872  33.0307373  41.3616326
  52.2995872  33.0997373  42.3876326  52.2865872  32.1147373  40.9106326
  54.4825872  32.9857373  41.3446326  54.6885872  34.0087373  42.1906326
  50.6345872  34.1997373  40.3706326  50.1385872  33.7687373  39.3446326
  49.8505872  34.7337373  41.3736326  50.3285872  35.0577373  42.2136326
  48.3985872  34.9027373  41.2556326  47.9585872  33.9567373  40.9416326
  47.8135872  35.3037373  42.6196326  48.4375872  36.0917373  43.0436326
  46.8135872  35.7147373  42.4736326  47.7185872  34.1317373  43.6096326
  48.6345872  33.5417373  43.5796326  47.5305872  34.6637373  45.0266326
  46.6115872  35.2567373  45.1006326  47.4735872  33.8387373  45.7476326
  48.3765872  35.3037373  45.2996326  46.5265872  33.2267373  43.2956326
  46.6145872  32.7957373  42.2926326  46.4755872  32.4037373  44.0186326
  45.5845872  33.7857373  43.3456326  48.0275872  35.9367373  40.1846326
  47.1075872  35.7147373  39.4156326  48.7855872  37.0837373  40.0906326
  49.5275872  37.2127373  40.7786326  48.5535872  38.1087373  39.0696326
  47.5045872  38.3967373  39.1206326  49.3965872  39.3567373  39.3666326
  50.4455872  39.0777373  39.4656326  49.2945872  40.0517373  38.5376326
  48.9355872  40.0827373  40.6366326  47.9525872  40.5137373  40.4556326
  48.8325872  39.3627373  41.4456326  50.0515872  41.3947373  41.2016326
  49.7515872  42.6567373  39.9376326  48.6915872  42.9357373  39.9336326
  50.3525872  43.5507373  40.1516326  50.0245872  42.2787373  38.9456326
  48.8065872  37.5747373  37.6476326  48.0315872  37.8767373  36.7506326
  49.8645872  36.7067373  37.4506326  50.4805872  36.5647373  38.2506326
  50.1395872  35.9667373  36.2036326  50.2005872  36.6767373  35.3786326
  51.4905872  35.2207373  36.2966326  51.5365872  34.6807373  37.2416326
  51.7185872  34.2137373  35.1616326  51.6145872  34.6957373  34.1816326
  52.7215872  33.7747373  35.2266326  51.0005872  33.3857373  35.2206326
  52.6605872  36.2077373  36.2436326  52.5495872  36.9997373  36.9926326
  53.6075872  35.6897373  36.4406326  52.7265872  36.6777373  35.2556326
  48.9975872  35.0007373  35.8716326  48.4905872  35.0267373  34.7636326
  48.5205872  34.1797373  36.8726326  49.0275872  34.1877373  37.7556326
  47.3965872  33.2467373  36.7076326  47.6505872  32.5107373  35.9466326
  47.1695872  32.5117373  38.0386326  48.0045872  31.8217373  38.2126326
  47.1925872  33.2297373  38.8646326  45.8745872  31.7467373  38.1306326
  45.6665872  30.4457373  37.6756326  44.3915872  30.1537373  37.9676326
  43.9205872  29.2027373  37.7616326  43.7995872  31.1907373  38.5856326
  42.8505872  31.2037373  38.9306326  44.7215872  32.2077373  38.6956326
  44.5755872  33.1827373  39.1446326  46.1275872  33.9537373  36.2166326
  45.5265872  33.5287373  35.2426326  45.7425872  35.1147373  36.8566326
  46.2875872  35.3927373  37.6716326  44.5875872  35.9137373  36.4426326
  43.6905872  35.2957373  36.4766326  44.4645872  36.7407373  37.1406326
  44.7275872  36.4927373  35.0286326  43.7755872  36.4787373  34.2656326
  45.9705872  36.9477373  34.6326326  46.7245872  36.8947373  35.3116326
  46.2535872  37.4557373  33.2876326  45.5235872  38.2287373  33.0446326
  47.6515872  38.0887373  33.2596326  47.6935872  38.9097373  33.9836326
  48.3935872  37.3527373  33.5926326  48.0635872  38.6107373  31.8896326
  48.7485872  37.7717373  30.9886326  48.9955872  36.7587373  31.2716326
  49.0985872  38.2417373  29.7106326  49.6175872  37.5937373  29.0186326
  48.7695872  39.5527373  29.3296326  49.0415872  39.9127373  28.3476326
  48.0915872  40.3947373  30.2296326  47.8465872  41.4097373  29.9466326
  47.7415872  39.9257373  31.5066326  47.2305872  40.5847373  32.1936326
  46.1295872  36.3577373  32.2216326  45.4675872  36.5477373  31.2156326
  46.7405872  35.1447373  32.4606326  47.2835872  35.0567373  33.3196326
  46.6655872  34.0217373  31.5206326  46.9405872  34.3887373  30.5296326
  47.6775872  32.9157373  31.9066326  47.5085872  32.6347373  32.9476326
  47.4535872  31.6777373  31.0236326  47.4485872  31.9517373  29.9596326
  48.2275872  30.9177373  31.1736326  46.4945872  31.2147373  31.2736326
  49.1325872  33.4227373  31.7556326  49.3495872  33.6037373  30.7016326
  49.2435872  34.3697373  32.2836326  50.1855872  32.4637373  32.3266326
  50.2685872  31.5497373  31.7266326  51.1725872  32.9417373  32.3326326
  49.9365872  32.1847373  33.3576326  45.2155872  33.5207373  31.4076326
  44.7345872  33.2767373  30.3146326  44.4305872  33.4577373  32.5456326
  44.8875872  33.6477373  33.4396326  43.0015872  33.1087373  32.5026326
  42.9225872  32.1667373  31.9596326  42.4815872  32.9167373  33.9396326
  43.1815872  32.2867373  34.4906326  42.4525872  33.8877373  34.4376326
  41.0835872  32.2767373  34.0256326  40.7855872  32.2477373  35.0746326
  40.3665872  32.9057373  33.4966326  41.0045872  30.8507373  33.4526326
  39.9635872  30.5247373  33.4516326  41.3235872  30.8607373  32.4106326
  41.8355872  29.8897373  34.2106326  42.7925872  29.7667373  33.9056326
  41.4545872  29.1137373  35.2096326  40.2475872  29.1247373  35.7026326
  39.5575872  29.7757373  35.3266326  39.9865872  28.4857373  36.4276326
  42.3185872  28.3017373  35.7426326  43.2725872  28.3217373  35.3846326
  42.0925872  27.6837373  36.5016326  42.1785872  34.1317373  31.7066326
  41.2675872  33.7467373  30.9946326  42.5365872  35.4617373  31.7636326
  43.2765872  35.7087373  32.4176326  41.9385872  36.5067373  30.9276326
  40.8565872  36.4627373  31.0476326  42.4115872  37.8817373  31.4306326
  42.0815872  38.0287373  32.4586326  43.4955872  37.9317373  31.4216326
  41.8685872  39.0147373  30.5856326  40.6785872  39.2137373  30.4846326
  42.7455872  39.8017373  29.9206326  42.3575872  40.5957373  29.4086326
  43.7305872  39.6167373  30.0186326  42.2125872  36.3117373  29.4186326
  41.3975872  36.7227373  28.6066326  43.3485872  35.6367373  29.0246326
  44.0125872  35.3667373  29.7476326  43.5905872  35.2017373  27.6426326
  43.3345872  36.0247373  26.9796326  45.0805872  34.8877373  27.4226326
  45.6585872  35.7437373  27.7746326  45.3865872  34.0177373  28.0006326
  45.4195872  34.6717373  25.9396326  44.9135872  35.4417373  25.3536326
  46.4875872  34.8367373  25.8096326  45.0725872  33.2857373  25.3656326
  44.9695872  33.1787373  24.1216326  44.8745872  32.2857373  26.0966326
  42.6945872  34.0237373  27.2456326  42.1135872  34.0387373  26.1736326
  42.4945872  33.0037373  28.1536326  43.0525872  33.0317373  29.0056326
  41.6595872  31.8327373  27.8556326  42.0555872  31.3397373  26.9666326
  41.6885872  30.8397373  29.0276326  41.2385872  31.3127373  29.9086326
  41.0285872  30.0067373  28.7646326  43.0025872  30.2407373  29.4436326
  44.2335872  30.5627373  28.9816326  44.4535872  31.3387373  28.2566326
  45.1845872  29.7617373  29.5776326  46.1765872  29.8687373  29.4136326
  44.6215872  28.8957373  30.4836326  45.1565872  27.9117373  31.3236326
  46.2185872  27.7137373  31.3326326  44.2935872  27.1827373  32.1546326
  44.6965872  26.4257373  32.8136326  42.9105872  27.4387373  32.1296326
  42.2535872  26.8587373  32.7646326  42.3845872  28.4287373  31.2766326
  41.3235872  28.6187373  31.2646326  43.2245872  29.1837373  30.4306326
  40.2115872  32.2487373  27.5476326  39.5935872  31.7457373  26.6246326
  39.6925872  33.2697373  28.3176326  40.3015872  33.5797373  29.0736326
  38.3995872  33.9517373  28.1336326  37.5945872  33.2187373  28.1896326
  38.2485872  34.9617373  29.2996326  39.1875872  35.5087373  29.3866326
  37.1415872  36.0107373  29.1186326  36.1585872  35.5357373  29.1416326
  37.1855872  36.7557373  29.9196326  37.2465872  36.5577373  28.1776326
  38.0065872  34.1977373  30.6186326  37.0445872  33.6897373  30.5736326
  38.7705872  33.4337373  30.7506326  38.0395872  35.1067373  31.8496326
  37.0905872  35.6427373  31.9686326  38.2155872  34.5137373  32.7526326
  38.8465872  35.8417373  31.7666326  38.2875872  34.6427373  26.7606326
  37.1975872  34.8367373  26.2506326  39.4485872  35.0367373  26.1346326
  40.3215872  34.7737373  26.5876326  39.5315872  35.7527373  24.8636326
  38.6515872  36.3927373  24.7776326  40.8095872  36.6247373  24.8936326
  41.3165872  36.5377373  25.8526326  41.5095872  36.2787373  24.1316326
  40.5305872  38.0967373  24.6876326  39.5775872  38.6417373  25.2006326
  41.4005872  38.8077373  23.9366326  41.2985872  39.8207373  24.0226326
  42.3035872  38.3747373  23.7406326  39.5145872  34.8347373  23.6246326
  39.3825872  35.3417373  22.5216326  39.6685872  33.4687373  23.7916326
  39.7645872  33.1467373  24.7506326  39.8905872  32.5147373  22.6916326
  40.8825872  32.7107373  22.2836326  39.8855872  31.0807373  23.2326326
  40.6765872  30.9647373  23.9746326  38.9285872  30.8817373  23.7156326
  40.0755872  30.1497373  22.1786326  41.0485872  30.0937373  21.9756326
  38.8745872  32.6527373  21.5476326  37.6685872  32.6287373  21.7516326
  39.3785872  32.7667373  20.2646326  40.3905872  32.7067373  20.1626326
  38.5445872  33.0217373  19.0816326  37.9255872  33.8967373  19.2886326
  39.4475872  33.3387373  17.8826326  40.1895872  34.0817373  18.1846326
  39.9705872  32.4367373  17.5636326  38.6395872  33.9077373  16.7096326
  37.8625872  33.2047373  16.4076326  38.1725872  34.8437373  17.0226326
  39.5615872  34.1697373  15.5176326  40.4165872  34.7637373  15.8476326
  39.9145872  33.2197373  15.1146326  38.8045872  34.9377373  14.4366326
  37.9965872  34.3187373  14.0366326  38.3615872  35.8247373  14.8976326
  39.7145872  35.3587373  13.3546326  40.0635872  34.5727373  12.8126326
  39.2385872  35.9987373  12.7276326  40.5185872  35.8597373  13.7346326
  37.5995872  31.8587373  18.7886326  36.4205872  32.0737373  18.5716326
  38.1145872  30.5767373  18.8466326  39.1185872  30.5107373  18.9916326
  37.3175872  29.3467373  18.6886326  36.8625872  29.3407373  17.6966326
  38.2655872  28.1387373  18.8006326  39.0385872  28.2447373  18.0386326
  38.7495872  28.1477373  19.7796326  37.5675872  26.7827373  18.6026326
  36.8725872  26.6137373  19.4256326  37.0025872  26.7857373  17.6696326
  38.5835872  25.6317373  18.5846326  39.2215872  25.7217373  19.4646326
  38.0415872  24.6867373  18.6526326  39.3995872  25.6257373  17.3536326
  39.0035872  26.0667373  16.5366326  40.5955872  25.0817373  17.2006326
  41.2285872  24.4727373  18.1616326  40.8625872  24.4957373  19.1096326
  42.1265872  24.0517373  17.9966326  41.1945872  25.1417373  16.0496326
  40.7485872  25.6297373  15.2796326  42.1475872  24.8197373  15.9666326
  36.1625872  29.2847373  19.6946326  35.0705872  28.8867373  19.3366326
  36.3935872  29.7567373  20.9676326  37.3285872  30.0897373  21.1696326
  35.3595872  29.8537373  21.9986326  34.8195872  28.9067373  22.0186326
  36.0595872  30.0507373  23.3546326  36.7815872  29.2457373  23.4886326
  36.6085872  30.9897373  23.3346326  35.1285872  30.0827373  24.5746326
  34.4365872  30.9157373  24.4746326  34.3375872  28.7817373  24.7226326
  35.0085872  27.9127373  24.7246326  33.7765872  28.7737373  25.6616326
  33.6145872  28.6677373  23.9076326  35.9695872  30.2937373  25.8326326
  36.5495872  31.2237373  25.7606326  35.3315872  30.3667373  26.7176326
  36.6685872  29.4637373  25.9816326  34.3335872  30.9567373  21.6796326
  33.1415872  30.7027373  21.6866326  34.8105872  32.1967373  21.3016326
  35.8205872  32.3247373  21.3526326  33.9645872  33.3307373  20.8936326
  33.3595872  33.6317373  21.7466326  34.8695872  34.5147373  20.5146326
  35.4105872  34.8427373  21.4036326  35.5965872  34.1977373  19.7686326
  34.1305872  35.6017373  19.9896326  34.5435872  36.4617373  20.3316326
  33.0015872  32.9557373  19.7536326  31.8065872  33.1987373  19.8426326
  33.5095872  32.2167373  18.6956326  34.5175872  32.0567373  18.7116326
  32.7115872  31.7087373  17.5636326  32.2645872  32.5537373  17.0416326
  33.6135872  30.9167373  16.5936326  34.1595872  30.1677373  17.1686326
  32.9845872  30.3737373  15.8866326  34.6365872  31.7337373  15.7796326
  35.1845872  32.4147373  16.4266326  35.3535872  31.0287373  15.3576326
  34.0335872  32.5267373  14.6116326  34.8375872  32.7807373  13.9166326
  33.3135872  31.8997373  14.0836326  33.3975872  33.7767373  15.0566326
  33.6545872  34.1477373  15.9666326  32.5465872  34.5217373  14.3826326
  32.1545872  34.2387373  13.1786326  32.5975872  33.4867373  12.6686326
  31.3435872  34.7117373  12.7946326  32.0655872  35.5917373  14.9296326
  32.4105872  35.8427373  15.8506326  31.5985872  36.2657373  14.3346326
  31.5265872  30.8327373  17.9936326  30.5295872  30.8257373  17.2936326
  31.6255872  30.0677373  19.1426326  32.5035872  30.1467373  19.6476326
  30.5535872  29.2167373  19.6966326  29.9385872  28.8377373  18.8776326
  31.2005872  28.0167373  20.4166326  31.7455872  27.4197373  19.6826326
  31.9345872  28.3927373  21.1306326  30.2355872  27.1007373  21.1956326
  30.8365872  26.3307373  21.6786326  29.7585872  27.6757373  21.9906326
  29.1405872  26.3917373  20.3826326  28.5465872  25.7947373  21.0766326
  28.4825872  27.1227373  19.9096326  29.7485872  25.4747373  19.3166326
  30.0565872  26.0827373  18.4616326  30.6455872  25.0067373  19.7316326
  28.8125872  24.4097373  18.8856326  27.9125872  24.7847373  18.5896326
  29.2125872  23.8977373  18.1076326  28.6875872  23.7467373  19.6456326
  29.6015872  29.9937373  20.6116326  28.3975872  29.8767373  20.4746326
  30.1455872  30.8277373  21.5666326  31.1615872  30.8767373  21.6066326
  29.3315872  31.5567373  22.5546326  28.6685872  30.8417373  23.0396326
  30.2325872  32.1887373  23.6276326  30.9045872  32.8937373  23.1376326
  29.5985872  32.7497373  24.3156326  31.0785872  31.1977373  24.4486326
  31.7335872  30.6357373  23.7886326  31.9405872  31.9847373  25.4316326
  31.3195872  32.4687373  26.1946326  32.6465872  31.3227373  25.9406326
  32.5225872  32.7537373  24.9086326  30.2355872  30.2067373  25.2516326
  29.6015872  29.5987373  24.5966326  30.8805872  29.5177373  25.8066326
  29.5985872  30.7317373  25.9726326  28.4045872  32.6087373  21.9186326
  27.4065872  32.9717373  22.5166326  28.7005872  33.0387373  20.6396326
  29.6015872  32.7397373  20.2786326  27.8545872  33.8937373  19.7936326
  27.9145872  34.9227373  20.1506326  28.4185872  33.8357373  18.3666326
  29.4475872  34.1997373  18.3706326  28.4165872  32.7987373  18.0236326
  27.6535872  34.6147373  17.4696326  27.9385872  34.4107373  16.5576326
  26.3695872  33.4857373  19.7786326  25.4955872  34.3347373  19.7126326
  26.0495872  32.1447373  19.8716326  26.8225872  31.4867373  19.8946326
  24.6805872  31.6257373  19.7866326  24.1705872  32.1247373  18.9626326
  24.7375872  30.1197373  19.4736326  25.4235872  29.6177373  20.1546326
  23.7465872  29.6937373  19.6266326  25.1645872  29.8267373  18.0476326
  26.1665872  30.2977373  17.5596326  24.3835872  29.0037373  17.3096326
  24.6685872  28.8417373  16.3566326  23.5075872  28.6807373  17.7056326
  23.8175872  31.8707373  21.0366326  22.6025872  31.8127373  20.9386326
  24.4295872  32.1077373  22.2526326  25.4415872  32.2177373  22.2496326
  23.7095872  32.0237373  23.5326326  23.1505872  31.0887373  23.5516326
  24.7255872  32.0157373  24.6916326  25.2925872  32.9477373  24.6616326
  24.1695872  31.9957373  25.6316326  25.7225872  30.8397373  24.6916326
  26.3375872  30.8747373  23.7946326  26.6365872  30.9437373  25.9106326
  26.0515872  30.9557373  26.8386326  27.3205872  30.0887373  25.9526326
  27.2315872  31.8627373  25.8616326  25.0335872  29.4787373  24.7486326
  24.4505872  29.2967373  23.8396326  25.7755872  28.6747373  24.8246326
  24.3675872  29.4127373  25.6186326  22.6675872  33.1387373  23.7336326
  21.6375872  32.9147373  24.3526326  22.9405872  34.3747373  23.1856326
  23.7885872  34.4427373  22.6346326  22.0965872  35.5687373  23.3486326
  21.4025872  35.3787373  24.1616326  22.9545872  36.7847373  23.7576326
  23.7085872  36.9607373  22.9906326  22.1245872  38.0637373  23.9116326
  21.3275872  37.9227373  24.6496326  22.7585872  38.8957373  24.2436326
  21.6745872  38.3577373  22.9566326  23.6685872  36.5337373  25.0946326
  24.3935872  35.7147373  25.0016326  24.2195872  37.4257373  25.4186326
  22.9555872  36.2697373  25.8846326  21.2975872  35.8467373  22.0656326
  21.9025872  36.0067373  21.0156326  19.9085872  35.9457373  22.1106326
  19.0685872  35.7167373  23.2916326  19.3875872  36.3437373  24.1316326
  19.1175872  34.6557373  23.5726326  17.6435872  36.0887373  22.8586326
  17.4355872  37.1267373  23.1426326  16.8875872  35.4437373  23.3256326
  17.6395872  35.9717373  21.3256326  16.9155872  36.6447373  20.8486326
  17.4065872  34.9387373  21.0336326  19.0915872  36.2947373  20.9456326
  19.3705872  35.6657373  20.1006326  19.2925872  37.7627373  20.5416326
  19.5355872  38.6347373  21.3596326  19.1575872  38.0877373  19.2166326
  18.8905872  37.3427373  18.5686326  19.5535872  39.3827373  18.6566326
  20.5475872  39.6047373  19.0426326  19.6995872  39.2777373  17.1296326
  20.2305872  40.1737373  16.8026326  20.3355872  38.4287373  16.8796326
  18.3985872  39.2057373  16.3156326  17.7095872  39.9807373  16.6556326
  18.6665872  39.4417373  15.2876326  17.6685872  37.8547373  16.2966326
  18.0425872  36.9007373  17.0216326  16.6755872  37.7657373  15.5426326
  18.6505872  40.5527373  19.0886326  19.0795872  41.6937373  19.0796326
  17.3795872  40.2797373  19.5646326  17.0815872  39.3107373  19.5106326
  16.5345872  41.2787373  20.2436326  16.6625872  42.2297373  19.7286326
  15.0455872  40.8737373  20.1686326  14.9535872  39.7957373  20.3116326
  14.5005872  41.3527373  20.9846326  14.3455872  41.2717373  18.8526326
  14.8415872  40.7877373  18.0106326  13.3165872  40.9107373  18.8996326
  14.3245872  42.7977373  18.6346326  14.0995872  43.2847373  19.5836326
  15.3065872  43.1367373  18.3086326  13.2805872  43.2767373  17.6186326
  12.2855872  42.9607373  17.9456326  13.2875872  44.3717373  17.6106326
  13.5505872  42.7827373  16.2496326  13.3435872  41.7937373  16.1726326
  12.9615872  43.2667373  15.5786326  14.5135872  42.9637373  15.9756326
  16.9815872  41.5927373  21.6806326  16.5285872  42.5727373  22.2416326
  17.9275872  40.7897373  22.2826326  18.2335872  39.9767373  21.7556326
  18.6795872  41.1557373  23.4976326  18.1085872  41.8977373  24.0556326
  18.8685872  39.9387373  24.4256326  19.3095872  39.1167373  23.8676326
  19.7745872  40.2397373  25.6256326  19.3785872  41.0707373  26.2206326
  19.8645872  39.3567373  26.2656326  20.7905872  40.4997373  25.3046326
  17.5055872  39.4867373  24.9656326  16.8425872  39.1737373  24.1506326
  17.6155872  38.6377373  25.6496326  17.0085872  40.3037373  25.5026326
  20.0115872  41.8227373  23.1416326  20.4315872  42.7327373  23.8326326
  20.6645872  41.4567373  21.9816326  20.3065872  40.6527373  21.4756326
  21.8205872  42.2037373  21.4626326  22.6025872  42.1927373  22.2226326
  22.3695872  41.5087373  20.2106326  22.4685872  40.4327373  20.4106326
  21.6475872  41.6057373  19.3916326  23.7135872  42.0417373  19.7316326
  24.9025872  41.3717373  20.0796326  24.8665872  40.4827373  20.6936326
  26.1405872  41.8407373  19.6036326  27.0495872  41.3127373  19.8496326
  26.1955872  42.9847373  18.7896326  27.1445872  43.3407373  18.4136326
  25.0115872  43.6647373  18.4566326  25.0515872  44.5437373  17.8296326
  23.7715872  43.1897373  18.9186326  22.8655872  43.7097373  18.6396326
  21.4675872  43.6807373  21.1956326  22.2465872  44.5627373  21.5116326
  20.2035872  43.9687373  20.7176326  19.6615872  43.1777373  20.3766326
  19.6315872  45.3227373  20.6126326  20.2375872  45.9087373  19.9216326
  18.1835872  45.2327373  20.0826326  17.6755872  44.4177373  20.5976326
  17.6435872  46.1477373  20.3306326  18.0555872  45.0077373  18.5666326
  18.6685872  44.1547373  18.2766326  17.0155872  44.7597373  18.3506326
  18.4495872  46.2227373  17.7146326  18.3315872  46.1547373  16.4646326
  18.9765872  47.2317373  18.2436326  19.6165872  46.1057373  21.9406326
  19.6255872  47.3247373  21.9156326  19.5965872  45.4157373  23.1376326
  19.6305872  44.4027373  23.0846326  19.6885872  46.0557373  24.4556326
  19.1765872  47.0167373  24.4156326  19.0035872  45.1787373  25.5256326
  19.5905872  44.2717373  25.6596326  19.0265872  45.7167373  26.4726326
  17.5445872  44.7797373  25.2376326  17.4875872  44.2577373  24.2836326
  17.0495872  43.8277373  26.3276326  17.0705872  44.3187373  27.3096326
  16.0195872  43.5117373  26.1216326  17.6785872  42.9317373  26.3736326
  16.6115872  45.9907373  25.1966326  16.8875872  46.6647373  24.3776326
  15.5765872  45.6657373  25.0326326  16.6545872  46.5467373  26.1426326
  21.1475872  46.3447373  24.8476326  21.4205872  47.3397373  25.4926326
  22.1225872  45.4637373  24.4226326  21.7985872  44.6787373  23.8656326
  23.5585872  45.6207373  24.6846326  23.6945872  45.9187373  25.7236326
  24.2815872  44.2817373  24.4426326  24.1295872  43.9927373  23.4016326
  25.3525872  44.4387373  24.5846326  23.8365872  43.1177373  25.3446326
  22.7645872  42.9557373  25.2406326  24.5575872  41.8427373  24.9046326
  25.6415872  41.9407373  25.0346326  24.2125872  40.9857373  25.4936326
  24.3515872  41.6277373  23.8496326  24.1585872  43.3747373  26.8186326
  23.5775872  44.2217373  27.2026326  23.9075872  42.4977373  27.4246326
  25.2225872  43.5957373  26.9566326  24.2055872  46.7187373  23.8246326
  25.0515872  47.4537373  24.3066326  23.7955872  46.8437373  22.5126326
  23.1125872  46.1597373  22.1886326  24.3375872  47.8197373  21.5566326
  24.9075872  48.5687373  22.1066326  25.3295872  47.1277373  20.6006326
  24.7765872  46.4407373  19.9456326  25.7845872  47.8817373  19.9456326
  26.4345872  46.3537373  21.2766326  27.6305872  46.8757373  21.7956326
  28.3015872  45.8107373  22.2756326  29.2765872  45.8577373  22.7406326
  27.5975872  44.6807373  22.0936326  27.8985872  43.7347373  22.3276326
  26.4185872  45.0057373  21.4716326  25.6285872  44.3287373  21.1706326
  23.2255872  48.5937373  20.8176326  23.1495872  48.5317373  19.5996326
  22.3305872  49.3647373  21.5546326  22.3475872  49.5127373  23.0156326
  23.3525872  49.7387373  23.3926326  21.9815872  48.5837373  23.4606326
  21.3685872  50.6477373  23.3276326  21.9045872  51.6037373  23.3656326
  20.8565872  50.4987373  24.2846326  20.3995872  50.6487373  22.1376326
  19.9245872  51.6237373  21.9826326  19.6195872  49.8997373  22.3096326
  21.2965872  50.2217373  20.9626326  20.7165872  49.6637373  20.2296326
  21.9125872  51.4497373  20.2806326  23.0585872  51.7937373  20.5296326
  21.1235872  52.2087373  19.4466326  20.1735872  51.8947373  19.2626326
  21.5245872  53.5717373  19.0796326  22.5805872  53.5537373  18.8056326
  20.7525872  54.0747373  17.8456326  19.6815872  53.9277373  17.9826326
  20.9295872  55.1467373  17.7476326  21.2195872  53.4137373  16.5316326
  20.7485872  53.9337373  15.6996326  22.2975872  53.5357373  16.4286326
  20.8715872  51.9317373  16.4096326  21.7145872  51.0597373  16.4826326
  19.5835872  51.5727373  16.2116326  19.3715872  50.5837373  16.1476326
  18.8945872  52.2807373  15.9746326  21.4115872  54.5107373  20.3026326
  20.6245872  54.2767373  21.2166326  22.2705872  55.5957373  20.3376326
  22.8845872  55.7167373  19.5326326  22.3155872  56.5987373  21.4126326
  22.3515872  56.0817373  22.3696326  23.5995872  57.4397373  21.2826326
  24.4625872  56.7747373  21.3396326  23.6155872  57.9207373  20.3056326
  23.7265872  58.5167373  22.3776326  22.8905872  59.2117373  22.3086326
  23.7055872  58.0407373  23.3586326  25.0295872  59.3107373  22.2226326
  25.8775872  58.6297373  22.3036326  25.0445872  59.7837373  21.2386326
  25.1335872  60.3947373  23.3036326  24.2975872  61.0927373  23.1816326
  25.0535872  59.9267373  24.2876326  26.4165872  61.1257373  23.2006326
  26.4595872  61.6007373  22.3016326  26.4895872  61.8627373  23.9006326
  27.2015872  60.4877373  23.2926326  21.0625872  57.4797373  21.4006326
  20.7495872  58.0937373  20.3936326  20.3685872  57.5797373  22.5766326
  20.6575872  56.9677373  23.3326326  19.2765872  58.5207373  22.8196326
  18.5445872  58.4237373  22.0146326  18.5935872  58.1247373  24.1306326
  18.3585872  57.0587373  24.0916326  19.2855872  58.2737373  24.9566326
  17.3035872  58.8957373  24.4036326  17.2805872  60.1447373  24.4416326
  16.2715872  58.2257373  24.6236326  19.7905872  59.9707373  22.8316326
  20.6925872  60.3147373  23.5786326  19.2195872  60.8267373  21.9226326
  18.5175872  60.4247373  21.3016326  19.6365872  62.2067373  21.6696326
  20.7275872  62.2327373  21.6586326  19.1415872  62.6447373  20.2746326
  19.5705872  63.6287373  20.0856326  19.5565872  61.9747373  19.5226326
  17.6125872  62.7647373  20.0646326  17.1765872  63.3207373  20.8926326
  17.4555872  63.3637373  19.1666326  16.8585872  61.4347373  19.8706326
  17.4875872  60.3497373  19.8246326  15.6185872  61.4337373  19.6986326
  19.1885872  63.2107373  22.7426326  19.7905872  64.2627373  22.8746326
  18.1055872  62.8977373  23.5326326  17.7215872  61.9577373  23.4326326
  17.5735872  63.7837373  24.5746326  17.8205872  64.8217373  24.3436326
  16.0445872  63.6317373  24.6376326  15.8055872  62.5817373  24.7856326
  15.6665872  64.1757373  25.5046326  15.2995872  64.1157373  23.3836326
  15.6165872  63.5267373  22.5236326  14.2335872  63.9287373  23.5306326
  15.5015872  65.6097373  23.1056326  15.7785872  66.3727373  24.0606326
  15.3105872  66.0567373  21.9506326  18.1795872  63.4607373  25.9436326
  18.5455872  64.3527373  26.6996326  18.2885872  62.1217373  26.2526326
  17.9775872  61.4787373  25.5176326  18.7145872  61.5477373  27.5226326
  19.3775872  62.2537373  28.0226326  17.4565872  61.3607373  28.4006326
  16.9985872  62.3397373  28.5546326  16.7455872  60.7487373  27.8466326
  17.6725872  60.6997373  29.7766326  18.0545872  59.6887373  29.6576326
  18.6475872  61.4847373  30.6496326  18.2955872  62.5147373  30.7656326
  18.7255872  61.0337373  31.6476326  19.6505872  61.5077373  30.2096326
  16.3385872  60.6187373  30.5166326  15.6025872  60.0557373  29.9316326
  16.4635872  60.1127373  31.4816326  15.9315872  61.6207373  30.7026326
  19.4915872  60.2427373  27.2536326  18.9285872  59.1637373  27.3666326
  20.8455872  60.3177373  26.9226326  21.5675872  61.5737373  26.6836326
  21.7405872  62.0857373  27.6396326  21.0105872  62.2327373  26.0036326
  22.9025872  61.1617373  26.0496326  23.7245872  61.8227373  26.3506326
  22.8125872  61.1997373  24.9566326  23.1245872  59.7087373  26.5026326
  23.6205872  59.6997373  27.4826326  23.7315872  59.1297373  25.7956326
  21.6985872  59.1557373  26.6196326  21.3975872  58.7517373  25.6526326
  21.6385872  58.0317373  27.6646326  21.8565872  56.8737373  27.3516326
  21.2645872  58.3717373  28.9486326  21.0835872  59.3527373  29.1116326
  21.0585872  57.4227373  30.0396326  21.9945872  56.8807373  30.1716326
  20.7645872  58.2357373  31.3156326  21.4395872  59.0927373  31.3606326
  19.7465872  58.6197373  31.2446326  20.9085872  57.4517373  32.6336326
  20.3215872  56.5357373  32.5916326  22.3665872  57.1127373  32.9526326
  22.9715872  58.0217373  33.0466326  22.4305872  56.5597373  33.8986326
  22.8095872  56.4847373  32.1746326  20.3855872  58.3117373  33.7796326
  19.3355872  58.5797373  33.6096326  20.4385872  57.7657373  34.7296326
  20.9605872  59.2407373  33.8816326  19.9605872  56.3777373  29.7356326
  19.9925872  55.2897373  30.2796326  18.9905872  56.6517373  28.7836326
  19.0125872  57.5777373  28.3536326  18.0255872  55.6497373  28.2876326
  17.6555872  55.0737373  29.1376326  16.8225872  56.3347373  27.6226326
  17.1765872  57.0347373  26.8656326  16.2105872  55.5757373  27.1306326
  15.9415872  57.0627373  28.6506326  15.7075872  56.3827373  29.4696326
  16.4845872  57.9167373  29.0546326  14.6205872  57.5447373  28.0396326
  14.0685872  56.6847373  27.6576326  14.0265872  58.0047373  28.8296326
  14.8535872  58.4927373  26.9376326  15.4805872  58.2047373  26.1876326
  14.3475872  59.6917373  26.7636326  13.4485872  60.1827373  27.5576326
  12.9975872  59.5897373  28.2326326  13.0205872  61.0777373  27.3626326
  14.7485872  60.4257373  25.7726326  15.5125872  60.0767373  25.1806326
  14.3845872  61.3437373  25.6266326  18.6445872  54.6147373  27.3436326
  18.0545872  53.5677373  27.1506326  19.8685872  54.8637373  26.7686326
  20.2805872  55.7787373  26.9286326  20.6865872  53.8247373  26.1266326
  20.0315872  53.0987373  25.6456326  21.5735872  54.4297373  25.0336326
  22.2605872  55.1467373  25.4816326  22.1455872  53.6387373  24.5536326
  20.7875872  55.0917373  24.0566326  20.6865872  54.5157373  23.2586326
  21.5185872  53.0647373  27.1706326  21.5985872  51.8517373  27.1146326
  22.0555872  53.7687373  28.2346326  22.0285872  54.7847373  28.1826326
  22.7265872  53.1387373  29.3906326  23.6085872  52.6007373  29.0426326
  23.1745872  54.2037373  30.4026326  22.2965872  54.7247373  30.7736326
  23.9225872  53.6527373  31.6136326  24.6805872  52.9177373  31.3146326
  24.4215872  54.4627373  32.1626326  23.2255872  53.1717373  32.3076326
  23.9945872  55.1507373  29.7736326  24.9055872  54.7177373  29.6846326
  21.8165872  52.1387373  30.1106326  22.2165872  51.0217373  30.3836326
  20.5165872  52.5207373  30.3936326  20.2785872  53.4927373  30.1956326
  19.5385872  51.6647373  31.0826326  19.9725872  51.3657373  32.0366326
  18.2495872  52.4657373  31.3486326  18.5075872  53.3817373  31.8836326
  17.8095872  52.7567373  30.3926326  17.1805872  51.7057373  32.1596326
  16.3205872  52.3617373  32.2986326  16.8465872  50.8467373  31.5796326
  17.6385872  51.1967373  33.5366326  16.7985872  50.6807373  34.0066326
  18.4445872  50.4737373  33.4016326  18.0835872  52.2967373  34.4126326
  17.8535872  53.2437373  34.1366326  18.7415872  52.1947373  35.5506326
  19.0675872  51.0607373  36.1016326  18.7805872  50.1807373  35.6856326
  19.5385872  51.0497373  37.0016326  19.0685872  53.2857373  36.1646326
  18.7585872  54.1717373  35.7716326  19.5375872  53.2877373  37.0606326
  19.2685872  50.3727373  30.3106326  19.1995872  49.3267373  30.9286326
  19.2055872  50.4397373  28.9296326  19.2985872  51.3597373  28.5216326
  19.0955872  49.2627373  28.0516326  18.2305872  48.6707373  28.3586326
  18.9065872  49.6807373  26.5866326  19.6845872  50.3917373  26.3146326
  19.0105872  48.8027373  25.9466326  17.5275872  50.2987373  26.3346326
  16.7595872  49.5287373  26.4266326  17.3425872  51.0657373  27.0836326
  17.4725872  50.9197373  24.9306326  18.2805872  51.6437373  24.8196326
  17.6185872  50.1317373  24.1906326  16.1415872  51.6237373  24.6406326
  16.1845872  52.0537373  23.6356326  15.3365872  50.8837373  24.6486326
  15.8555872  52.6857373  25.6296326  16.6515872  53.2967373  25.7646326
  15.0315872  53.2257373  25.3816326  15.6545872  52.2787373  26.5386326
  20.3085872  48.3467373  28.1816326  20.1195872  47.1527373  28.2736326
  21.5675872  48.8967373  28.2866326  21.6505872  49.8987373  28.1546326
  22.7665872  48.0817373  28.5086326  22.7785872  47.3007373  27.7456326
  24.0215872  48.9527373  28.2996326  24.0425872  49.2687373  27.2546326
  23.9335872  49.8477373  28.9126326  25.3655872  48.2827373  28.6426326
  25.3905872  48.0557373  29.7076326  25.6325872  46.9957373  27.8616326
  25.6065872  47.1867373  26.7846326  26.6175872  46.5897373  28.1166326
  24.8855872  46.2297373  28.0986326  26.5005872  49.2567373  28.3266326
  26.3475872  50.2057373  28.8516326  27.4685872  48.8457373  28.6386326
  26.5465872  49.4707373  27.2506326  22.7225872  47.3597373  29.8696326
  22.9835872  46.1707373  29.9236326  22.3125872  48.0507373  30.9956326
  22.1165872  49.0437373  30.8796326  22.1345872  47.3987373  32.3056326
  23.0575872  46.8787373  32.5626326  21.8335872  48.4317373  33.4126326
  21.1275872  49.1797373  33.0496326  21.3455872  47.8937373  34.2266326
  23.0815872  49.1167373  34.0046326  23.8645872  48.3757373  34.1596326
  23.6245872  50.2327373  33.1186326  22.8545872  50.9937373  32.9516326
  24.4915872  50.7147373  33.5826326  23.9415872  49.8427373  32.1456326
  22.7415872  49.7447373  35.3596326  22.3735872  48.9837373  36.0586326
  23.6315872  50.2057373  35.8036326  21.9695872  50.5157373  35.2506326
  21.0365872  46.3187373  32.2646326  21.2115872  45.2447373  32.8126326
  19.8835872  46.5857373  31.5626326  19.7865872  47.5177373  31.1636326
  18.8075872  45.6127373  31.3656326  18.4835872  45.2397373  32.3386326
  17.6255872  46.3187373  30.6936326  17.3275872  47.1767373  31.2996326
  17.9185872  46.6777373  29.7076326  16.4305872  45.3847373  30.5616326
  15.8325872  45.2847373  29.4706326  16.0315872  44.7487373  31.5586326
  19.2675872  44.4037373  30.5306326  19.0415872  43.2637373  30.8946326
  20.0195872  44.6517373  29.4056326  20.1505872  45.6327373  29.1636326
  20.6365872  43.6377373  28.5566326  19.8615872  43.0027373  28.1276326
  21.1705872  44.1387373  27.7496326  21.6295872  42.7697373  29.3276326
  21.6965872  41.5757373  29.0956326  22.3655872  43.3507373  30.3386326
  22.2985872  44.3637373  30.4286326  23.2115872  42.5987373  31.2666326
  23.8105872  41.9027373  30.6826326  24.1705872  43.5587373  31.9976326
  23.5895872  44.3777373  32.4206326  24.6495872  43.0337373  32.8246326
  25.2635872  44.1357373  31.0746326  24.8355872  44.4127373  30.1136326
  25.8915872  45.3827373  31.6956326  26.3135872  45.1657373  32.6826326
  26.6855872  45.7767373  31.0516326  25.1355872  46.1677373  31.8066326
  26.3735872  43.1167373  30.8156326  25.9645872  42.1987373  30.3826326
  27.0945872  43.5237373  30.0996326  26.9005872  42.8607373  31.7426326
  22.3845872  41.7347373  32.2366326  22.7755872  40.6087373  32.5006326
  21.1695872  42.1997373  32.7186326  20.9175872  43.1617373  32.4856326
  20.2425872  41.3547373  33.4996326  20.8205872  40.8797373  34.2906326
  19.1285872  42.1997373  34.1566326  19.5825872  42.9087373  34.8506326
  18.6145872  42.7757373  33.3866326  18.0655872  41.3717373  34.9126326
  17.3015872  42.0547373  35.2856326  17.5735872  40.6987373  34.2086326
  18.6075872  40.5537373  36.0996326  19.4795872  39.9807373  35.7876326
  18.8975872  41.2337373  36.9026326  17.5425872  39.5677373  36.5986326
  16.6245872  40.1107373  36.8446326  17.3095872  38.8777373  35.7836326
  18.0015872  38.7967373  37.7796326  17.8735872  39.3057373  38.6516326
  17.4755872  37.9337373  37.9006326  18.9655872  38.4987373  37.7016326
  19.6795872  40.2157373  32.6456326  19.6145872  39.0947373  33.1176326
  19.3505872  40.4657373  31.3286326  19.3815872  41.4427373  31.0336326
  19.0355872  39.3927373  30.3726326  18.2115872  38.7957373  30.7676326
  18.6225872  39.9477373  28.9986326  19.2285872  40.8137373  28.7386326
  18.8185872  39.1697373  28.2616326  17.1325872  40.2947373  28.8576326
  16.9345872  40.4787373  27.8026326  16.5415872  39.4307373  29.1646326
  16.6705872  41.5237373  29.6456326  16.7525872  41.3307373  30.7166326
  17.2825872  42.3827373  29.3736326  15.2195872  41.8287373  29.2746326
  15.1915872  42.2007373  28.2466326  14.6395872  40.9047373  29.3096326
  14.6215872  42.8307373  30.1796326  15.2025872  43.6707373  30.2306326
  13.7205872  43.1457373  29.8346326  14.5155872  42.4807373  31.1246326
  20.2155872  38.4257373  30.2406326  20.0135872  37.2347373  30.3406326
  21.4905872  38.9227373  30.0846326  21.5795872  39.9277373  29.9616326
  22.6785872  38.0667373  29.9896326  22.5345872  37.3687373  29.1646326
  23.9245872  38.9027373  29.6756326  24.0255872  39.7187373  30.3906326
  24.8085872  38.2657373  29.7486326  23.8235872  39.5437373  27.9836326
  22.8355872  40.4257373  28.2076326  22.9065872  37.2067373  31.2416326
  23.3365872  36.0817373  31.1036326  22.5885872  37.7097373  32.4866326
  22.3135872  38.6887373  32.5286326  22.6185872  36.9167373  33.7246326
  23.6235872  36.5187373  33.8716326  22.2845872  37.8477373  34.9056326
  23.1185872  38.5377373  35.0436326  21.4105872  38.4377373  34.6486326
  21.9775872  37.1587373  36.2426326  21.2615872  36.3527373  36.0776326
  22.8895872  36.7167373  36.6366326  21.2465872  38.2617373  37.4896326
  22.5735872  39.4737373  37.7266326  22.7895872  40.0017373  36.7906326
  22.2745872  40.2117373  38.4796326  23.4835872  38.9687373  38.0686326
  21.6645872  35.7137373  33.6366326  22.0575872  34.5887373  33.8906326
  20.3785872  35.9477373  33.2066326  20.1205872  36.9117373  33.0116326
  19.3705872  34.8887373  33.0826326  19.3675872  34.2927373  33.9956326
  17.9825872  35.5197373  32.8936326  17.9915872  36.1287373  31.9886326
  17.2485872  34.7247373  32.7556326  17.5365872  36.4017373  34.0676326
  18.2815872  37.1707373  34.2726326  16.6175872  36.9157373  33.7756326
  17.2805872  35.5987373  35.3446326  18.2345872  35.1347373  36.0046326
  16.0955872  35.4837373  35.7366326  19.6775872  33.9187373  31.9346326
  19.5585872  32.7187373  32.0976326  20.1585872  34.4417373  30.7536326
  20.2005872  35.4577373  30.6996326  20.6125872  33.6447373  29.6116326
  19.8255872  32.9437373  29.3406326  20.8805872  34.5767373  28.4156326
  21.5955872  35.3357373  28.7336326  21.3485872  34.0027373  27.6126326
  19.6175872  35.2677373  27.8596326  18.9995872  35.6477373  28.6686326
  20.0145872  36.4407373  26.9666326  20.6175872  36.0887373  26.1256326
  19.1205872  36.9407373  26.5766326  20.5995872  37.1747373  27.5306326
  18.7675872  34.3167373  27.0226326  18.4075872  33.4847373  27.6356326
  17.8895872  34.8347373  26.6166326  19.3505872  33.9117373  26.1876326
  21.8575872  32.8127373  29.9636326  22.0145872  31.7057373  29.4786326
  22.7435872  33.3137373  30.8926326  22.6045872  34.2657373  31.2216326
  23.8555872  32.5267373  31.4126326  24.3515872  32.0537373  30.5646326
  24.8845872  33.4187373  32.1086326  25.1115872  34.2687373  31.4576326
  24.4685872  33.8277373  33.0386326  26.1685872  32.7087373  32.3906326
  26.6545872  32.3697373  33.6056326  26.1755872  32.5867373  34.5526326
  27.8375872  31.6727373  33.4476326  28.3825872  31.3037373  34.2246326
  28.1665872  31.5197373  32.1176326  29.2205872  30.8797373  31.4506326
  29.9905872  30.3797373  32.0196326  29.2535872  30.8897373  30.0456326
  30.0445872  30.3847373  29.5136326  28.2445872  31.5507373  29.3276326
  28.2675872  31.5487373  28.2476326  27.1865872  32.1837373  30.0066326
  26.3995872  32.6607373  29.4456326  27.1215872  32.1867373  31.4166326
  23.3765872  31.3947373  32.3216326  23.8715872  30.2897373  32.2076326
  22.3165872  31.6067373  33.1826326  21.9545872  32.5547373  33.2706326
  21.7095872  30.4957373  33.9246326  22.5235872  29.9477373  34.4016326
  20.7805872  31.0097373  35.0346326  21.2185872  31.8857373  35.5146326
  19.8315872  31.3017373  34.5836326  20.5725872  29.9117373  36.1026326
  20.8385872  28.9387373  35.6936326  21.2475872  30.0957373  36.9386326
  19.1525872  29.7857373  36.6456326  18.3145872  30.6527373  36.5076326
  18.8395872  28.6567373  37.3246326  17.9105872  28.6287373  37.7336326
  19.5595872  27.9487373  37.4536326  20.9795872  29.5067373  32.9936326
  21.0525872  28.3107373  33.2016326  20.3225872  29.9997373  31.8826326
  20.2445872  31.0167373  31.8326326  19.7075872  29.1827373  30.8186326
  18.9515872  28.5367373  31.2656326  19.0285872  30.1507373  29.8326326
  18.4635872  30.8887373  30.4056326  19.8055872  30.6737373  29.2836326
  18.0695872  29.5297373  28.8066326  18.5815872  28.7537373  28.2376326
  17.2095872  29.0987373  29.3206326  17.6105872  30.6427373  27.8486326
  17.1275872  31.4397373  28.4186326  18.4935872  31.0507373  27.3516326
  16.6385872  30.1387373  26.7806326  17.0605872  29.2377373  26.3276326
  15.6885872  29.8727373  27.2526326  16.4275872  31.1637373  25.7306326
  17.3165872  31.4097373  25.2956326  15.8075872  30.8177373  25.0056326
  16.0175872  32.0207373  26.1026326  20.7325872  28.2657373  30.1286326
  20.3735872  27.2007373  29.6596326  22.0525872  28.6657373  30.1046326
  22.2245872  29.6097373  30.4336326  23.1915872  27.8547373  29.6516326
  22.8715872  27.2027373  28.8366326  24.2555872  28.8167373  29.0916326
  23.8025872  29.4207373  28.2956326  24.5605872  29.5237373  29.8706326
  25.4945872  28.1677373  28.5296326  25.5195872  27.2577373  27.4746326
  26.8165872  27.0417373  27.2026326  27.1785872  26.3807373  26.4246326
  27.5975872  27.7707373  28.0176326  28.6175872  27.7927373  27.9926326
  26.7785872  28.4887373  28.8626326  27.0785872  29.2117373  29.6056326
  23.7455872  26.9317373  30.7556326  23.8535872  25.7347373  30.5646326
  24.0855872  27.4977373  31.9686326  23.9585872  28.5047373  32.0356326
  24.8385872  26.8187373  33.0356326  25.5725872  26.1637373  32.5646326
  25.5925872  27.8727373  33.8626326  25.7565872  28.7707373  33.2526326
  24.9815872  28.1987373  34.7156326  26.9395872  27.4297373  34.3336326
  27.2525872  26.8837373  35.5296326  26.5425872  26.6917373  36.3266326
  28.6015872  26.5727373  35.5516326  29.0715872  26.1277373  36.3396326
  29.2105872  26.8617373  34.3506326  30.5195872  26.7207373  33.8696326
  31.2975872  26.3237373  34.5026326  30.8015872  27.0897373  32.5436326
  31.7975872  26.9567373  32.1456326  29.7855872  27.6277373  31.7346326
  29.9925872  27.9167373  30.7156326  28.4905872  27.8087373  32.2456326
  27.7225872  28.2497373  31.6276326  28.1675872  27.4127373  33.5546326
  23.9985872  25.9387373  33.9746326  24.5235872  25.0437373  34.6126326
  22.6455872  26.2007373  34.0716326  22.3185872  26.9617373  33.4766326
  21.6565872  25.6037373  34.9906326  20.7045872  26.0927373  34.7816326
  21.4675872  24.1057373  34.6776326  22.4165872  23.5857373  34.8116326
  20.7655872  23.6767373  35.3926326  20.9185872  23.8537373  33.2586326
  19.8465872  23.6707373  33.3426326  21.0495872  24.7317373  32.6246326
  21.5715872  22.6537373  32.5586326  21.5565872  21.7917373  33.2286326
  20.9845872  22.4227373  31.6686326  23.0135872  22.9637373  32.1326326
  22.9985872  23.8317373  31.4666326  23.6045872  23.2347373  33.0116326
  23.6495872  21.8207373  31.4336326  23.1325872  21.5477373  30.6026326
  24.5815872  22.0787373  31.1306326  23.7145872  20.9887373  32.0136326
  21.9245872  25.8897373  36.4766326  21.1795872  26.6497373  37.0756326
  23.0005872  25.2587373  37.0626326  23.5775872  24.7317373  36.4066326
  23.5045872  25.3477373  38.4486326  23.3505872  26.3587373  38.8286326
  22.7835872  24.3367373  39.3876326  22.8385872  23.3447373  38.9346326
  23.4715872  24.2357373  40.7616326  23.5235872  25.2157373  41.2546326
  22.9245872  23.5527373  41.4256326  24.4845872  23.8267373  40.6736326
  21.2985872  24.6947373  39.6466326  21.0395872  24.5067373  40.6896326
  21.1325872  25.7557373  39.4666326  20.3255872  23.8617373  38.8056326
  20.4635872  22.7937373  39.0086326  19.2895872  24.1277373  39.0486326
  20.4785872  24.0257373  37.7356326  25.0195872  25.0737373  38.4006326
  25.4645872  24.2547373  37.6146326  25.8685872  25.7657373  39.2406326
  25.4635872  26.3837373  39.9396326  27.3215872  25.5047373  39.2426326
  27.6375872  25.4167373  38.2046326  28.1595872  26.6347373  39.8616326
  29.2115872  26.4347373  39.6566326  27.8185872  28.0097373  39.2916326
  26.7665872  28.2677373  39.4646326  28.4325872  28.7787373  39.7736326
  28.0155872  28.0427373  38.2136326  27.9925872  26.6977373  41.2576326
  28.5065872  25.9597373  41.6606326  27.6695872  24.1827373  39.9306326
  27.0805872  23.8097373  40.9336326  28.7475872  23.4997373  39.4176326
  29.1875872  23.9277373  38.6066326  29.4255872  22.3757373  40.0716326
  28.6835872  21.6027373  40.2766326  30.5005872  21.8297373  39.1086326
  30.1995872  22.0267373  38.0786326  31.4445872  22.3487373  39.2906326
  30.7025872  20.3137373  39.2326326  30.8325872  20.0297373  40.2766326
  29.8075872  19.8197373  38.8516326  31.9145872  19.8317373  38.4246326
  31.7905872  18.7717373  38.2056326  31.9705872  20.3757373  37.4796326
  33.2085872  20.0217373  39.2256326  33.2915872  21.0657373  39.5416326
  33.1685872  19.4037373  40.1286326  34.4005872  19.6687373  38.4296326
  34.5645872  20.3767373  37.7206326  35.2355872  19.7217373  39.0196326
  34.3575872  18.7247373  38.0606326  30.0535872  22.8117373  41.4076326
  30.2475872  23.9917373  41.6526326  30.4555872  21.8087373  42.2616326
  30.2495872  20.8657373  41.9606326  31.4425872  21.9967373  43.3346326
  31.1285872  22.8287373  43.9686326  31.5115872  20.7047373  44.1706326
  30.5055872  20.4227373  44.4846326  31.9045872  19.9047373  43.5396326
  32.3925872  20.8467373  45.4216326  33.3155872  21.3567373  45.1656326
  31.8675872  21.4447373  46.1676326  32.7555872  19.4817373  46.0156326
  31.8495872  19.0057373  46.3916326  33.1915872  18.8457373  45.2446326
  33.7555872  19.6387373  47.1646326  33.3965872  20.4207373  47.8406326
  33.7915872  18.7067373  47.7396326  35.1165872  19.9657373  46.6756326
  35.1255872  20.6867373  45.9606326  35.7005872  20.2857373  47.4476326
  35.5875872  19.1487373  46.3006326  32.8155872  22.3227373  42.7276326
  33.1905872  21.7207373  41.7376326  33.6155872  23.2317373  43.3796326
  33.2165872  23.7227373  44.1666326  35.0405872  23.4017373  43.0846326
  35.1665872  23.6607373  42.0316326  35.6215872  24.5207373  43.9486326
  35.4995872  24.2517373  45.0056326  36.7025872  24.5467373  43.7606326
  35.0895872  25.9257373  43.7356326  35.4985872  26.6477373  42.6026326
  36.1185872  26.1827373  41.8456326  35.1265872  27.9927373  42.4556326
  35.4395872  28.5247373  41.5786326  34.3695872  28.6427373  43.4536326
  34.0485872  29.9577373  43.3466326  34.6625872  30.4677373  42.7186326
  33.9365872  27.9077373  44.5776326  33.3505872  28.4067373  45.3356326
  34.2955872  26.5527373  44.7186326  33.9925872  26.0117373  45.6036326
  35.8515872  22.1297373  43.3886326  35.7865872  21.6017373  44.4906326
  36.7085872  21.6657373  42.4166326  36.6305872  22.0837373  41.4896326
  37.5935872  20.5027373  42.5786326  37.0025872  19.6707373  42.9666326
  38.1565872  20.0837373  41.2096326  38.8835872  20.8287373  40.8786326
  38.6785872  19.1317373  41.3186326  37.0765872  19.9547373  40.1356326
  36.5835872  20.9797373  39.6196326  36.6705872  18.8177373  39.8026326
  38.7445872  20.7507373  43.5706326  39.0785872  19.8817373  44.3546326
  39.3375872  21.9977373  43.5686326  38.9785872  22.6677373  42.8976326
  40.3855872  22.4587373  44.4916326  40.9335872  21.5857373  44.8486326
  41.3745872  23.3587373  43.7236326  42.2175872  23.5707373  44.3756326
  41.7565872  22.8307373  42.8506326  40.7925872  24.6887373  43.2686326
  39.5975872  24.9047373  43.2796326  41.6395872  25.6567373  42.8516326
  41.2205872  26.5107373  42.5376326  42.6545872  25.4887373  42.8456326
  39.8175872  23.1607373  45.7466326  40.4955872  23.9397373  46.3966326
  38.4955872  22.9277373  46.0636326  38.0415872  22.2197373  45.4966326
  37.6965872  23.6357373  47.0806326  36.7025872  23.1907373  47.0546326
  38.2445872  23.3907373  48.5046326  39.0655872  24.0817373  48.6956326
  37.4545872  23.6217373  49.2156326  38.7395872  21.9677373  48.8086326
  39.6965872  21.8147373  48.3086326  38.9145872  21.8857373  49.8836326
  37.7515872  20.8817373  48.3726326  36.5915872  20.8727373  48.8426326
  38.0955872  20.0127373  47.5396326  37.4675872  25.1427373  46.8046326
  36.7305872  25.7767373  47.5396326  38.0405872  25.7127373  45.6846326
  38.6405872  25.1117373  45.1276326  37.9275872  27.1107373  45.2556326
  37.8095872  27.1347373  44.1716326  37.0465872  27.5747373  45.6986326
  39.1645872  27.9317373  45.6226326  39.8965872  27.5827373  46.5346326
  39.4175872  29.0837373  44.9046326  38.7555872  29.3247373  44.1696326
  40.6275872  29.9167373  45.0476326  41.4585872  29.2207373  45.1636326
  40.8455872  30.6607373  43.7096326  40.8205872  29.9127373  42.9156326
  39.9995872  31.3257373  43.5426326  42.1515872  31.4697373  43.5486326
  42.1195872  32.3707373  44.1566326  43.3965872  30.6597373  43.9166326
  43.4395872  29.7217373  43.3486326  44.2995872  31.2427373  43.7136326
  43.3985872  30.4237373  44.9876326  42.3125872  31.9097373  42.0926326
  41.4695872  32.5487373  41.8086326  43.2315872  32.4947373  41.9656326
  42.3455872  31.0437373  41.4216326  40.6585872  30.7937373  46.3306326
  41.3505872  31.7917373  46.4146326  39.8855872  30.3917373  47.3946326
  39.4005872  29.5137373  47.2706326  39.8395872  31.0417373  48.7056326
  39.7525872  32.1177373  48.5476326  38.5825872  30.5807373  49.4536326
  38.6015872  29.4887373  49.5576326  38.6025872  30.9917373  50.4706326
  37.2865872  31.0117373  48.7726326  36.6725872  32.2217373  49.1496326
  37.0905872  32.8097373  49.9556326  35.5375872  32.6867373  48.4576326
  35.0705872  33.6167373  48.7416326  35.0175872  31.9457373  47.3746326
  33.9375872  32.4007373  46.6886326  33.5995872  33.2577373  47.0646326
  35.6165872  30.7207373  47.0126326  35.2075872  30.1627373  46.1816326
  36.7385872  30.2477373  47.7206326  37.1915872  29.3097373  47.4386326
  41.1265872  30.8117373  49.5176326  41.8145872  29.8097373  49.3646326
  41.4715872  31.7997373  50.4136326  40.8015872  32.5577373  50.5336326
  42.7955872  31.9207373  51.0276326  43.5185872  31.9287373  50.2086326
  42.9085872  33.2677373  51.7576326  42.4185872  34.0407373  51.1666326
  42.3995872  33.1987373  52.7166326  44.3645872  33.6887373  51.9936326
  44.8185872  33.0207373  52.7256326  44.9125872  33.5847373  51.0556326
  44.5755872  35.4017373  52.5556326  43.7375872  35.3307373  54.1626326
  44.1275872  34.4987373  54.7626326  43.9065872  36.2637373  54.7116326
  42.6575872  35.1967373  54.0266326  43.1505872  30.7497373  51.9596326
  42.3685872  30.3467373  52.8136326  44.4185872  30.2207373  51.8106326
  44.9985872  30.6647373  51.1076326  45.0735872  29.3037373  52.7566326
  44.3265872  28.8817373  53.4256326  45.7645872  28.1427373  52.0166326
  46.2575872  28.5197373  51.1186326  46.5415872  27.7337373  52.6646326
  44.8295872  26.9747373  51.6456326  45.4375872  26.2057373  51.1666326
  44.4105872  26.5507373  52.5596326  43.6795872  27.3487373  50.6976326
  42.9605872  27.9727373  51.2306326  44.0885872  27.9217373  49.8626326
  42.9925872  26.1487373  50.1776326  43.1605872  25.2637373  50.6376326
  42.2165872  26.0867373  49.1106326  41.8545872  27.1397373  48.4416326
  42.0615872  28.0657373  48.8016326  41.2015872  27.0617373  47.6686326
  41.7935872  24.9247373  48.7146326  42.0275872  24.1137373  49.2746326
  41.2695872  24.8167373  47.8506326  46.0555872  30.0777373  53.6426326
  46.6785872  31.0227373  53.1926326  46.1685872  29.6767373  54.9486326
  45.6405872  28.8437373  55.2146326  47.0425872  30.3187373  55.9446326
  46.9745872  31.3987373  55.8106326  46.5905872  29.9987373  57.3756326
  47.1395872  30.6587373  58.0416326  45.0965872  30.2287373  57.6116326
  44.4885872  29.4977373  57.0656326  44.8615872  30.1367373  58.6776326
  44.8055872  31.2357373  57.2876326  46.8945872  28.6667373  57.7126326
  46.6055872  28.5507373  58.6606326  48.5145872  29.9287373  55.7736326
  48.8375872  28.9957373  55.0596326  49.4665872  30.6317373  56.4886326
  49.1525872  31.3837373  57.0876326  50.9005872  30.3147373  56.4336326
  51.2455872  30.4477373  55.4066326  51.6925872  31.2737373  57.3326326
  51.2145872  31.3527373  58.3176326  52.6905872  30.8517373  57.5116326
  51.8865872  32.6347373  56.7486326  51.3495872  33.7897373  57.1996326
  50.7135872  33.8857373  58.0716326  51.7495872  34.8297373  56.3816326
  51.4885872  35.8067373  56.5286326  52.5655872  34.3957373  55.3616326
  53.1995872  35.0467373  54.2946326  53.0705872  36.1067373  54.1476326
  53.9975872  34.2987373  53.4146326  54.4815872  34.7897373  52.5836326
  54.1695872  32.9177373  53.6266326  54.8035872  32.3427373  52.9676326
  53.5215872  32.2727373  54.6976326  53.6565872  31.2117373  54.8426326
  52.6955872  32.9947373  55.5876326  51.2115872  28.8607373  56.8036326
  52.0375872  28.2427373  56.1556326  50.5095872  28.2717373  57.8406326
  49.8065872  28.8427373  58.3066326  50.7285872  26.8787373  58.2476326
  51.8015872  26.6967373  58.1856326  50.2885872  26.6687373  59.7066326
  50.7385872  27.4407373  60.3316326  49.2035872  26.7747373  59.7716326
  50.6825872  25.2877373  60.2706326  50.3195872  25.2227373  61.2906326
  50.1745872  24.5117373  59.6976326  52.1855872  24.9697373  60.3046326
  52.2985872  23.9337373  60.6256326  52.6185872  25.0547373  59.3086326
  52.9405872  25.8687373  61.2916326  52.8035872  26.9177373  61.0186326
  52.5275872  25.7137373  62.2916326  54.3815872  25.5487373  61.2976326
  54.8265872  25.9057373  60.4496326  54.8445872  25.9547373  62.1076326
  54.5305872  24.5437373  61.3106326  50.0795872  25.8837373  57.2816326
  50.6505872  24.8407373  57.0346326  48.9035872  26.2267373  56.6536326
  48.4785872  27.1127373  56.9086326  48.2995872  25.4187373  55.5806326
  48.1895872  24.3887373  55.9226326  46.9035872  25.9687373  55.2376326
  46.9965872  27.0317373  55.0266326  46.5325872  25.4717373  54.3406326
  45.8875872  25.7467373  56.3726326  45.6895872  24.6757373  56.4506326
  46.3155872  26.0717373  57.3206326  44.5585872  26.4907373  56.1636326
  44.4525872  27.4137373  55.3266326  43.5535872  26.1507373  56.8356326
  49.1915872  25.3867373  54.3246326  49.3395872  24.3567373  53.6866326
  49.8665872  26.5417373  53.9926326  49.6385872  27.3677373  54.5446326
  50.8575872  26.6647373  52.9176326  50.4405872  26.2287373  52.0106326
  51.1365872  28.1637373  52.6606326  51.2495872  28.6497373  53.6296326
  52.4435872  28.4287373  51.8976326  52.4675872  27.8947373  50.9416326
  52.5545872  29.5017373  51.7066326  53.3185872  28.1177373  52.4836326
  49.9415872  28.8437373  51.9486326  49.0215872  28.6107373  52.4836326
  50.0775872  29.9207373  52.0116326  49.7315872  28.4827373  50.4696326
  49.5885872  27.4037373  50.3376326  48.8375872  28.9907373  50.0856326
  50.5825872  28.8037373  49.8566326  52.1245872  25.8567373  53.2336326
  52.5725872  25.1017373  52.3916326  52.6855872  25.9417373  54.4896326
  52.2945872  26.6397373  55.1216326  53.8445872  25.1497373  54.9356326
  54.6735872  25.3177373  54.2456326  54.2615872  25.6527373  56.3286326
  54.4935872  26.7167373  56.2536326  53.4165872  25.5307373  57.0066326
  55.4775872  24.9297373  56.9306326  55.2585872  23.8627373  57.0066326
  56.3305872  25.0567373  56.2606326  55.8495872  25.4467373  58.3306326
  56.7595872  24.8757373  58.9736326  55.2265872  26.3987373  58.8496326
  53.5435872  23.6367373  54.9406326  54.3675872  22.8287373  54.5376326
  52.2895872  23.2367373  55.3516326  51.6855872  23.9657373  55.7296326
  51.7805872  21.8667373  55.2856326  52.4635872  21.2127373  55.8296326
  50.4105872  21.8267373  55.9826326  50.5465872  22.1057373  57.0276326
  49.7535872  22.5607373  55.5186326  49.7065872  20.4667373  55.9256326
  49.6095872  20.1617373  54.8836326  50.3165872  19.7267373  56.4446326
  48.0405872  20.4687373  56.6486326  48.4465872  20.6537373  58.4076326
  48.9015872  21.6327373  58.5986326  47.5365872  20.5687373  59.0166326
  49.1455872  19.8677373  58.7176326  51.7175872  21.3697373  53.8346326
  52.1615872  20.2687373  53.5516326  51.2105872  22.2217373  52.8726326
  50.8235872  23.1067373  53.1996326  51.2225872  21.9287373  51.4336326
  50.7185872  20.9767373  51.2696326  50.4435872  23.0087373  50.6716326
  49.4315872  23.0737373  51.0746326  50.9335872  23.9747373  50.7916326
  50.3785872  22.6827373  49.2956326  49.8385872  23.3527373  48.8236326
  52.6525872  21.7937373  50.8906326  52.9555872  20.8477373  50.1816326
  53.5965872  22.7107373  51.3036326  53.2685872  23.4817373  51.8816326
  54.9835872  22.7187373  50.8516326  54.9675872  22.7567373  49.7686326
  55.6615872  23.9967373  51.3586326  55.7095872  24.0137373  52.4546326
  56.6865872  24.0667373  50.9746326  55.1175872  24.8907373  51.0246326
  55.7645872  21.4547373  51.2626326  56.5465872  20.9297373  50.4876326
  55.5185872  20.9177373  52.5096326  54.9015872  21.4547373  53.1166326
  56.1715872  19.7057373  53.0106326  57.1895872  19.6647373  52.6146326
  56.2685872  19.7957373  54.5416326  55.3115872  20.0877373  54.9726326
  56.5415872  18.8197373  54.9446326  57.3495872  20.7727373  54.9636326
  58.5175872  20.4517373  54.9546326  56.9935872  22.0247373  55.3226326
  57.7395872  22.6387373  55.6086326  56.0235872  22.3147373  55.2266326
  55.4835872  18.4117373  52.5456326  56.1425872  17.4947373  52.0806326
  54.1095872  18.3177373  52.6456326  53.6115872  19.1247373  53.0226326
  53.3585872  17.1007373  52.3136326  54.0055872  16.2437373  52.5096326
  52.1455872  16.9737373  53.2526326  51.4975872  17.8407373  53.1306326
  51.5735872  16.0877373  52.9826326  52.5355872  16.8297373  54.7166326
  53.5585872  16.2677373  55.0596326  51.6675872  17.2947373  55.6406326
  51.8435872  17.0397373  56.6116326  50.8055872  17.7237373  55.3506326
  52.9845872  16.9787373  50.8236326  52.4495872  15.9567373  50.4206326
  53.2805872  18.0407373  49.9846326  53.6045872  18.8867373  50.4496326
  53.3185872  18.0397373  48.5076326  53.2945872  19.0837373  48.1906326
  54.6565872  17.4467373  48.0096326  54.7535872  16.4207373  48.3596326
  54.6725872  17.4397373  46.9186326  55.8375872  18.2987373  48.5066326
  55.7665872  19.2687373  48.0256326  55.7525872  18.4477373  49.5816326
  57.2365872  17.7337373  48.2376326  57.3485872  16.7727373  48.7406326
  57.3955872  17.6087373  47.1646326  58.2295872  18.7537373  48.8126326
  58.1585872  19.6787373  48.2336326  57.9305872  18.9947373  49.8376326
  59.6265872  18.2687373  48.8136326  59.9345872  17.9907373  47.8836326
  60.2395872  19.0097373  49.1406326  59.7475872  17.4927373  49.4606326
  52.0685872  17.4217373  47.8746326  52.1455872  16.6497373  46.9296326
  50.8605872  17.7277373  48.4686326  50.9045872  18.4217373  49.2036326
  49.5605872  17.2447373  47.9846326  49.6365872  16.1697373  47.8386326
  48.4505872  17.5177373  49.0156326  48.3835872  18.5927373  49.1946326
  47.5005872  17.1987373  48.5856326  48.6345872  16.7977373  50.3706326
  49.5035872  17.2067373  50.8866326  47.7555872  17.0027373  50.9826326
  48.8035872  15.2747373  50.2386326  48.0835872  14.8987373  49.5096326
  49.8025872  15.0667373  49.8506326  48.6335872  14.5627373  51.5256326
  49.4535872  14.4357373  52.0946326  47.5215872  13.9967373  51.9686326
  46.3985872  14.0627373  51.3196326  46.3215872  14.6317373  50.4836326
  45.5675872  13.6007373  51.6666326  47.4925872  13.3247373  53.0826326
  48.3255872  13.1807373  53.6496326  46.6145872  12.9587373  53.3986326
  49.2515872  17.8287373  46.6006326  49.6815872  18.9177373  46.2686326
  48.5315872  17.0247373  45.7466326  48.1515872  16.1717373  46.1486326
  48.3415872  17.2567373  44.3056326  48.8845872  18.1597373  44.0196326
  48.9125872  16.0687373  43.5126326  48.3905872  15.1587373  43.8146326
  48.7285872  16.2267373  42.4476326  50.4255872  15.8867373  43.7306326
  50.9545872  16.7497373  43.3236326  50.6415872  15.8107373  44.7956326
  50.9225872  14.6047373  43.0556326  50.3615872  13.7607373  43.4606326
  50.7315872  14.6507373  41.9826326  52.4105872  14.3457373  43.3186326
  52.6085872  14.4147373  44.3916326  52.6285872  13.3197373  43.0126326
  53.3055872  15.2637373  42.5716326  53.2355872  16.2147373  42.8906326
  54.2765872  14.9687373  42.6696326  53.1155872  15.2487373  41.5706326
  46.8695872  17.4967373  43.9786326  45.9945872  16.9937373  44.6636326
  46.5995872  18.2837373  42.8876326  47.3845872  18.6117373  42.3446326
  45.2635872  18.7677373  42.5396326  44.5245872  18.1577373  43.0616326
  45.0955872  20.2137373  43.0386326  45.7805872  20.8727373  42.4876326
  44.0825872  20.5647373  42.8046326  45.3415872  20.3667373  44.5366326
  44.3075872  20.0967373  45.4536326  43.3225872  19.8337373  45.0956326
  44.5595872  20.1447373  46.8376326  43.7655872  19.9227373  47.5366326
  45.8455872  20.4637373  47.3086326  46.0455872  20.4847373  48.3706326
  46.8765872  20.7497373  46.3976326  47.8665872  20.9967373  46.7566326
  46.6245872  20.7007373  45.0156326  47.4255872  20.9077373  44.3226326
  44.9775872  18.6137373  41.0416326  45.8845872  18.5457373  40.2246326
  43.6525872  18.4997373  40.6846326  42.9965872  18.4847373  41.4576326
  43.1325872  18.2847373  39.3316326  43.5745872  17.3807373  38.9126326
  41.6135872  18.0957373  39.4676326  41.4155872  17.2837373  40.1686326
  41.1935872  19.0097373  39.8926326  40.8925872  17.7727373  38.1506326
  41.2215872  18.4407373  37.3536326  41.1015872  16.7407373  37.8686326
  39.3925872  17.9807373  38.3826326  39.0755872  17.4407373  39.2766326
  39.2235872  19.0447373  38.5546326  38.5105872  17.5577373  37.2106326
  37.4925872  17.8877373  37.4436326  38.8355872  18.0647373  36.2986326
  38.5085872  16.0897373  37.0266326  38.4845872  15.6167373  37.9256326
  37.6685872  15.8147373  36.5266326  39.3035872  15.7607373  36.4816326
  43.4665872  19.4707373  38.4226326  42.9165872  20.5427373  38.6056326
  44.3545872  19.2527373  37.3946326  44.8495872  18.3717373  37.3846326
  44.8015872  20.3037373  36.4706326  45.2735872  21.0907373  37.0546326
  45.8495872  19.7797373  35.4746326  45.3575872  19.1637373  34.7206326
  46.5965872  20.9207373  34.7866326  47.1655872  21.5067373  35.5196326
  47.2985872  20.5237373  34.0426326  45.9025872  21.5957373  34.2736326
  46.8145872  18.9867373  36.1246326  47.0005872  18.2277373  35.5106326
  43.6245872  20.8967373  35.6906326  43.0735872  20.2557373  34.8106326
  43.2395872  22.1817373  35.9926326  43.7335872  22.6307373  36.7656326
  42.2555872  22.9527373  35.2366326  41.4525872  22.2787373  34.9346326
  41.6455872  24.0237373  36.1626326  41.1245872  23.5027373  36.9676326
  42.4525872  24.6027373  36.6126326  40.6655872  25.0087373  35.4936326
  41.2185872  25.7257373  34.8896326  39.6225872  24.3297373  34.6006326
  39.0695872  23.5647373  35.1596326  38.9075872  25.0677373  34.2206326
  40.0935872  23.8597373  33.7296326  39.9215872  25.7847373  36.5816326
  40.6275872  26.2867373  37.2536326  39.2485872  26.5257373  36.1386326
  39.3115872  25.1037373  37.1916326  42.9055872  23.4947373  33.9556326
  43.3205872  24.6367373  33.8916326  43.0465872  22.5977373  32.9166326
  42.7145872  21.6547373  33.1056326  43.7175872  22.8857373  31.6396326
  44.6975872  23.3117373  31.8576326  43.9075872  21.5867373  30.8366326
  42.9315872  21.1627373  30.5946326  44.4175872  21.8277373  29.9016326
  44.7445872  20.5517373  31.6006326  45.6445872  21.0407373  31.9736326
  44.1795872  20.1657373  32.4476326  45.1855872  19.3817373  30.7176326
  45.7575872  19.7917373  29.8856326  45.8485872  18.7347373  31.2946326
  44.0605872  18.5377373  30.1166326  43.3955872  19.1767373  29.5276326
  44.5225872  17.8197373  29.4396326  43.2815872  17.7997373  31.1326326
  42.6285872  18.4317373  31.6016326  42.6905872  17.1127373  30.6736326
  43.8735872  17.3217373  31.8056326  42.9635872  23.9137373  30.7926326
  41.7455872  23.9847373  30.8446326  43.6985872  24.6467373  29.8766326
  44.7125872  24.5287373  29.9236326  43.0945872  25.5907373  28.9086326
  42.5885872  26.3727373  29.4766326  44.2015872  26.2437373  28.0556326
  44.9675872  26.6347373  28.7266326  44.6665872  25.4907373  27.4176326
  43.6805872  27.4027373  27.1806326  43.0135872  27.0097373  26.4136326
  43.1115872  28.0897373  27.8046326  44.8355872  28.1697373  26.5086326
  45.5745872  28.4267373  27.2686326  45.3275872  27.5217373  25.7816326
  44.3945872  29.4207373  25.8536326  44.6835872  30.3107373  26.2626326
  43.7735872  29.5577373  24.7006326  43.3915872  28.5527373  23.9666326
  43.5865872  27.6217373  24.2716326  42.9765872  28.7607373  23.0696326
  43.5225872  30.7347373  24.2336326  43.9545872  31.5397373  24.7076326
  43.2045872  30.8457373  23.2876326  42.0235872  24.9137373  28.0456326
  40.9845872  25.4927373  27.7906326  42.2665872  23.6267373  27.6266326
  43.1365872  23.2097373  27.9316326  41.3375872  22.7907373  26.8556326
  41.0445872  23.3237373  25.9516326  42.0645872  21.5057373  26.4466326
  41.3625872  20.8327373  25.9506326  42.8695872  21.7477373  25.7516326
  42.6085872  20.8687373  27.5876326  42.9095872  19.9427373  27.2936326
  40.0595872  22.4417373  27.6316326  38.9705872  22.5517373  27.0886326
  40.1795872  22.0387373  28.9436326  41.1245872  21.9527373  29.3006326
  39.0435872  21.7447373  29.8226326  38.3755872  21.0537373  29.3106326
  39.5245872  21.0847373  31.1226326  40.2935872  21.7057373  31.5846326
  38.6835872  21.0207373  31.8146326  40.0585872  19.6717373  30.9016326
  39.4055872  18.8797373  30.1766326  41.1145872  19.3337373  31.4686326
  38.2185872  22.9927373  30.1336326  37.0035872  22.9297373  30.0956326
  38.8855872  24.1727373  30.3766326  39.9025872  24.1267373  30.4286326
  38.2125872  25.4537373  30.5786326  37.5155872  25.3547373  31.4126326
  39.2575872  26.5137373  30.9486326  39.7225872  26.2457373  31.9066326
  40.0645872  26.5077373  30.2046326  38.6805872  27.9167373  31.0426326
  38.0125872  28.3287373  32.2086326  37.9335872  27.6617373  33.0546326
  37.4155872  29.5997373  32.2606326  36.8805872  29.9047373  33.1476326
  37.4915872  30.4617373  31.1516326  37.0075872  31.4247373  31.1826326
  38.1705872  30.0567373  29.9906326  38.2155872  30.7117373  29.1316326
  38.7635872  28.7837373  29.9386326  39.2685872  28.4607373  29.0416326
  37.3855872  25.8627373  29.3486326  36.2045872  26.1437373  29.4736326
  37.9945872  25.8177373  28.1066326  38.9855872  25.5837373  28.0876326
  37.2965872  26.0937373  26.8426326  36.9315872  27.1207373  26.8536326
  38.2785872  25.9057373  25.6636326  39.0845872  25.2337373  25.9616326
  37.7495872  25.4127373  24.8466326  38.8745872  27.2047373  25.0886326
  38.0775872  27.7517373  24.5896326  39.5185872  28.1397373  26.1136326
  40.3175872  27.6357373  26.6656326  39.9435872  29.0217373  25.6186326
  38.7715872  28.5017373  26.8276326  39.9405872  26.8547373  24.0496326
  39.5175872  26.2157373  23.2636326  40.3235872  27.7637373  23.5716326
  40.7775872  26.3217373  24.5166326  36.0575872  25.1967373  26.6786326
  35.0005872  25.6867373  26.3136326  36.1735872  23.8547373  27.0026326
  37.0935872  23.5337373  27.2976326  35.0495872  22.9097373  26.9266326
  34.5715872  23.0287373  25.9546326  35.5555872  21.4677373  27.0496326
  36.3605872  21.3077373  26.3336326  35.9475872  21.3127373  28.0546326
  34.4305872  20.4567373  26.7546326  33.5985872  20.6037373  27.4436326
  34.0675872  20.6197373  25.7386326  34.9035872  19.0057373  26.8746326
  34.0915872  18.3607373  26.5386326  35.7465872  18.8507373  26.2036326
  35.2515872  18.6567373  28.2676326  34.4795872  18.4977373  28.9046326
  36.4645872  18.6247373  28.7926326  37.5625872  18.7727373  28.1106326
  37.5565872  18.7857373  27.0986326  38.4335872  18.7807373  28.6356326
  36.6305872  18.4677373  30.0696326  35.8445872  18.3337373  30.6756326
  37.5905872  18.4687373  30.4066326  33.9745872  23.2037373  27.9696326
  32.8105872  23.2027373  27.6346326  34.3505872  23.4677373  29.2616326
  35.3455872  23.4337373  29.4696326  33.4085872  23.7607373  30.3416326
  32.7365872  22.9127373  30.4816326  34.2305872  23.9517373  31.6206326
  34.9555872  24.7687373  31.5066326  33.5775872  24.1907373  32.4656326
  34.7815872  23.0357373  31.8676326  32.5485872  24.9947373  30.0126326
  31.3285872  24.9647373  30.1036326  33.2185872  26.0957373  29.5176326
  34.2365872  26.0307373  29.4736326  32.5615872  27.3417373  29.1126326
  31.9305872  27.6667373  29.9326326  33.6035872  28.4537373  28.8886326
  34.3505872  28.1177373  28.1676326  32.9565872  29.7367373  28.3646326
  32.1595872  30.0677373  29.0346326  33.6945872  30.5427373  28.2806326
  32.5195872  29.5777373  27.3776326  34.2985872  28.8167373  30.2086326
  34.8455872  27.9617373  30.6206326  35.0255872  29.6217373  30.0526326
  33.5755872  29.1437373  30.9656326  31.6355872  27.1377373  27.9056326
  30.5145872  27.6237373  27.9176326  32.0705872  26.3607373  26.8476326
  33.0145872  25.9767373  26.8936326  31.2405872  26.0727373  25.6666326
  30.8165872  27.0117373  25.3106326  32.1075872  25.4947373  24.5406326
  31.5405872  25.5167373  23.6106326  33.0065872  26.0997373  24.4196326
  32.4605872  24.1557373  24.8186326  33.1425872  23.8367373  24.1666326
  30.0655872  25.1267373  25.9666326  29.0265872  25.2357373  25.3416326
  30.2315872  24.1767373  26.9576326  31.1835872  24.1157373  27.3226326
  29.2615872  23.1607373  27.4036326  28.8205872  22.6717373  26.5336326
  30.0565872  22.1307373  28.2326326  30.7595872  21.6217373  27.5716326
  30.6365872  22.6697373  28.9826326  29.2635872  21.0657373  28.9946326
  29.9765872  20.4897373  29.5856326  28.5655872  21.5427373  29.6816326
  28.5005872  20.1047373  28.0846326  27.6925872  20.6357373  27.5796326
  29.1815872  19.6867373  27.3426326  27.9355872  18.9837373  28.9586326
  28.7595872  18.5027373  29.4946326  27.2535872  19.4137373  29.6966326
  27.2245872  17.9847373  28.1396326  27.8165872  17.6137373  27.4036326
  26.9135872  17.1947373  28.7006326  26.4075872  18.3947373  27.6946326
  28.1055872  23.7387373  28.2206326  26.9885872  23.2617373  28.1086326
  28.3865872  24.7507373  29.1066326  29.3565872  25.0477373  29.1646326
  27.4305872  25.1767373  30.1326326  27.6875872  26.1797373  30.4576326
  26.4205872  25.2017373  29.7196326  27.4495872  24.2407373  31.3426326
  26.4225872  23.7077373  31.7366326  28.6855872  23.9617373  31.8956326
  29.4945872  24.4297373  31.4886326  28.9065872  23.0887373  33.0536326
  28.1175872  23.2727373  33.7846326  28.8285872  21.6247373  32.5966326
  27.8935872  21.4567373  32.0486326  29.6475872  21.4247373  31.8936326
  28.8985872  20.6227373  33.7156326  30.0075872  19.8357373  34.0386326
  29.6065872  19.0417373  35.0456326  30.2155872  18.2737373  35.5066326
  28.3275872  19.2997373  35.3656326  27.7575872  18.7627373  36.0196326
  27.8635872  20.2937373  34.5376326  26.8635872  20.7057373  34.5106326
  30.2625872  23.3637373  33.7156326  31.2695872  23.4367373  33.0376326
  30.2885872  23.5077373  35.0866326  29.4005872  23.4607373  35.5656326
  31.4935872  23.8067373  35.8716326  31.9755872  22.8727373  36.1566326
  32.2035872  24.3727373  35.2666326  31.1945872  24.6087373  37.1416326
  30.0565872  24.9737373  37.3986326  32.2465872  24.8457373  37.9886326
  33.1655872  24.5337373  37.6836326  32.1895872  25.6177373  39.2416326
  31.3715872  25.2377373  39.8466326  33.5015872  25.3567373  39.9896326
  33.5125872  25.8767373  40.9416326  33.5715872  24.2887373  40.2076326
  34.7035872  25.7847373  39.1536326  35.3125872  24.8657373  38.5616326
  34.9435872  27.0087373  39.0506326  31.9455872  27.1347373  39.0166326
  31.9445872  27.5907373  37.8806326  31.6705872  27.9637373  40.1076326
  31.4635872  27.5237373  41.4946326  32.4325872  27.3677373  41.9786326
  30.8685872  26.6047373  41.5486326  30.7395872  28.6827373  42.1926326
  31.0345872  28.7757373  43.2456326  29.6555872  28.5257373  42.1556326
  31.0995872  29.9337373  41.3816326  31.9915872  30.4097373  41.8056326
  30.2875872  30.6717373  41.3716326  31.3965872  29.3977373  39.9736326
  30.5035872  29.5147373  39.3616326  32.5195872  30.2127373  39.3236326
  32.2095872  31.1157373  38.5656326  33.8405872  29.8937373  39.5836326
  34.0295872  29.0517373  40.1156326  34.9605872  30.6487373  39.0036326
  34.7825872  31.7107373  39.1756326  36.3245872  30.3007373  39.6386326
  36.4865872  29.2247373  39.5676326  37.1025872  30.7827373  39.0456326
  36.5225872  30.7407373  41.0976326  37.6425872  30.5287373  41.6116326
  35.5755872  31.2867373  41.7096326  35.0125872  30.4347373  37.4876326
  35.0495872  31.3967373  36.7356326  34.9255872  29.1407373  37.0096326
  34.8925872  28.3887373  37.7086326  34.8185872  28.8267373  35.5766326
  35.6785872  29.2587373  35.0676326  34.8255872  27.2977373  35.3386326
  34.0325872  26.8497373  35.9406326  34.5465872  26.9687373  33.8586326
  35.3215872  27.3897373  33.2066326  34.5055872  25.8877373  33.7016326
  33.5785872  27.3617373  33.5336326  36.1765872  26.6817373  35.7656326
  36.9865872  27.1517373  35.2076326  36.3415872  26.8827373  36.8226326
  36.2525872  25.1617373  35.5636326  36.4055872  24.9067373  34.5076326
  37.0875872  24.7447373  36.1376326  35.3315872  24.6747373  35.9086326
  33.5645872  29.4807373  34.9806326  33.6205872  30.0367373  33.8956326
  32.3975872  29.4437373  35.7156326  32.4385872  28.9457373  36.6056326
  31.1225872  29.9877373  35.2446326  30.8765872  29.5067373  34.2976326
  30.0105872  29.6707373  36.2476326  30.0595872  28.6197373  36.5296326
  30.1405872  30.2777373  37.1446326  28.7425872  29.9377373  35.6786326
  28.4125872  29.0977373  35.2856326  31.1935872  31.4957373  34.9936326
  30.8435872  31.9577373  33.9216326  31.7045872  32.3147373  35.9776326
  31.9985872  31.8757373  36.8536326  31.7745872  33.7757373  35.8276326
  30.8275872  34.0947373  35.3946326  31.8845872  34.4567373  37.1996326
  31.1145872  34.0337373  37.8466326  33.2445872  34.2557373  37.8656326
  34.0325872  34.8197373  37.3526326  33.1975872  34.5847373  38.9086326
  33.5255872  33.1997373  37.8736326  31.6195872  35.9577373  37.0786326
  30.7185872  36.1437373  36.4866326  31.4655872  36.3847373  38.0786326
  32.4575872  36.4727373  36.5926326  32.8695872  34.2107373  34.8476326
  32.6815872  35.1557373  34.1006326  34.0135872  33.4447373  34.7546326
  34.1185872  32.6767373  35.4186326  35.0085872  33.6177373  33.6916326
  35.3585872  34.6507373  33.6966326  36.2025872  32.6877373  33.9706326
  35.8175872  31.6827373  34.1426326  36.8525872  32.6547373  33.0986326
  37.0415872  33.1307373  35.1886326  37.6855872  33.9587373  34.9056326
  36.3815872  33.4887373  35.9786326  37.9125872  32.0217373  35.7796326
  38.2275872  31.0167373  35.1756326  38.4245872  32.1967373  37.0216326
  38.8785872  31.4047373  37.4386326  38.1645872  33.0087373  37.5666326
  34.3785872  33.3567373  32.3066326  34.6045872  34.1037373  31.3676326
  33.4835872  32.3147373  32.1876326  33.3805872  31.7027373  32.9966326
  32.7145872  32.0127373  30.9806326  33.4035872  31.8907373  30.1466326
  32.1795872  31.0787373  31.1436326  31.6875872  33.0847373  30.6096326
  31.5325872  33.4027373  29.4436326  31.0235872  33.7337373  31.6256326
  31.1325872  33.3387373  32.5586326  30.1185872  34.8657373  31.4206326
  29.3235872  34.5587373  30.7386326  29.4845872  35.2247373  32.7696326
  28.8615872  34.3857373  33.1016326  30.2705872  35.3237373  33.5236326
  28.6505872  36.4957373  32.7966326  29.1765872  37.6747373  33.3576326
  30.1905872  37.6897373  33.7326326  28.3755872  38.8277373  33.4526326
  28.7805872  39.7287373  33.8896326  27.0495872  38.8037373  32.9826326
  26.4285872  39.6847373  33.0606326  26.5295872  37.6287373  32.4126326
  25.5095872  37.6027373  32.0626326  27.3285872  36.4767373  32.3206326
  26.9245872  35.5677373  31.9006326  30.8405872  36.0617373  30.7766326
  30.3305872  36.6557373  29.8386326  32.1135872  36.3777373  31.2206326
  32.4685872  35.8437373  32.0126326  32.9675872  37.3937373  30.5736326
  32.4195872  38.3347373  30.5476326  34.2705872  37.6277373  31.3716326
  34.8125872  36.6887373  31.4546326  35.1955872  38.6587373  30.7116326
  34.7115872  39.6397373  30.6636326  36.1215872  38.7627373  31.2916326
  35.4685872  38.3587373  29.6946326  33.9845872  38.1567373  32.7816326
  33.3315872  37.4807373  33.3416326  34.9155872  38.2597373  33.3526326
  33.5045872  39.1407373  32.7376326  33.2645872  37.0107373  29.1146326
  33.1945872  37.8587373  28.2396326  33.5425872  35.6907373  28.8186326
  33.5935872  35.0397373  29.5966326  33.7885872  35.2057373  27.4566326
  34.5835872  35.8087373  27.0146326  34.2815872  33.7527373  27.5176326
  33.4925872  33.0767373  27.8616326  34.6015872  33.4217373  26.5206326
  35.1385872  33.6547373  28.1946326  32.5455872  35.3507373  26.5546326
  32.6565872  35.7917373  25.4216326  31.3055872  35.0437373  27.0856326
  31.2945872  34.6417373  28.0226326  30.0475872  35.2467373  26.3586326
  30.1075872  34.7087373  25.4116326  28.8585872  34.6877373  27.1576326
  29.0035872  33.6187373  27.3136326  28.8195872  35.1767373  28.1306326
  27.5225872  34.9107373  26.4246326  27.4005872  35.9697373  26.2006326
  27.5625872  34.3757373  25.4746326  26.0295872  34.3787373  27.3066326
  25.9835872  35.5807373  28.6646326  25.9705872  36.6017373  28.2646326
  25.0785872  35.4227373  29.2636326  26.8585872  35.4597373  29.3136326
  29.8395872  36.7247373  26.0226326  29.5005872  37.0527373  24.9016326
  30.1005872  37.6637373  26.9976326  30.3625872  37.3187373  27.9216326
  29.9925872  39.1007373  26.7496326  28.9915872  39.3087373  26.3786326
  30.2025872  39.8607373  28.0706326  31.1135872  39.4927373  28.5416326
  30.3465872  40.9157373  27.8516326  29.0355872  39.7307373  29.0686326
  28.8015872  38.6827373  29.2396326  29.4435872  40.3657373  30.3976326
  29.7295872  41.4157373  30.2646326  28.6125872  40.3197373  31.1096326
  30.2895872  39.8177373  30.8286326  27.7675872  40.4377373  28.5826326
  27.3895872  39.9867373  27.6586326  26.9745872  40.3417373  29.3326326
  27.9525872  41.5037373  28.4026326  30.9555872  39.5687373  25.6426326
  30.5535872  40.3467373  24.7926326  32.2275872  39.0247373  25.5886326
  32.4805872  38.3907373  26.3466326  33.1995872  39.3147373  24.5146326
  33.2465872  40.3977373  24.3766326  34.5985872  38.8147373  24.9086326
  34.5475872  37.7617373  25.1916326  35.2645872  38.9087373  24.0486326
  35.1855872  39.6357373  26.0666326  35.2585872  40.6837373  25.7686326
  34.5275872  39.5697373  26.9306326  36.5745872  39.1267373  26.4586326
  36.5315872  38.0447373  26.5996326  37.2695872  39.3487373  25.6476326
  37.0245872  39.7677373  27.7046326  36.3895872  40.4207373  28.1466326
  38.1215872  39.5227373  28.3906326  39.0795872  38.7497373  27.9726326
  39.0865872  38.4537373  27.0036326  39.8735872  38.5527373  28.5686326
  38.2615872  40.0947373  29.5436326  37.5385872  40.7227373  29.8606326
  39.1105872  39.9147373  30.0756326  32.7815872  38.7507373  23.1516326
  33.0625872  39.3747373  22.1426326  32.0545872  37.5817373  23.0946326
  31.9235872  37.0747373  23.9666326  31.4165872  37.0967373  21.8646326
  32.1595872  37.0767373  21.0656326  30.9165872  35.6667373  22.0896326
  30.1035872  35.6347373  22.8246326  30.5425872  35.2477373  21.1476326
  31.7335872  35.0307373  22.4486326  30.2835872  38.0437373  21.4216326
  30.2355872  38.4897373  20.2876326  29.4175872  38.4887373  22.3956326
  29.4915872  38.0317373  23.3036326  28.4005872  39.5287373  22.2286326
  27.8435872  39.3037373  21.3186326  27.4185872  39.4587373  23.4086326
  27.9655872  39.5937373  24.3416326  26.6735872  40.2507373  23.3156326
  26.5785872  37.8487373  23.4116326  26.0075872  37.9517373  24.6166326
  28.9815872  40.9497373  22.0426326  28.2775872  41.9267373  22.2386326
  30.2975872  41.0977373  21.6396326  30.8095872  40.2327373  21.4916326
  30.9805872  42.3597373  21.3256326  32.0295872  42.1127373  21.1476326
  30.4065872  42.9327373  20.0116326  29.3235872  42.8217373  19.9806326
  30.6165872  43.9987373  19.9476326  31.0035872  42.3017373  18.7726326
  31.8255872  42.9097373  18.1206326  30.6315872  41.0557373  18.4086326
  30.9065872  40.7607373  17.4736326  30.0555872  40.4837373  19.0096326
  31.0195872  43.3977373  22.4716326  31.3795872  44.5447373  22.2506326
  30.6425872  43.0177373  23.7386326  30.4285872  42.0297373  23.8736326
  30.7125872  43.8797373  24.9236326  30.4405872  44.8947373  24.6356326
  29.7085872  43.4107373  25.9946326  29.9205872  42.3797373  26.2566326
  29.7895872  44.2497373  27.2696326  29.5965872  45.3067373  27.0446326
  29.0415872  43.9127373  27.9986326  30.7715872  44.1577373  27.7466326
  28.2615872  43.4957373  25.4956326  28.1045872  42.8317373  24.6396326
  27.5645872  43.1797373  26.2816326  28.0025872  44.5197373  25.1966326
  32.1465872  43.9097373  25.4626326  32.7885872  42.8817373  25.6036326
  32.6715872  45.1367373  25.8146326  32.0915872  45.9527373  25.6766326
  33.9795872  45.2887373  26.4536326  34.6715872  44.6047373  25.9626326
  34.5075872  46.7157373  26.2376326  34.3395872  47.0137373  25.2056326
  33.9775872  47.4147373  26.8786326  35.9985872  46.8267373  26.5206326
  36.6475872  45.9187373  26.9946326  36.6125872  47.9707373  26.1586326
  37.6135872  47.9927373  26.2406326  36.0675872  48.6777373  25.6606326
  33.9195872  44.8807373  27.9366326  33.8285872  45.7187373  28.8196326
  33.8985872  43.5267373  28.1876326  33.8565872  42.9247373  27.3706326
  33.8745872  42.9187373  29.5106326  33.4045872  43.6137373  30.2046326
  32.9895872  41.6707373  29.4456326  33.3845872  40.9377373  28.7306326
  32.9265872  41.1937373  30.4316326  31.9745872  41.9477373  29.1406326
  35.2915872  42.6037373  30.0276326  36.0235872  41.8227373  29.4326326
  35.6805872  43.2077373  31.2026326  34.9805872  43.8277373  31.6136326
  36.8595872  42.8597373  32.0086326  37.7225872  42.7217373  31.3616326
  37.1465872  43.9827373  33.0176326  36.2285872  44.1907373  33.5626326
  37.8895872  43.6347373  33.7386326  37.6765872  45.2747373  32.3816326
  38.6835872  45.0847373  32.0126326  37.0425872  45.5777373  31.5476326
  37.7135872  46.4067373  33.4176326  36.7015872  46.7917373  33.5516326
  38.0635872  46.0177373  34.3756326  38.5975872  47.5027373  32.9866326
  39.1825872  47.3337373  32.1886326  38.6825872  48.6977373  33.5426326
  37.9825872  49.0587373  34.5776326  37.3445872  48.3947373  35.0256326
  38.0355872  50.0247373  34.8906326  39.5135872  49.5737373  33.0586326
  40.0925872  49.3677373  32.2696326  39.6015872  50.4737373  33.5346326
  36.6355872  41.5667373  32.7916326  35.5335872  41.3127373  33.2426326
  37.7405872  40.7827373  33.0266326  38.6185872  41.1557373  32.6706326
  37.8165872  39.8567373  34.1566326  36.8215872  39.4537373  34.3546326
  38.7745872  38.6927373  33.8296326  38.4175872  38.1727373  32.9406326
  39.7575872  39.1087373  33.6036326  38.9255872  37.6797373  34.9856326
  39.1945872  38.2007373  35.9036326  37.6215872  36.9137373  35.2226326
  37.2545872  36.4607373  34.2966326  37.7675872  36.1187373  35.9606326
  36.8415872  37.5777373  35.6166326  40.0475872  36.6827373  34.6956326
  41.0065872  37.2047373  34.5886326  40.1505872  35.9687373  35.5216326
  39.8585872  36.1217373  33.7776326  38.2825872  40.6287373  35.3986326
  39.2835872  41.3237373  35.3396326  37.5595872  40.4647373  36.5546326
  36.7185872  39.8907373  36.5036326  37.9555872  40.9677373  37.8746326
  38.8525872  41.5747373  37.7586326  36.8545872  41.8537373  38.5006326
  36.0515872  41.2007373  38.8466326  37.4225872  42.5907373  39.7246326
  38.3825872  43.0667373  39.4906326  36.7355872  43.3727373  40.0696326
  37.5745872  41.8977373  40.5616326  36.2135872  42.8587373  37.5186326
  35.7455872  42.3157373  36.6976326  35.4185872  43.3857373  38.0436326
  37.1805872  43.8927373  36.9326326  38.0585872  43.4127373  36.4886326
  36.6865872  44.4667373  36.1426326  37.5125872  44.5947373  37.7066326
  38.3065872  39.7887373  38.7866326  37.6755872  38.7477373  38.6996326
  39.3405872  39.9547373  39.6806326  39.8345872  40.8457373  39.6376326
  39.8565872  38.9067373  40.5646326  39.0815872  38.1547373  40.7216326
  41.0455872  38.2257373  39.8636326  40.7055872  37.7997373  38.9196326
  41.7935872  38.9857373  39.6376326  41.6985872  37.1167373  40.6996326
  42.0015872  37.5157373  41.6676326  40.9595872  36.3347373  40.8776326
  43.1615872  36.3667373  39.9286326  44.3615872  37.7067373  40.1626326
  44.4965872  37.9097373  41.2316326  45.3275872  37.4217373  39.7326326
  44.0215872  38.6217373  39.6626326  40.2675872  39.4607373  41.9356326
  41.2065872  40.2337373  42.0356326  39.5875872  38.9797373  43.0306326
  38.8175872  38.3457373  42.8266326  40.0805872  39.0207373  44.4096326
  40.3105872  40.0497373  44.6876326  38.9965872  38.4857373  45.3536326
  38.1055872  39.1097373  45.2736326  38.7415872  37.4657373  45.0666326
  39.4485872  38.4867373  46.6906326  38.7285872  38.0817373  47.2696326
  41.3515872  38.1727373  44.5146326  41.3475872  36.9957373  44.1976326
  42.5105872  38.7917373  44.9176326  42.4345872  39.7547373  45.2416326
  43.8095872  38.1277373  44.9366326  43.7575872  37.2297373  44.3176326
  44.8345872  39.0617373  44.2856326  44.4795872  39.3527373  43.2946326
  44.9415872  39.9527373  44.8966326  46.4355872  38.2257373  44.1366326
  47.1375872  39.2827373  43.7076326  44.1715872  37.6877373  46.3636326
  44.3125872  38.5097373  47.2536326  44.3175872  36.3317373  46.5816326
  44.1585872  35.7327373  45.7816326  44.3965872  35.7007373  47.9066326
  44.3565872  36.4837373  48.6616326  43.1495872  34.8087373  48.1026326
  43.1175872  34.0537373  47.3146326  43.2385872  34.2877373  49.0536326
  41.8155872  35.5807373  48.1036326  41.6455872  36.0117373  47.1166326
  40.9995872  34.8857373  48.3036326  41.7735872  36.6877373  49.1536326
  42.2495872  36.5537373  50.2616326  41.2065872  37.8727373  48.8376326
  41.2835872  38.6277373  49.5066326  40.7745872  38.0067373  47.9246326
  45.7265872  34.9567373  48.1826326  45.7195872  33.7567373  48.4116326
  46.9275872  35.6647373  48.1826326  47.0895872  37.0947373  47.8866326
  46.4065872  37.7057373  48.4896326  46.9075872  37.2667373  46.8206326
  48.5505872  37.4277373  48.2226326  48.6085872  37.8487373  49.2346326
  48.9805872  38.1527373  47.5206326  49.2815872  36.0747373  48.1806326
  50.1745872  36.0557373  48.8186326  49.5835872  35.8457373  47.1516326
  48.1955872  35.0897373  48.6416326  48.3545872  34.1157373  48.1796326
  48.2135872  34.9457373  50.1766326  47.4965872  35.6647373  50.8596326
  49.1255872  34.0737373  50.7626326  49.9875872  33.1257373  50.0456326
  50.4785872  33.5947373  49.1846326  49.3855872  32.2697373  49.7116326
  51.0305872  32.6737373  51.0796326  51.9345872  33.2877373  50.9776326
  51.3115872  31.6237373  50.9486326  50.3825872  32.9387373  52.4506326
  51.1185872  33.1287373  53.2376326  49.7575872  32.0877373  52.7486326
  49.4875872  34.1517373  52.1776326  48.5915872  34.0897373  52.7966326
  50.1965872  35.4887373  52.4416326  51.0405872  35.9117373  51.6676326
  49.7865872  36.2157373  53.5376326  49.1075872  35.7847373  54.1476326
  50.0535872  37.6507373  53.6876326  50.4395872  38.0127373  52.7386326
  48.7325872  38.3887373  53.9526326  47.9075872  37.8387373  53.4976326
  48.5415872  38.4477373  55.0256326  48.7805872  39.7877373  53.3486326
  48.2285872  39.9477373  52.2296326  49.4505872  40.6627373  53.9396326
  51.1065872  37.9847373  54.7516326  51.0345872  37.4947373  55.8666326
  52.0855872  38.9017373  54.4276326  52.0835872  39.2837373  53.4836326
  53.0745872  39.4127373  55.3866326  53.6155872  38.5647373  55.8076326
  54.0745872  40.3027373  54.6316326  54.5465872  39.7097373  53.8366326
  53.5175872  41.1037373  54.1296326  55.1765872  40.9287373  55.4766326
  55.2855872  42.3297373  55.5706326  54.5805872  42.9647373  55.0546326
  56.2935872  42.9097373  56.3606326  56.3545872  43.9847373  56.4566326
  57.1955872  42.0917373  57.0626326  57.9515872  42.5397373  57.6946326
  57.0955872  40.6947373  56.9636326  57.7845872  40.0647373  57.5066326
  56.0895872  40.1137373  56.1706326  56.0105872  39.0397373  56.1116326
  52.4235872  40.1487373  56.5746326  52.9985872  40.2027373  57.6446326
  51.1355872  40.6327373  56.4176326  50.7385872  40.5647373  55.4816326
  50.2895872  41.1837373  57.4966326  50.8475872  41.9797373  57.9886326
  49.0035872  41.7977373  56.8946326  48.3275872  40.9917373  56.6076326
  48.2605872  42.7477373  57.8326326  48.9245872  43.5467373  58.1866326
  47.4115872  43.2027373  57.3116326  47.8595872  42.2187373  58.7036326
  49.2875872  42.5637373  55.7376326  49.3525872  41.9027373  54.9756326
  49.9495872  40.1367373  58.5866326  49.3785872  40.4607373  59.6146326
  50.3215872  38.8207373  58.3786326  50.7835872  38.6137373  57.4976326
  50.2905872  37.7677373  59.3896326  49.8815872  38.1727373  60.3186326
  49.3475872  36.6557373  58.9126326  48.3785872  37.0987373  58.6816326
  49.7375872  36.2017373  58.0046326  49.1625872  35.5707373  59.9586326
  50.0995872  34.9667373  60.4386326  47.8935872  35.2767373  60.3136326
  47.7615872  34.6737373  61.1246326  47.1545872  35.8857373  60.0066326
  51.7105872  37.2597373  59.7006326  52.3715872  36.6307373  58.8846326
  52.1545872  37.4857373  60.9766326  51.5035872  37.9897373  61.5876326
  53.4785872  37.1947373  61.5236326  54.0995872  36.7887373  60.7256326
  54.0785872  38.5377373  61.9676326  53.7195872  39.3187373  61.2966326
  53.7315872  38.7757373  62.9716326  55.6075872  38.5667373  61.9276326
  55.9925872  37.9787373  62.7596326  55.9495872  38.1067373  61.0006326
  56.3055872  40.2407373  62.0186326  56.0025872  40.8197373  60.3236326
  54.9305872  40.8067373  60.0876326  56.3685872  41.8477373  60.2076326
  56.5235872  40.1737373  59.6096326  53.4225872  36.1367373  62.6466326
  54.3965872  35.8957373  63.3416326  52.2245872  35.4657373  62.8306326
  51.4635872  35.7587373  62.2216326  51.9595872  34.4347373  63.8436326
  52.3255872  34.8087373  64.8006326  50.4365872  34.2297373  63.9346326
  49.9345872  35.1987373  63.9326326  50.0965872  33.6877373  63.0526326
  50.0135872  33.4677373  65.1976326  50.4365872  32.4657373  65.1766326
  50.3895872  33.9807373  66.0826326  48.4835872  33.3997373  65.2706326
  48.1045872  34.3997373  65.4896326  48.0845872  33.0727373  64.3106326
  48.0145872  32.4117373  66.3406326  48.0565872  31.3987373  65.9316326
  48.6975872  32.4647373  67.1926326  46.6465872  32.7327373  66.8056326
  45.9925872  32.8807373  66.0436326  46.3085872  32.0477373  67.4726326
  46.6755872  33.6127373  67.3206326  52.6895872  33.1207373  63.5476326
  52.7035872  32.6567373  62.4166326  53.2905872  32.4887373  64.6126326
  53.3125872  33.0177373  65.4816326  54.0835872  31.2507373  64.5206326
  54.8385872  31.4237373  63.7546326  54.8245872  31.0227373  65.8606326
  55.3805872  31.9357373  66.0876326  53.8645872  30.7737373  67.0396326
  53.3315872  29.8197373  66.9296326  54.4195872  30.7407373  67.9866326
  53.1225872  31.5757373  67.1296326  55.8445872  29.8657373  65.8136326
  56.2965872  29.7647373  66.7996326  55.3415872  28.9277373  65.5756326
  56.9815872  30.0947373  64.8106326  57.4575872  31.0707373  64.9726326
  57.7465872  29.3177373  64.9306326  56.6165872  30.0477373  63.7776326
  53.2765872  30.0217373  64.0516326  53.7685872  29.2467373  63.2526326
  51.9725872  29.8777373  64.4806326  51.6185872  30.5877373  65.1056326
  51.0215872  28.8787373  63.9696326  51.4535872  28.4217373  63.0786326
  50.7985872  27.7437373  64.9926326  51.7735872  27.4057373  65.3486326
  50.2475872  28.1387373  65.8476326  50.0475872  26.5167373  64.4376326
  49.4915872  26.5627373  63.3166326  50.0675872  25.4487373  65.0926326
  49.7185872  29.5697373  63.5406326  49.2565872  30.5037373  64.1686326
  49.1205872  29.0987373  62.3996326  49.4765872  28.1987373  62.0846326
  47.9065872  29.6377373  61.7696326  47.3525872  30.1997373  62.5226326
  48.2485872  30.6177373  60.6356326  47.3325872  30.8947373  60.1166326
  48.9125872  31.8967373  61.1256326  49.8745872  31.6977373  61.6126326
  49.0845872  32.5727373  60.2816326  48.2625872  32.4097373  61.8446326
  49.1655872  30.0417373  59.7336326  50.0115872  30.0337373  60.2216326
  46.9705872  28.5097373  61.3206326  46.2575872  28.6227373  60.3376326
  46.9795872  27.3567373  62.0736326  47.6755872  27.3097373  62.8166326
  46.0805872  26.2067373  61.9036326  46.0185872  25.9647373  60.8426326
  46.6575872  24.9807373  62.6246326  46.6545872  25.1457373  63.7026326
  46.0425872  24.1077373  62.3986326  47.9885872  24.7407373  62.2016326
  48.5785872  25.4457373  62.6386326  44.6585872  26.5427373  62.3906326
  44.2175872  26.0877373  63.4356326  43.9515872  27.4577373  61.6366326
  44.4355872  27.7937373  60.8086326  42.5955872  27.9417373  61.9176326
  42.5185872  28.1197373  62.9906326  42.3465872  29.2737373  61.1796326
  42.4125872  29.0877373  60.1066326  41.3285872  29.6017373  61.3946326
  43.3095872  30.4257373  61.5326326  44.3275872  30.1457373  61.2696326
  42.9355872  31.6657373  60.7246326  41.9305872  32.0257373  60.9846326
  43.6395872  32.4847373  60.9196326  42.9545872  31.4597373  59.6486326
  43.2725872  30.7957373  63.0156326  43.6415872  29.9717373  63.6376326
  43.9135872  31.6667373  63.2066326  42.2535872  31.0507373  63.3326326
  41.5135872  26.9077373  61.5546326  41.6665872  26.1407373  60.6176326
  40.3625872  26.9397373  62.3166326  40.3445872  27.6417373  63.0416326
  39.2545872  25.9767373  62.2476326  39.6555872  24.9957373  62.5116326
  38.1915872  26.3647373  63.2976326  37.7945872  27.3497373  63.0496326
  37.3645872  25.6567373  63.2636326  38.7225872  26.3767373  64.7206326
  39.4105872  25.4777373  65.1476326  38.4035872  27.4247373  65.5186326
  38.9085872  27.4987373  66.4076326  37.8695872  28.1927373  65.1436326
  38.6095872  25.8327373  60.8506326  38.6255872  26.7467373  60.0406326
  37.9585872  24.6367373  60.6046326  37.9705872  23.9517373  61.3586326
  37.1855872  24.3217373  59.3966326  37.4405872  25.0257373  58.6036326
  37.4635872  23.3227373  59.0636326  35.6605872  24.3467373  59.5856326
  34.9335872  24.3857373  58.6056326  35.1545872  24.3377373  60.8716326
  35.8355872  24.2247373  61.6146326  33.7315872  24.3787373  61.2246326
  33.2555872  23.4767373  60.8366326  33.6125872  24.3707373  62.7656326
  34.1025872  23.4777373  63.1536326  34.1215872  25.2427373  63.1746326
  32.1765872  24.3987373  63.2716326  31.3735872  25.2127373  62.8796326
  31.7815872  23.4637373  64.1666326  30.8115872  23.5147373  64.4796326
  32.4355872  22.7827373  64.5276326  33.0415872  25.6007373  60.5846326
  33.4345872  26.7257373  60.8396326  31.9905872  25.3457373  59.7216326
  31.7815872  24.3647373  59.5876326  31.1765872  26.2947373  58.9426326
  30.5185872  25.6867373  58.3186326  30.2755872  27.1097373  59.8806326
  29.8455872  26.4637373  60.6456326  30.8585872  27.8897373  60.3676326
  29.1315872  27.7397373  59.1086326  28.2195872  27.0637373  58.6866326
  29.1355872  29.0687373  58.8726326  28.3725872  29.4447373  58.3386326
  29.9605872  29.6317373  59.0936326  31.9145872  27.2307373  57.9646326
  31.3245872  27.6317373  56.9776326  33.2315872  27.5617373  58.2036326
  33.5975872  27.2217373  59.0886326  33.9745872  28.6357373  57.5456326
  33.5305872  29.5857373  57.8456326  35.4135872  28.5947373  58.0746326
  35.9045872  27.6487373  57.8096326  35.9975872  29.4217373  57.6506326
  35.4255872  28.6967373  59.1676326  33.9445872  28.5807373  56.0076326
  34.0905872  29.5977373  55.3556326  33.6825872  27.3707373  55.3966326
  33.5475872  26.5767373  56.0096326  33.4205872  27.2347373  53.9676326
  34.2935872  27.6097373  53.4326326  33.2415872  25.7497373  53.6156326
  33.9755872  25.1537373  54.1746326  32.2525872  25.3967373  53.9376326
  33.4405872  25.4767373  52.1346326  34.7495872  25.2857373  51.6576326
  35.5805872  25.2807373  52.3496326  34.9865872  25.1657373  50.2786326
  35.9935872  25.0787373  49.9106326  33.9095872  25.1947373  49.3716326
  34.1585872  25.1247373  48.0386326  35.0865872  25.4287373  47.8516326
  32.5895872  25.3407373  49.8516326  31.7725872  25.3817373  49.1466326
  32.3565872  25.4957373  51.2346326  31.3515872  25.6637373  51.5966326
  32.2085872  28.0707373  53.5156326  32.3235872  28.8697373  52.6066326
  31.0125872  27.9297373  54.1986326  31.0465872  27.3737373  55.0516326
  29.7745872  28.6677373  53.8846326  29.7115872  28.7827373  52.8026326
  28.5415872  27.8707373  54.3456326  28.6585872  27.5517373  55.3836326
  27.6625872  28.5147373  54.2786326  28.3235872  26.6537373  53.4316326
  28.3855872  26.9877373  52.3936326  29.1105872  25.9177373  53.6046326
  26.9545872  25.9947373  53.6396326  26.9185872  25.4977373  54.6116326
  26.1785872  26.7607373  53.5966326  26.7325872  24.9807373  52.5116326
  26.9575872  25.4687373  51.5586326  27.4255872  24.1417373  52.6306326
  25.3415872  24.4817373  52.4626326  24.6695872  25.2327373  52.4486326
  25.2185872  23.9457373  51.6036326  25.1405872  23.8407373  53.2286326
  29.7545872  30.1077373  54.4066326  28.9195872  30.8817373  53.9736326
  30.7285872  30.4927373  55.2976326  31.3255872  29.7607373  55.6606326
  31.0555872  31.8967373  55.5616326  30.1255872  32.4647373  55.6386326
  31.7865872  32.0357373  56.9076326  32.7175872  31.4697373  56.8736326
  32.0415872  33.0857373  57.0476326  30.9475872  31.5887373  58.1136326
  31.4175872  30.7477373  58.9196326  29.8195872  32.1037373  58.2976326
  31.8615872  32.5177373  54.3996326  31.4905872  33.5587373  53.8906326
  32.9775872  31.8597373  53.9086326  33.2675872  31.0107373  54.3916326
  33.8735872  32.4567373  52.9026326  34.0135872  33.5027373  53.1786326
  35.2695872  31.8057373  52.9596326  35.9765872  32.4687373  52.4596326
  35.5755872  31.7097373  54.0026326  35.3455872  30.4337373  52.2806326
  34.5615872  29.8047373  52.6916326  35.1595872  30.5647373  51.2146326
  36.9065872  29.5357373  52.4486326  36.5565872  28.2307373  51.2426326
  36.4395872  28.6607373  50.2396326  37.3715872  27.4977373  51.2236326
  35.6215872  27.7277373  51.5066326  33.2945872  32.4697373  51.4746326
  33.3905872  33.4797373  50.7976326  32.6425872  31.3447373  50.9826326
  32.5825872  30.5297373  51.5936326  32.1505872  31.2587373  49.5856326
  32.9255872  31.6947373  48.9616326  31.9585872  29.8137373  49.0746326
  31.8015872  29.8717373  47.9976326  33.2125872  28.9567373  49.2846326
  33.3705872  28.7187373  50.3406326  33.1245872  28.0137373  48.7326326
  34.1015872  29.4787373  48.9156326  30.7365872  29.1007373  49.6646326
  29.8075872  29.6007373  49.3726326  30.6815872  28.0677373  49.3006326
  30.7735872  29.0797373  50.7546326  30.9055872  32.1137373  49.3246326
  30.4575872  32.2307373  48.1946326  30.3625872  32.7627373  50.4166326
  30.8505872  32.5797373  51.2876326  29.2585872  33.7337373  50.4676326
  28.3485872  33.2707373  50.0856326  29.0855872  34.0657373  51.9596326
  29.2275872  33.1437373  52.5266326  29.8645872  34.7677373  52.2596326
  27.7235872  34.6287373  52.3706326  27.5535872  35.5987373  51.9026326
  26.9435872  33.9317373  52.0606326  27.7075872  34.7757373  53.9006326
  28.0495872  33.8457373  54.3596326  28.3835872  35.5807373  54.1956326
  26.2945872  35.0707373  54.3956326  25.9645872  36.0277373  53.9866326
  25.6285872  34.2887373  54.0196326  26.2435872  35.1057373  55.8736326
  26.7935872  35.8697373  56.2566326  25.2865872  35.2187373  56.1926326
  26.6275872  34.2497373  56.2766326  29.5165872  35.0047373  49.6396326
  28.6025872  35.7717373  49.4016326  30.8065872  35.2047373  49.1966326
  31.4755872  34.4987373  49.4776326  31.2755872  36.2587373  48.3006326
  30.4105872  36.6997373  47.8046326  31.9905872  37.3457373  49.1126326
  32.8895872  36.9117373  49.5706326  32.3475872  38.1317373  48.4336326
  31.1445872  37.9817373  50.2056326  31.0915872  37.3947373  51.4856326
  31.6385872  36.4807373  51.6806326  30.3105872  37.9807373  52.4976326
  30.2455872  37.5237373  53.4716326  29.5965872  39.1657373  52.2376326
  28.8995872  39.7597373  53.2406326  29.3075872  39.5557373  54.1206326
  29.6605872  39.7637373  50.9626326  29.1475872  40.6937373  50.7716326
  30.4285872  39.1657373  49.9446326  30.5045872  39.6427373  48.9776326
  32.2215872  35.6617373  47.2416326  32.9385872  34.7147373  47.5416326
  32.2615872  36.2067373  45.9656326  31.4955872  37.3817373  45.5286326
  31.6955872  38.2507373  46.1696326  30.4235872  37.1497373  45.5446326
  31.9615872  37.6517373  44.0916326  32.7705872  38.3937373  44.1056326
  31.1525872  38.0357373  43.4576326  32.5065872  36.3027373  43.5906326
  33.2855872  36.4307373  42.8326326  31.6955872  35.7007373  43.1626326
  33.0415872  35.6327373  44.8636326  32.8585872  34.5597373  44.8056326
  34.5565872  35.8557373  44.9956326  35.0035872  36.7957373  45.6326326
  35.3755872  34.9937373  44.2886326  34.9435872  34.1747373  43.8756326
  36.7685872  35.3187373  43.9416326  37.1805872  35.9537373  44.7246326
  37.6505872  34.0497373  43.8526326  37.2225872  33.3837373  43.1006326
  39.0765872  34.4127373  43.3976326  39.5065872  35.1967373  44.0316326
  39.7365872  33.5417373  43.4466326  39.0915872  34.7737373  42.3626326
  37.7095872  33.2687373  45.1846326  36.7005872  32.9607373  45.4526326
  38.2875872  32.3577373  45.0286326  38.3205872  34.0277373  46.3736326
  37.7375872  34.9237373  46.6166326  38.3275872  33.3857373  47.2596326
  39.3565872  34.3217373  46.1726326  36.8325872  36.1377373  42.6446326
  37.5385872  37.1277373  42.5876326  36.0545872  35.7457373  41.5746326
  35.4735872  34.9277373  41.7016326  36.0405872  36.4247373  40.2726326
  36.7885872  37.2137373  40.2866326  36.4145872  35.4417373  39.1546326
  35.6895872  34.6187373  39.1516326  36.3055872  35.9477373  38.1866326
  37.8105872  34.8467373  39.2346326  38.8835872  35.4537373  38.5576326
  38.7305872  36.3817373  38.0266326  40.1595872  34.8627373  38.5866326
  40.9855872  35.3337373  38.0726326  40.3705872  33.6787373  39.3146326
  41.3595872  33.2457373  39.3616326  39.3005872  33.0777373  40.0026326
  39.4485872  32.1727373  40.5796326  38.0245872  33.6617373  39.9586326
  37.2075872  33.2067373  40.4996326  34.6915872  37.0827373  39.9606326
  33.6525872  36.5867373  40.3566326  34.7085872  38.2137373  39.1746326
  35.6245872  38.5447373  38.8786326  33.5115872  38.8517373  38.6066326
  32.8435872  38.0667373  38.2676326  32.7475872  39.6317373  39.6926326
  31.7985872  39.9907373  39.2816326  32.4545872  38.9327373  40.4856326
  33.4545872  40.7767373  40.3376326  33.3595872  42.0707373  39.9616326
  32.7555872  42.4397373  39.1386326  34.1345872  42.8477373  40.7966326
  34.2195872  43.8537373  40.6946326  34.7605872  42.0917373  41.7656326
  35.6215872  42.4087373  42.8266326  35.9035872  43.4337373  43.0076326
  36.1035872  41.3777373  43.6516326  36.7635872  41.6047373  44.4786326
  35.7155872  40.0477373  43.4076326  36.0705872  39.2527373  44.0506326
  34.8495872  39.7417373  42.3416326  34.5455872  38.7197373  42.1796326
  34.3545872  40.7537373  41.4886326  33.8545872  39.6887373  37.3586326
  34.8885872  39.4827373  36.7416326  32.9315872  40.6147373  36.9206326
  32.0985872  40.7477373  37.4916326  32.9875872  41.3287373  35.6446326
  33.9445872  41.1297373  35.1626326  31.8765872  40.7287373  34.7656326
  32.0625872  39.6597373  34.6496326  30.9205872  40.8557373  35.2736326
  31.7805872  41.4987373  33.1226326  30.7715872  40.7567373  32.6496326
  32.8695872  42.8587373  35.8136326  32.2235872  43.3537373  36.7236326
  33.4755872  43.6387373  34.8526326  33.9575872  43.1317373  34.1156326
  33.1505872  45.0517373  34.6136326  32.2255872  45.2817373  35.1336326
  34.2385872  46.0047373  35.1236326  35.1935872  45.6717373  34.7326326
  34.0415872  47.0037373  34.7316326  34.3305872  46.1167373  36.6446326
  33.4295872  46.6087373  37.0126326  34.3715872  45.1207373  37.0806326
  35.5625872  46.9117373  37.1006326  36.3605872  47.4107373  36.2666326
  35.7045872  47.1037373  38.3316326  32.9325872  45.3137373  33.1206326
  33.6485872  44.7817373  32.2906326  31.9425872  46.1997373  32.7626326
  31.4035872  46.5987373  33.5306326  31.5375872  46.5127373  31.3856326
  32.2355872  46.0377373  30.6996326  30.1385872  45.9327373  31.0986326
  29.4645872  46.1897373  31.9156326  29.5295872  46.4717373  29.8006326
  30.2445872  46.3917373  28.9746326  28.6175872  45.9237373  29.5376326
  29.2535872  47.5287373  29.9076326  30.2185872  44.4047373  31.0026326
  30.5705872  43.9777373  31.9496326  29.2335872  43.9757373  30.7966326
  30.9095872  44.0957373  30.2096326  31.5975872  48.0127373  31.1116326
  31.1395872  48.8147373  31.9086326  32.1685872  48.4107373  29.9236326
  32.5785872  47.6867373  29.3436326  32.1765872  49.8007373  29.4656326
  32.4065872  50.4407373  30.3166326  33.2745872  49.9987373  28.4186326
  34.2375872  49.6817373  28.8396326  33.0725872  49.3387373  27.5666326
  33.4215872  51.3987373  27.9066326  33.1845872  51.8057373  26.6396326
  32.8355872  51.1637373  25.8386326  33.4945872  53.1467373  26.5156326
  33.4825872  53.6407373  25.6306326  33.9115872  53.6807373  27.7176326
  34.3555872  54.9537373  28.0996326  34.4265872  55.7417373  27.3646326
  34.7405872  55.1737373  29.4346326  35.1175872  56.1387373  29.7426326
  34.6545872  54.1287373  30.3716326  34.9525872  54.3007373  31.3956326
  34.2235872  52.8497373  29.9726326  34.1955872  52.0437373  30.6896326
  33.8565872  52.5887373  28.6336326  30.8215872  50.2377373  28.8936326
  30.2755872  49.5867373  28.0146326  30.3085872  51.4307373  29.3516326
  30.8115872  51.9007373  30.0926326  29.2105872  52.1467373  28.7036326
  28.7375872  51.4947373  27.9666326  28.1305872  52.5267373  29.7266326
  27.7155872  51.6247373  30.1766326  28.5755872  53.1347373  30.5156326
  27.0165872  53.3257373  29.0506326  26.8355872  53.1907373  27.8276326
  26.3855872  54.1717373  29.7196326  29.7055872  53.4047373  27.9696326
  30.0995872  54.3787373  28.5926326  29.5955872  53.4147373  26.5946326
  29.2335872  52.5607373  26.1776326  29.8765872  54.5777373  25.7366326
  30.8325872  55.0007373  26.0486326  30.0155872  54.1077373  24.2766326
  30.2205872  54.9767373  23.6476326  30.8685872  53.4307373  24.1996326
  28.7605872  53.3857373  23.7546326  28.6575872  52.4267373  24.2616326
  27.8735872  53.9847373  23.9616326  28.8355872  53.1497373  22.2446326
  28.7935872  54.1127373  21.7416326  29.7685872  52.6507373  21.9836326
  27.6485872  52.2827373  21.8226326  27.7915872  51.2737373  22.2226326
  26.7405872  52.6947373  22.2646326  27.5005872  52.2287373  20.3536326
  28.3485872  51.9027373  19.9036326  26.7565872  51.5837373  20.0956326
  27.2365872  53.1297373  19.9616326  28.8525872  55.7227373  25.8426326
  29.1635872  56.8347373  25.4416326  27.5975872  55.4677373  26.3546326
  27.4085872  54.5187373  26.6906326  26.5105872  56.4527373  26.3936326
  26.5615872  57.0577373  25.4886326  25.1485872  55.7387373  26.3926326
  24.9975872  55.2647373  27.3686326  24.3565872  56.4917373  26.2976326
  24.9485872  54.6847373  25.3066326  24.9575872  55.0457373  23.9446326
  25.1205872  56.0747373  23.6626326  24.7505872  54.0687373  22.9526326
  24.7445872  54.3447373  21.9066326  24.5515872  52.7257373  23.3206326
  24.4065872  51.9697373  22.5646326  24.5395872  52.3607373  24.6756326
  24.3825872  51.3297373  24.9646326  24.7225872  53.3417373  25.6626326
  24.6945872  53.0517373  26.7036326  26.6425872  57.4197373  27.5816326
  26.6475872  58.6217373  27.3816326  26.8065872  56.8837373  28.8466326
  26.7085872  55.8707373  28.9236326  27.0555872  57.6717373  30.0706326
  26.5865872  58.6487373  29.9586326  26.4275872  56.9877373  31.2916326
  26.5415872  57.6347373  32.1626326  25.3635872  56.8267373  31.1226326
  27.0695872  55.7547373  31.5536326  26.7605872  55.0957373  30.8316326
  28.5415872  57.9107373  30.3676326  28.8615872  58.7337373  31.2116326
  29.4765872  57.1607373  29.6706326  29.0915872  56.4757373  29.0276326
  30.9255872  57.1287373  29.9266326  31.3305872  56.3197373  29.3186326
  31.5955872  58.4297373  29.4376326  31.1355872  58.7477373  28.4996326
  31.4595872  59.2217373  30.1766326  33.0895872  58.1847373  29.1856326
  33.5475872  57.7787373  30.0846326  33.1845872  57.4547373  28.3826326
  33.8525872  59.4447373  28.7846326  33.4355872  59.8317373  27.8546326
  33.7395872  60.1977373  29.5656326  35.3395872  59.1007373  28.6076326
  35.7715872  58.9167373  29.5956326  35.4275872  58.1877373  28.0136326
  36.0715872  60.1927373  27.9306326  35.8645872  61.0787373  28.3906326
  37.0695872  60.0227373  27.9236326  35.7465872  60.2737373  26.9666326
  31.2535872  56.7337373  31.3766326  31.9845872  57.4207373  32.0706326
  30.6865872  55.5767373  31.8716326  30.0695872  55.0747373  31.2396326
  30.9245872  55.0517373  33.2286326  31.9155872  55.3767373  33.5456326
  29.8995872  55.6887373  34.1916326  29.9905872  56.7747373  34.1206326
  28.8935872  55.4217373  33.8726326  30.0865872  55.2847373  35.6646326
  29.9235872  54.2107373  35.7626326  31.1045872  55.5187373  35.9796326
  29.0915872  56.0247373  36.5746326  29.2925872  57.0967373  36.5516326
  28.0855872  55.8517373  36.1916326  29.1935872  55.5077373  38.0186326
  29.2365872  54.4157373  37.9906326  30.1265872  55.8607373  38.4686326
  28.0365872  55.9157373  38.8546326  27.1545872  55.6757373  38.4016326
  28.0655872  55.4007373  39.7366326  28.0385872  56.9057373  39.0506326
  30.9185872  53.5197373  33.2506326  30.0225872  52.8897373  32.7166326
  31.9645872  52.9047373  33.9026326  32.6605872  53.5027373  34.3186326
  32.0735872  51.4527373  34.0876326  32.0185872  50.9737373  33.1086326
  33.4315872  51.0897373  34.7136326  33.6095872  51.7127373  35.6006326
  33.3795872  50.0557373  35.0826326  34.6145872  51.1707373  33.7906326
  35.5105872  52.1827373  33.7176326  35.5025872  53.0677373  34.3406326
  36.4385872  51.9157373  32.7266326  37.2095872  52.5307373  32.5006326
  36.1855872  50.7117373  32.1056326  36.8045872  50.0267373  31.0496326
  37.6485872  50.4647373  30.5386326  36.3095872  48.7677373  30.6656326
  36.7665872  48.2257373  29.8476326  35.2115872  48.2107373  31.3456326
  34.8355872  47.2377373  31.0526326  34.5855872  48.9197373  32.3906326
  33.7375872  48.4877373  32.8986326  35.0445872  50.1937373  32.7896326
  30.9115872  50.9027373  34.9306326  30.5515872  51.4637373  35.9536326
  30.3305872  49.7477373  34.4626326  30.6905872  49.3927373  33.5776326
  29.3055872  48.9497373  35.1366326  28.8205872  49.5577373  35.8986326
  28.2375872  48.4647373  34.1226326  28.7115872  47.7327373  33.4686326
  27.0905872  47.7627373  34.8716326  26.5315872  48.4757373  35.4896326
  26.3935872  47.2917373  34.1706326  27.4665872  46.9717373  35.5316326
  27.6635872  49.5817373  33.2176326  27.0055872  50.2187373  33.8006326
  28.4685872  50.1987373  32.8186326  26.8815872  49.0497373  32.0116326
  25.9985872  48.4807373  32.3216326  26.5375872  49.8847373  31.3906326
  27.5155872  48.4027373  31.3936326  29.9965872  47.7497373  35.8026326
  30.5995872  46.9507373  35.1106326  29.9075872  47.5907373  37.1616326
  29.3055872  48.2537373  37.6466326  30.3055872  46.3697373  37.8826326
  31.1885872  45.9417373  37.4086326  30.6665872  46.7087373  39.3376326
  29.8795872  47.3297373  39.7626326  30.8565872  45.4917373  40.2326326
  31.5905872  44.7937373  39.8096326  31.1965872  45.8097373  41.2226326
  29.9065872  44.9637373  40.3756326  31.8845872  47.4227373  39.3816326
  32.6015872  46.7647373  39.5196326  29.1815872  45.3307373  37.8026326
  28.0155872  45.6717373  37.9356326  29.5355872  44.0167373  37.5566326
  30.5285872  43.8117373  37.4396326  28.5755872  42.9277373  37.3076326
  27.6285872  43.1877373  37.7796326  28.3215872  42.7427373  35.7926326
  29.2505872  42.4327373  35.3136326  27.2655872  41.6617373  35.5196326
  26.3555872  41.8517373  36.0986326  27.0015872  41.6287373  34.4556326
  27.6385872  40.6677373  35.7966326  27.8575872  44.0257373  35.0926326
  28.6475872  44.7857373  35.1136326  27.6275872  43.8287373  34.0406326
  26.9675872  44.4337373  35.5836326  29.0425872  41.5957373  37.9006326
  30.1685872  41.1787373  37.6906326  28.0945872  40.8427373  38.5506326
  27.1905872  41.2877373  38.7146326  28.2125872  39.4117373  38.8496326
  29.0205872  38.9947373  38.2516326  28.5945872  39.2017373  40.3226326
  29.6765872  39.2807373  40.4336326  28.1335872  39.9867373  40.9256326
  28.1155872  37.8457373  40.8446326  28.4825872  36.7817373  40.3016326
  27.2585872  37.8557373  41.7446326  26.8935872  38.6887373  38.4906326
  25.8325872  39.1427373  38.8946326  26.9345872  37.5327373  37.7156326
  28.1375872  36.9817373  37.0776326  28.8885872  36.6987373  37.8246326
  28.5565872  37.7267373  36.3876326  27.6535872  35.7537373  36.2956326
  27.7555872  34.8537373  36.9166326  28.2215872  35.5967373  35.3736326
  26.1675872  36.0437373  36.0326326  25.5835872  35.1357373  35.8356326
  26.0605872  36.7267373  35.1806326  25.7555872  36.7607373  37.3286326
  24.9255872  37.4327373  37.1206326  25.2935872  35.7257373  38.3696326
  24.2245872  35.1657373  38.1826326  26.1015872  35.3877373  39.4476326
  26.9635872  35.9257373  39.5866326  25.9175872  34.1237373  40.1916326
  24.8855872  33.8047373  40.0466326  26.7865872  33.0167373  39.5506326
  26.5545872  32.9927373  38.4856326  28.3005872  33.2367373  39.6846326
  28.6305872  33.1457373  40.7256326  28.8485872  32.4927373  39.0926326
  28.5895872  34.2297373  39.3186326  26.4555872  31.6307373  40.1136326
  25.3825872  31.4227373  40.0176326  26.9995872  30.8587373  39.5586326
  26.7305872  31.5497373  41.1726326  26.0835872  34.1927373  41.7166326
  25.2395872  33.6607373  42.4226326  27.1695872  34.8307373  42.2796326
  27.7695872  35.3867373  41.6636326  27.4755872  34.7047373  43.7146326
  27.2095872  33.6907373  44.0226326  28.9935872  34.8587373  43.9236326
  29.5205872  34.2897373  43.1586326  29.2725872  35.9067373  43.8246326
  29.4345872  34.3547373  45.2916326  28.9895872  34.8167373  46.3116326
  30.3285872  33.3417373  45.3776326  30.5365872  33.0277373  46.3246326
  30.6995872  32.9087373  44.5506326  26.6255872  35.6547373  44.5886326
  26.1715872  35.2907373  45.6566326  26.3215872  36.8887373  44.0766326
  26.7825872  37.1067373  43.1946326  25.4545872  37.9067373  44.6716326
  24.9305872  37.4757373  45.5246326  26.3345872  39.0707373  45.1676326
  26.9115872  39.4447373  44.3216326  25.6905872  39.8787373  45.5176326
  27.3075872  38.6837373  46.3026326  27.8965872  37.8127373  46.0186326
  28.2735872  39.8317373  46.5726326  27.7335872  40.7527373  46.8276326
  28.9345872  39.5797373  47.4066326  28.9055872  40.0127373  45.6986326
  26.5725872  38.3917373  47.6096326  25.9205872  37.5167373  47.5016326
  27.2935872  38.1547373  48.4046326  25.9765872  39.2577373  47.9176326
  24.3625872  38.3727373  43.6896326  23.3155872  38.8217373  44.1266326
  24.5575872  38.1617373  42.3346326  25.5015872  37.8507373  42.0866326
  23.5885872  38.3767373  41.2426326  24.1145872  38.1727373  40.3106326
  22.4195872  37.3697373  41.3086326  21.7905872  37.5867373  42.1716326
  21.8135872  37.4807373  40.4086326  22.9305872  35.9277373  41.4036326
  23.6455872  35.7587373  40.6066326  23.4555872  35.8087373  42.3466326
  21.8465872  34.8507373  41.3266326  22.3005872  33.9047373  41.6266326
  21.0415872  35.0817373  42.0266326  21.2905872  34.7057373  39.9056326
  20.6955872  35.5897373  39.6556326  22.1285872  34.6477373  39.2036326
  20.4645872  33.4847373  39.7956326  19.6945872  33.5027373  40.4586326
  20.0745872  33.3777373  38.8616326  21.0125872  32.6537373  40.0146326
  23.1375872  39.8327373  41.1536326  21.9835872  40.1577373  41.3746326
  24.1045872  40.7597373  40.8356326  25.0045872  40.3897373  40.5346326
  23.8525872  42.2087373  40.7626326  22.7935872  42.3527373  40.5496326
  24.1385872  42.9297373  42.0916326  23.9155872  43.9877373  41.9526326
  23.2875872  42.4387373  43.2546326  23.4925872  41.3887373  43.4846326
  23.4885872  43.0247373  44.1576326  22.2255872  42.5477373  43.0056326
  25.4845872  42.8237373  42.4676326  25.6955872  41.8787373  42.5826326
  24.6135872  42.9017373  39.6336326  25.6155872  42.4167373  39.1356326
  24.0615872  44.0947373  39.2186326  23.2255872  44.3947373  39.7036326
  24.5605872  44.9877373  38.1706326  25.6045872  44.7607373  37.9486326
  23.7115872  44.8047373  36.8886326  22.6625872  44.8957373  37.1786326
  23.9935872  45.8897373  35.8346326  25.0525872  45.8887373  35.5546326
  23.3975872  45.7187373  34.9296326  23.7355872  46.8857373  36.2116326
  23.9245872  43.4187373  36.2386326  24.7405872  43.4657373  35.5176326
  24.1845872  42.6757373  36.9866326  22.6645872  42.9127373  35.5406326
  22.3485872  43.6087373  34.7556326  22.8615872  41.9347373  35.0856326
  21.8415872  42.7967373  36.2576326  24.4665872  46.4207373  38.7086326
  23.3975872  46.8517373  39.1176326  25.6015872  47.1947373  38.7026326
  26.4715872  46.7557373  38.3916326  25.6475872  48.5727373  39.2056326
  24.6545872  49.0087373  39.0976326  25.9935872  48.6007373  40.7106326
  25.9045872  49.6347373  41.0446326  25.2585872  48.0087373  41.2596326
  27.4055872  48.0837373  41.0516326  27.4605872  47.0167373  40.8236326
  28.1365872  48.6007373  40.4326326  27.8095872  48.3327373  42.5086326
  27.6095872  49.4627373  43.0026326  28.4035872  47.4157373  43.1226326
  26.6145872  49.4537373  38.4066326  27.6785872  49.0277373  38.0016326
  26.2735872  50.7727373  38.2276326  25.3775872  51.0707373  38.5916326
  27.2805872  51.7987373  37.9656326  28.1835872  51.3537373  37.5416326
  26.7425872  52.8257373  36.9676326  25.7205872  53.0997373  37.2316326
  27.3715872  53.7077373  37.0406326  26.7965872  52.3547373  35.5116326
  27.7715872  51.9097373  35.3176326  26.0225872  51.6067373  35.3426326
  26.5975872  53.5157373  34.5406326  25.9885872  54.5167373  34.8536326
  27.1635872  53.4517373  33.3146326  27.0575872  54.2937373  32.7526326
  27.8355872  52.7307373  33.0866326  27.6635872  52.4417373  39.3016326
  27.0235872  53.3857373  39.7336326  28.7455872  51.8937373  39.9576326
  29.1625872  51.0937373  39.4956326  29.1565872  52.1517373  41.3536326
  28.5285872  51.5337373  41.9966326  30.6165872  51.6897373  41.5586326
  31.2585872  52.2167373  40.8516326  31.1285872  51.9797373  42.9706326
  30.4435872  51.5647373  43.7206326  32.1175872  51.5327373  43.1196326
  31.2345872  53.0577373  43.1356326  30.7755872  50.1827373  41.3186326
  30.5105872  49.9017373  40.2926326  31.8095872  49.8637373  41.4896326
  30.1405872  49.6137373  42.0066326  28.9735872  53.6117373  41.8086326
  29.3315872  54.5417373  41.0986326  28.3935872  53.8087373  43.0536326
  28.0785872  52.9677373  43.5286326  28.1415872  55.1247373  43.6786326
  27.8495872  55.8267373  42.8966326  26.9645872  54.9917373  44.6666326
  26.1225872  54.5217373  44.1546326  27.2555872  54.3567373  45.5046326
  26.5095872  56.3617373  45.1946326  27.3275872  56.8307373  45.7426326
  26.2455872  56.9967373  44.3476326  25.3035872  56.2607373  46.1336326
  24.4755872  55.7697373  45.6176326  25.5845872  55.6587373  46.9996326
  24.8905872  57.6107373  46.5536326  24.9715872  58.3547373  45.8716326
  24.5665872  58.0257373  47.7606326  24.3615872  57.2387373  48.7696326
  24.3705872  56.2327373  48.6376326  24.1975872  57.6447373  49.6806326
  24.4425872  59.3007373  47.9636326  24.6055872  59.9237373  47.1816326
  24.2375872  59.6397373  48.8896326  29.3835872  55.7327373  44.3506326
  29.6375872  56.9147373  44.1916326  30.1805872  54.8807373  45.0856326
  29.8325872  53.9367373  45.1716326  31.4655872  55.2197373  45.7126326
  31.9205872  56.0367373  45.1496326  31.2225872  55.6997373  47.1606326
  30.6425872  56.6237373  47.1276326  30.6205872  54.9527373  47.6796326
  32.4985872  55.9387373  47.9926326  33.0595872  55.0107373  48.0816326
  33.4075872  56.9957373  47.3616326  32.8685872  57.9417373  47.2216326
  34.2855872  57.1667373  47.9956326  33.7685872  56.6517373  46.3856326
  32.1305872  56.4157373  49.3966326  31.5095872  55.6587373  49.8966326
  33.0275872  56.5567373  50.0116326  31.5635872  57.3537373  49.3666326
  32.4255872  54.0237373  45.6266326  33.4095872  54.0747373  44.9096326
  32.0455872  52.8807373  46.2926326  31.2625872  52.9657373  46.9326326
  32.6295872  51.5487373  46.1246326  33.1455872  51.5227373  45.1666326
  33.6725872  51.2617373  47.2136326  34.1245872  50.2847373  47.0216326
  34.4835872  51.9987373  47.1396326  33.1315872  51.2817373  48.6196326
  32.8375872  52.4347373  49.3436326  32.3525872  52.0177373  50.5226326
  32.0245872  52.6757373  51.3196326  32.3345872  50.6747373  50.5726326
  32.0035872  50.1277373  51.3566326  32.8235872  50.1887373  49.3776326
  32.9315872  49.1517373  49.0836326  31.5215872  50.4867373  46.0826326
  30.4435872  50.6927373  46.6156326  31.7765872  49.3407373  45.3706326
  32.6965872  49.2777373  44.9396326  30.7695872  48.3327373  45.0166326
  29.9595872  48.8417373  44.4946326  31.4045872  47.3327373  44.0486326
  31.6705872  47.8387373  43.1196326  32.3085872  46.9467373  44.5116326
  30.5435872  46.2497373  43.7686326  29.6675872  46.6567373  43.4076326
  30.1525872  47.5867373  46.2096326  30.8075872  47.3207373  47.2066326
  28.8495872  47.1487373  46.0476326  28.4285872  47.3867373  45.1446326
  28.1245872  46.2457373  46.9666326  28.2445872  46.6247373  47.9816326
  26.6165872  46.2557373  46.6386326  26.1225872  45.5017373  47.2526326
  26.2015872  47.2277373  46.9096326  26.3165872  45.9867373  45.1516326
  26.4555872  46.9117373  44.5966326  27.0125872  45.2387373  44.7686326
  24.8985872  45.4817373  44.8826326  24.8255872  45.2517373  43.8206326
  24.7535872  44.5607373  45.4466326  23.8135872  46.5027373  45.2466326
  23.9015872  46.7507373  46.3086326  23.9805872  47.4147373  44.6676326
  22.4615872  45.9587373  44.9686326  22.2505872  45.1767373  45.5936326
  21.7295872  46.6557373  45.0756326  22.3845872  45.6037373  44.0316326
  28.6655872  44.8037373  47.0056326  28.3055872  44.0537373  47.8986326
  29.5635872  44.3937373  46.0376326  29.8045872  45.0737373  45.3216326
  30.1585872  43.0477373  45.9826326  29.3645872  42.3217373  46.1456326
  30.7735872  42.7947373  44.5886326  31.5715872  43.5217373  44.4296326
  31.2325872  41.8047373  44.5956326  29.8125872  42.8577373  43.3836326
  29.3905872  43.8577373  43.2986326  30.5905872  42.5397373  42.1056326
  31.0095872  41.5267373  42.1406326  29.9405872  42.6127373  41.2256326
  31.4195872  43.2447373  41.9806326  28.6675872  41.8497373  43.4636326
  28.0245872  42.0567373  44.3266326  28.0485872  41.9167373  42.5616326
  29.0525872  40.8257373  43.5356326  31.2055872  42.7747373  47.0866326
  31.6645872  41.6537373  47.2216326  31.6255872  43.8237373  47.8816326
  31.1855872  44.7207373  47.7256326  32.7075872  43.7307373  48.8606326
  33.5985872  43.4267373  48.3156326  32.9615872  45.1367373  49.4156326
  32.0695872  45.5197373  49.9286326  33.7895872  45.1247373  50.1346326
  33.2205872  45.8347373  48.6076326  32.4275872  42.7097373  49.9976326
  31.4075872  42.8157373  50.6656326  33.3785872  41.7277373  50.2866326
  34.6375872  41.5277373  49.5646326  35.1965872  42.4657373  49.5076326
  34.4215872  41.1507373  48.5556326  35.4205872  40.4817373  50.3706326
  36.0855872  40.9857373  51.0826326  36.0285872  39.8347373  49.7256326
  34.3545872  39.6957373  51.1446326  34.7325872  39.2917373  52.0936326
  33.9935872  38.8637373  50.5296326  33.2285872  40.7237373  51.3406326
  32.2805872  40.2177373  51.2176326  33.2415872  41.3537373  52.7336326
  34.2045872  41.9917373  53.1286326  32.1245872  41.1177373  53.5106326
  31.3935872  40.5697373  53.0716326  31.8815872  41.6637373  54.8536326
  32.8475872  41.9477373  55.2696326  31.0495872  42.9577373  54.7546326
  30.9445872  43.3857373  55.7526326  31.5995872  43.6727373  54.1396326
  29.6505872  42.7477373  54.1516326  29.7405872  42.3617373  53.1356326
  29.1145872  42.0167373  54.7576326  28.8095872  44.0277373  54.1126326
  27.7995872  43.7457373  53.8196326  28.7605872  44.4557373  55.1156326
  29.3425872  45.0737373  53.1226326  30.3115872  45.4357373  53.4756326
  29.4825872  44.5987373  52.1456326  28.3865872  46.1997373  53.0036326
  28.1465872  46.5627373  53.9226326  28.7445872  46.9867373  52.4686326
  27.5205872  45.8857373  52.5676326  31.2935872  40.6237373  55.8186326
  30.6715872  39.6567373  55.4016326  31.5135872  40.8697373  57.1546326
  32.0245872  41.7177373  57.3566326  31.3385872  39.9007373  58.2406326
  31.1395872  40.4417373  59.1646326  30.4935872  39.2437373  58.0326326
  32.5985872  39.0467373  58.4186326  33.0895872  38.4697373  57.4656326
  33.1715872  38.9927373  59.6756326  32.6705872  39.4687373  60.4196326
  34.5845872  38.6187373  59.9046326  35.2085872  39.3387373  59.3736326
  34.9535872  38.7107373  61.4006326  34.2985872  38.0487373  61.9696326
  36.4075872  38.3037373  61.6726326  37.1045872  38.9137373  61.0846326
  36.6535872  38.4297373  62.7346326  36.5855872  37.2497373  61.4236326
  34.7715872  40.1447373  61.9166326  33.7225872  40.4607373  61.8616326
  35.0795872  40.2157373  62.9676326  35.3785872  40.8517373  61.3366326
  34.9475872  37.2457373  59.3296326  35.8865872  37.1417373  58.5636326
  34.1395872  36.1707373  59.6386326  33.3725872  36.3397373  60.2746326
  34.3835872  34.8097373  59.1506326  35.3795872  34.4997373  59.4726326
  33.3515872  33.8787373  59.7996326  32.3305872  34.1467373  59.4976326
  33.5325872  32.8387373  59.4946326  33.4175872  33.9227373  60.8936326
  34.3505872  34.6967373  57.6116326  35.0015872  33.8367373  57.0446326
  33.5955872  35.6137373  56.9096326  33.1045872  36.3217373  57.4426326
  33.5445872  35.6957373  55.4536326  33.4535872  34.6887373  55.0496326
  32.3255872  36.5287373  55.0176326  32.5865872  37.5877373  55.0526326
  32.0885872  36.2677373  53.9866326  30.8475872  36.2867373  56.0566326
  30.4535872  37.5707373  56.0106326  34.8325872  36.3197373  54.8946326
  35.4245872  35.8167373  53.9526326  35.2925872  37.4577373  55.5276326
  34.7285872  37.8107373  56.2986326  36.5175872  38.1687373  55.1676326
  36.4775872  38.4347373  54.1106326  36.6225872  39.4527373  56.0076326
  36.7445872  39.1777373  57.0576326  37.5025872  40.0177373  55.6976326
  35.1445872  40.4987373  55.8506326  35.3175872  40.9287373  54.5886326
  37.7705872  37.3067373  55.3836326  38.6945872  37.3877373  54.5976326
  37.7895872  36.4337373  56.4536326  36.9855872  36.4927373  57.0786326
  38.9585872  35.6767373  56.9336326  39.6795872  36.3867373  57.3396326
  38.4925872  34.7577373  58.0796326  37.8415872  35.3157373  58.7526326
  37.8965872  33.9507373  57.6506326  39.6235872  34.1297373  58.9146326
  39.1715872  33.4007373  59.5906326  40.2975872  33.5777373  58.2566326
  40.4215872  35.1377373  59.7616326  41.5515872  34.7997373  60.1786326
  39.9135872  36.2397373  60.0726326  39.6725872  34.8627373  55.8356326
  40.8745872  34.6687373  55.8926326  38.9235872  34.4007373  54.7636326
  37.9285872  34.6087373  54.8056326  39.4815872  33.6667373  53.6086326
  40.5645872  33.7337373  53.6866326  39.1235872  32.1737373  53.6976326
  38.0405872  32.0677373  53.7406326  39.4875872  31.6637373  52.8036326
  39.7535872  31.4907373  54.9246326  40.8365872  31.6247373  54.8976326
  39.3635872  31.9367373  55.8396326  39.4245872  29.9947373  54.9206326
  38.3385872  29.8817373  54.9486326  39.7825872  29.5497373  53.9896326
  40.0005872  29.2857373  56.0816326  39.4235872  29.2237373  56.9026326
  41.1615872  28.6557373  56.1296326  42.0355872  28.7097373  55.1666326
  41.9025872  29.3387373  54.3816326  42.9325872  28.2287373  55.2736326
  41.4625872  27.9167373  57.1576326  40.8225872  27.7847373  57.9216326
  42.3265872  27.3717373  57.1266326  39.1795872  34.3017373  52.2406326
  39.4265872  33.6907373  51.2146326  38.6875872  35.5847373  52.2276326
  38.5575872  36.0137373  53.1416326  38.5095872  36.4307373  51.0426326
  39.2115872  36.0977373  50.2766326  37.0785872  36.2567373  50.4846326
  36.8185872  35.1997373  50.4966326  36.3665872  36.7807373  51.1236326
  36.9085872  36.7437373  49.0486326  37.8005872  37.2717373  48.4176326
  35.7095872  36.5237373  48.4576326  35.6215872  36.7867373  47.4756326
  34.9905872  36.0307373  48.9596326  38.8935872  37.8827373  51.4006326
  38.1045872  38.8057373  51.2906326  40.1475872  38.0707373  51.9516326
  40.7625872  37.2647373  51.9716326  40.6225872  39.3507373  52.4806326
  39.8475872  39.7567373  53.1316326  41.8885872  39.1507373  53.3296326
  42.6075872  38.5327373  52.7956326  42.3435872  40.1227373  53.5136326
  41.5965872  38.5027373  54.6866326  40.7215872  38.9817373  55.1266326
  41.3705872  37.4457373  54.5366326  42.9625872  38.6567373  55.8686326
  42.2885872  37.6887373  57.2486326  42.1335872  36.6467373  56.9416326
  42.9855872  37.7007373  58.0946326  41.3305872  38.1087373  57.5786326
  40.8425872  40.3537373  51.3386326  41.7235872  40.1717373  50.5106326
  39.9905872  41.4367373  51.3116326  39.3205872  41.4587373  52.0686326
  39.7685872  42.3767373  50.2046326  39.4615872  41.7947373  49.3346326
  38.5865872  43.2747373  50.6366326  37.7395872  42.6277373  50.8666326
  38.8685872  43.7847373  51.5596326  38.1075872  44.3487373  49.6386326
  38.8905872  45.0897373  49.4856326  37.7035872  43.7597373  48.2866326
  36.9365872  42.9887373  48.3976326  37.3215872  44.5437373  47.6246326
  38.5675872  43.3017373  47.7976326  36.8965872  45.0707373  50.2276326
  37.1675872  45.5747373  51.1626326  36.5225872  45.8307373  49.5316326
  36.0835872  44.3677373  50.4416326  40.9945872  43.2067373  49.7706326
  40.9635872  43.8157373  48.7166326  42.1205872  43.2447373  50.5756326
  42.0225872  42.7757373  51.4766326  43.2675872  44.1517373  50.3586326
  42.8725872  45.1607373  50.4776326  44.3275872  43.9617373  51.4656326
  44.9615872  44.8497373  51.4816326  43.8295872  43.9257373  52.4336326
  45.2665872  42.7477373  51.3486326  45.9425872  42.9037373  50.5086326
  45.8645872  42.7007373  52.2566326  44.5725872  41.3947373  51.1926326
  43.8175872  41.2947373  51.9746326  44.0855872  41.3487373  50.2176326
  45.5405872  40.2927373  51.3136326  46.4685872  40.5077373  51.6746326
  45.3105872  39.0127373  51.1026326  44.1615872  38.5747373  50.6826326
  43.4215872  39.2337373  50.4836326  43.9415872  37.5887373  50.6536326
  46.2775872  38.1817373  51.3306326  47.1445872  38.5767373  51.6816326
  46.1905872  37.1777373  51.2196326  43.8915872  44.1527373  48.9526326
  44.5365872  45.1267373  48.6076326  43.6755872  43.0987373  48.0926326
  43.0425872  42.3787373  48.4196326  44.0715872  43.0897373  46.6806326
  44.3545872  44.0967373  46.3746326  45.2845872  42.1687373  46.4636326
  44.9705872  41.1437373  46.6956326  45.5345872  42.1737373  45.3946326
  46.5635872  42.4507373  47.2436326  47.4315872  43.4897373  46.8526326
  47.1625872  44.1377373  46.0296326  48.6715872  43.6567373  47.5046326
  49.3535872  44.4307373  47.1876326  49.0415872  42.7907373  48.5566326
  50.2525872  42.9257373  49.1646326  50.5545872  42.0637373  49.5156326
  48.1615872  41.7627373  48.9586326  48.4245872  41.1087373  49.7746326
  46.9335872  41.5877373  48.2936326  46.2765872  40.7747373  48.5766326
  42.9185872  42.6337373  45.7676326  42.4595872  41.5087373  45.8656326
  42.5155872  43.4987373  44.7726326  42.8595872  44.4557373  44.8236326
  41.6195872  43.1577373  43.6566326  41.5455872  42.0737373  43.5966326
  40.1935872  43.7127373  43.8486326  40.2185872  44.7977373  43.7446326
  39.2355872  43.1487373  42.7936326  39.0935872  42.0697373  42.9296326
  38.2565872  43.6367373  42.8706326  39.6045872  43.3147373  41.7766326
  39.5965872  43.3797373  45.2176326  40.1745872  43.8557373  46.0196326
  38.5655872  43.7457373  45.2896326  39.5955872  42.2967373  45.3936326
  42.2145872  43.6757373  42.3476326  42.5465872  44.8447373  42.2326326
  42.3465872  42.7787373  41.3146326  41.9875872  41.8397373  41.4856326
  42.9435872  43.0767373  40.0046326  43.3655872  44.0807373  40.0276326
  44.0935872  42.0877373  39.6966326  43.6505872  41.1027373  39.5376326
  44.8335872  42.4707373  38.4026326  45.1825872  43.5097373  38.4286326
  45.7065872  41.8257373  38.2476326  44.1875872  42.3527373  37.5236326
  45.1125872  41.9357373  40.8526326  44.6075872  41.5307373  41.7306326
  45.8545872  41.1957373  40.5556326  45.8485872  43.2197373  41.2656326
  45.1475872  43.9777373  41.6336326  46.5605872  43.0007373  42.0706326
  46.4105872  43.6437373  40.4256326  41.8665872  43.0587373  38.9126326
  40.9485872  42.2557373  38.9666326  41.9965872  43.9567373  37.8776326
  42.8025872  44.5807373  37.9116326  41.1685872  43.9687373  36.6746326
  40.4605872  43.1407373  36.7206326  40.3725872  45.2737373  36.6156326
  41.0455872  46.1397373  36.5906326  39.7475872  45.2987373  35.7156326
  39.7175872  45.3637373  37.4856326  42.0125872  43.7937373  35.4056326
  43.0215872  44.4617373  35.2376326  41.5175872  42.9287373  34.4556326
  40.6775872  42.4107373  34.7116326  42.1265872  42.6447373  33.1566326
  42.9635872  43.3237373  32.9956326  42.6595872  41.2067373  33.1256326
  41.8095872  40.5227373  33.0056326  43.2745872  41.0907373  32.2266326
  43.4675872  40.7317373  34.3246326  44.8655872  40.8997373  34.3456326
  45.3575872  41.4367373  33.5456326  45.6225872  40.3627373  35.4046326
  46.6945872  40.4837373  35.4236326  44.9775872  39.6647373  36.4466326
  45.7075872  39.0917373  37.4356326  46.5805872  38.7727373  37.0956326
  43.5735872  39.5327373  36.4476326  43.0885872  39.0057373  37.2556326
  42.8205872  40.0617373  35.3826326  41.7455872  39.9437373  35.3726326
  41.1015872  42.8377373  32.0296326  39.9975872  42.3207373  32.1076326
  41.4495872  43.5967373  30.9356326  42.4035872  43.9627373  30.9106326
  40.5375872  43.8467373  29.8096326  39.5235872  43.6487373  30.1546326
  40.5465872  45.3397373  29.4316326  39.7215872  45.5237373  28.7406326
  40.3465872  45.9257373  30.3306326  41.8315872  45.8507373  28.7776326
  42.3595872  45.1727373  27.8736326  42.2605872  46.9757373  29.1136326
  40.7505872  42.8877373  28.6176326  41.7025872  42.1227373  28.5546326
  39.7925872  42.9267373  27.6166326  39.0385872  43.5927373  27.7436326
  39.8155872  42.0877373  26.4026326  39.9165872  41.0457373  26.7076326
  38.4865872  42.2347373  25.6376326  38.4445872  41.4637373  24.8656326
  37.6585872  42.0677373  26.3276326  38.3065872  43.6087373  24.9716326
  38.3235872  44.3897373  25.7316326  39.1135872  43.7827373  24.2626326
  36.9865872  43.6617373  24.2026326  37.0515872  42.9577373  23.3746326
  36.1735872  43.3517373  24.8626326  36.7075872  45.0137373  23.6856326
  37.3745872  45.7537373  23.8756326  35.6225872  45.3887373  23.0376326
  34.6925872  44.5667373  22.6636326  34.9185872  43.5767373  22.6226326
  33.9345872  44.9397373  22.1136326  35.4415872  46.6367373  22.7466326
  36.1855872  47.2927373  22.9646326  34.6005872  46.9097373  22.2486326
  41.0095872  42.3457373  25.4756326  41.2325872  41.5787373  24.5566326
  41.7765872  43.4687373  25.7006326  41.5625872  44.0027373  26.5446326
  42.9645872  43.8837373  24.9476326  43.1175872  43.1807373  24.1316326
  42.7505872  45.3017373  24.3816326  42.5555872  45.9877373  25.2076326
  43.6665872  45.6297373  23.8886326  41.5995872  45.4357373  23.3706326
  40.6505872  45.3947373  23.9036326  41.6675872  46.4217373  22.9106326
  41.5995872  44.3647373  22.2666326  41.3035872  43.4087373  22.6946326
  40.8515872  44.6177373  21.5156326  42.9655872  44.1917373  21.5946326
  43.7205872  43.9457373  22.3446326  42.8995872  43.3507373  20.9046326
  43.3655872  45.4077373  20.8596326  43.5305872  46.2037373  21.4736326
  44.2375872  45.2647373  20.3596326  42.6595872  45.6557373  20.1756326
  44.2475872  43.7627373  25.7766326  45.2455872  44.3707373  25.4416326
  44.2105872  42.9287373  26.8726326  43.3035872  42.5457373  27.1106326
  45.3515872  42.6027373  27.7276326  44.9645872  41.9747373  28.5286326
  46.3735872  41.7557373  26.9466326  46.9455872  42.4267373  26.2946326
  47.0955872  41.3227373  27.6476326  45.7885872  40.6317373  26.0936326
  46.2085872  40.4787373  24.7576326  46.9615872  41.1407373  24.3486326
  45.6565872  39.4657373  23.9506326  45.9815872  39.3507373  22.9286326
  44.6715872  38.6047373  24.4786326  44.1045872  37.6487373  23.6956326
  44.7165872  37.3787373  22.9636326  44.2455872  38.7587373  25.8136326
  43.4895872  38.1017373  26.2116326  44.8145872  39.7597373  26.6236326
  44.4965872  39.8597373  27.6496326  45.9565872  43.8247373  28.4416326
  47.1155872  43.8137373  28.8226326  45.1355872  44.9117373  28.6556326
  44.1795872  44.8427373  28.3016326  45.4225872  45.9377373  29.6526326
  46.4865872  46.1617373  29.6166326  44.8675872  46.8467373  29.4336326
  45.0615872  45.4737373  31.0656326  44.2005872  44.6217373  31.2426326
  45.7485872  46.0547373  32.1086326  46.4255872  46.7797373  31.8746326
  45.6735872  45.6017373  33.4986326  44.7235872  45.0937373  33.6546326
  46.7985872  44.5787373  33.7106326  46.6625872  43.7577373  33.0046326
  47.7605872  45.0537373  33.5036326  46.8225872  43.9067373  35.3966326
  47.9235872  43.1657373  35.2286326  45.7535872  46.7657373  34.4996326
  46.4645872  47.7317373  34.2736326  45.0255872  46.6557373  35.6726326
  44.4595872  45.8097373  35.7676326  45.1985872  47.5377373  36.8396326
  46.2505872  47.8217373  36.8746326  44.3745872  48.8387373  36.6936326
  44.6455872  49.4917373  37.5246326  44.6655872  49.3467373  35.7726326
  42.8435872  48.6507373  36.6976326  42.5195872  48.2717373  35.7276326
  42.5735872  47.9147373  37.4516326  42.0685872  49.9357373  37.0436326
  41.0255872  49.6597373  37.2106326  42.4445872  50.3477373  37.9816326
  42.1015872  50.9597373  35.9826326  41.3165872  50.9917373  35.3406326
  42.9245872  51.9847373  35.8596326  43.9115872  52.1947373  36.6766326
  44.0325872  51.6117373  37.4786326  44.4095872  53.0877373  36.6116326
  42.7395872  52.8337373  34.8946326  41.9155872  52.7547373  34.3206326
  43.4115872  53.5937373  34.7556326  44.8915872  46.8367373  38.1626326
  44.0885872  45.9217373  38.2186326  45.4665872  47.3797373  39.2866326
  46.1025872  48.1467373  39.1326326  44.7925872  47.3097373  40.5856326
  44.5815872  46.2677373  40.8326326  45.6995872  47.8977373  41.6776326
  46.6265872  47.3287373  41.6666326  45.9365872  48.9327373  41.4256326
  45.1165872  47.8607373  43.1006326  43.9725872  47.4017373  43.3106326
  45.8215872  48.2577373  44.0526326  43.4645872  48.0707373  40.4756326
  43.4265872  49.2017373  40.0156326  42.3325872  47.4057373  40.8706326
  42.4725872  46.4787373  41.2776326  40.9805872  47.9687373  40.8176326
  41.0565872  48.9807373  40.4226326  40.1265872  47.1647373  39.8196326
  40.7545872  46.9417373  38.9576326  39.6315872  45.8337373  40.3896326
  39.0495872  45.9717373  41.3076326  38.9935872  45.3167373  39.6656326
  40.4815872  45.1807373  40.6106326  38.9425872  47.9707373  39.2856326
  39.2935872  48.8977373  38.8196326  38.4055872  47.3917373  38.5226326
  38.2315872  48.2277373  40.0766326  40.3685872  48.1157373  42.2136326
  39.2525872  48.5847373  42.3446326  41.1365872  47.7637373  43.3086326
  42.0825872  47.4347373  43.1006326  40.6655872  47.6907373  44.7046326
  39.9455872  46.8777373  44.7816326  41.8275872  47.3837373  45.6706326
  42.4495872  48.2707373  45.7686326  41.3465872  46.9527373  47.0546326
  40.7015872  46.0667373  46.9846326  42.1995872  46.7027373  47.6966326
  40.7815872  47.7527373  47.5426326  42.6425872  46.3347373  45.2006326
  43.1625872  46.7077373  44.4046326  39.9555872  48.9767373  45.1426326
  38.9635872  48.9157373  45.8416326  40.3815872  50.1847373  44.6136326
  41.2005872  50.1227373  44.0206326  39.7315872  51.4967373  44.8096326
  39.7715872  51.7427373  45.8716326  40.5585872  52.5437373  44.0226326
  41.4725872  52.7457373  44.5816326  40.8625872  52.0917373  43.0766326
  39.9075872  53.8907373  43.6566326  40.6495872  54.4967373  43.1356326
  39.1035872  53.6927373  42.9456326  39.3225872  54.7327373  44.7986326
  38.7765872  55.5537373  44.3376326  38.5945872  54.1577373  45.3566326
  40.3225872  55.2997373  45.7206326  41.1125872  55.8197373  45.3376326
  40.1895872  55.4097373  47.0296326  39.3065872  54.7517373  47.7276326
  38.7485872  54.0257373  47.3106326  39.2535872  54.9047373  48.7306326
  40.9855872  56.2107373  47.6536326  41.7145872  56.6497373  47.0956326
  41.0375872  56.2497373  48.6726326  38.2285872  51.5027373  44.4756326
  37.4795872  52.1837373  45.1476326  37.7245872  50.7067373  43.4646326
  38.3845872  50.0967373  42.9846326  36.2795872  50.6157373  43.1596326
  35.8545872  51.6107373  43.3026326  36.0605872  50.1947373  41.6956326
  36.9565872  50.4047373  41.1066326  35.8725872  49.1217373  41.6546326
  34.8765872  50.9547373  41.0676326  34.0705872  51.0487373  41.7946326
  35.2095872  51.9597373  40.8076326  34.2945872  50.2747373  39.8186326
  33.7005872  49.4197373  40.1456326  33.6235872  50.9637373  39.3026326
  35.3235872  49.7727373  38.8966326  35.4235872  48.7577373  38.8426326
  36.1625872  50.4287373  38.1256326  36.2045872  51.7207373  37.9906326
  35.5485872  52.2947373  38.4756326  36.8585872  52.0707373  37.2956326
  37.0235872  49.7807373  37.4256326  36.9065872  48.7687373  37.3146326
  37.6205872  50.3097373  36.8006326  35.4965872  49.7037373  44.1196326
  34.2835872  49.6437373  44.0316326  36.2005872  48.9877373  45.0586326
  37.2075872  49.1017373  45.0386326  35.6465872  47.9777373  45.9686326
  34.5595872  47.9727373  45.8746326  36.1475872  46.5907373  45.5256326
  37.2405872  46.5447373  45.6206326  35.7425872  45.8297373  46.2056326
  35.7385872  46.2487373  44.0956326  34.4685872  45.6967373  43.8506326
  33.8365872  45.4097373  44.6806326  34.0015872  45.5497373  42.5306326
  33.0155872  45.1497373  42.3536326  34.8165872  45.9317373  41.4436326
  34.3535872  45.8127373  40.1686326  34.9635872  46.2697373  39.5036326
  36.1205872  46.4087373  41.6856326  36.7515872  46.6677373  40.8496326
  36.5775872  46.5707373  43.0096326  37.5615872  46.9737373  43.1956326
  35.9435872  48.2777373  47.4496326  35.2405872  47.7877373  48.3136326
  36.9475872  49.1757373  47.7526326  37.5275872  49.4817373  46.9786326
  37.3235872  49.6217373  49.0876326  36.5315872  49.3367373  49.7816326
  38.6015872  48.8907373  49.5156326  39.4415872  49.1767373  48.8696326
  38.8635872  49.1437373  50.5506326  38.4685872  47.8027373  49.4516326
  37.4915872  51.1517373  49.1636326  38.1435872  51.7807373  48.3436326
  36.8885872  51.7557373  50.2416326  36.3205872  51.1547373  50.8246326
  36.8895872  53.1897373  50.5356326  36.6285872  53.7407373  49.6306326
  35.7785872  53.3967373  51.5746326  34.8585872  53.0357373  51.1166326
  35.9755872  52.7767373  52.4516326  35.5385872  54.8367373  52.0486326
  36.3295872  55.1367373  52.7356326  35.5525872  55.5047373  51.1876326
  34.1815872  54.9817373  52.7416326  33.4355872  54.0467373  52.9416326
  33.7725872  56.2107373  53.1306326  32.8385872  56.2607373  53.5286326
  34.4205872  56.9907373  53.0676326  38.2605872  53.6917373  51.0226326
  38.8225872  54.6227373  50.4716326  38.8265872  53.0047373  52.0696326
  38.2605872  52.2607373  52.4526326  40.0125872  53.3947373  52.8376326
  40.0725872  54.4837373  52.8646326  39.7975872  52.8967373  54.2746326
  39.9285872  51.8067373  54.2896326  40.5765872  53.3167373  54.9216326
  38.4545872  53.1987373  54.8766326  37.4735872  52.2927373  55.0966326
  37.5445872  51.2297373  54.8886326  36.3695872  52.9147373  55.6416326
  35.5295872  52.4117373  55.9186326  36.5885872  54.2647373  55.8156326
  35.8065872  55.3027373  56.3426326  34.8075872  55.1007373  56.7026326
  36.3465872  56.5977373  56.4186326  35.7635872  57.4067373  56.8436326
  37.6515872  56.8387373  55.9546326  38.0695872  57.8367373  56.0206326
  38.4265872  55.7927373  55.4156326  39.4335872  55.9917373  55.0736326
  37.9185872  54.4777373  55.3376326  41.3245872  52.8827373  52.2076326
  42.0525872  52.1077373  52.8086326  41.6005872  53.2487373  50.9076326
  41.0195872  53.9857373  50.5186326  42.7385872  52.7297373  50.1376326
  42.7365872  51.6477373  50.2166326  42.6075872  53.0927373  48.6536326
  42.2615872  54.1187373  48.5686326  43.5855872  53.0417373  48.1736326
  41.6505872  52.1657373  47.9066326  40.6995872  52.1447373  48.4376326
  41.4775872  52.5957373  46.9226326  42.2285872  50.4557373  47.6846326
  43.6745872  50.6997373  46.6106326  44.4545872  51.2617373  47.1376326
  44.0935872  49.7287373  46.3156326  43.3885872  51.2487373  45.7046326
  44.0975872  53.2217373  50.6436326  44.9745872  52.4277373  50.9386326
  44.2895872  54.5807373  50.6836326  43.4535872  55.1527373  50.5486326
  45.5765872  55.2397373  50.9236326  46.3605872  54.6847373  50.4056326
  45.5135872  56.6587373  50.3386326  44.7205872  57.2307373  50.8206326
  46.4615872  57.1687373  50.5136326  45.2695872  56.6147373  48.8456326
  46.1805872  56.4907373  48.0596326  43.9905872  56.6347373  48.4106326
  43.8475872  56.5287373  47.4106326  43.2375872  56.6537373  49.1016326
  45.9445872  55.2537373  52.4096326  47.1135872  55.2387373  52.7526326
  44.8845872  55.2567373  53.2856326  43.9645872  55.3307373  52.8486326
  44.9405872  55.0467373  54.7266326  45.8345872  55.5347373  55.1166326
  43.7195872  55.7167373  55.3776326  43.7415872  55.5237373  56.4506326
  43.7775872  56.7947373  55.2166326  42.4915872  55.2397373  54.8456326
  42.3805872  55.5977373  53.8936326  45.0685872  53.5527373  55.0696326
  46.1655872  53.0297373  55.1696326  43.9105872  52.8207373  55.2596326
  43.0415872  53.3347373  55.1166326  43.8885872  51.4717373  55.8336326
  44.4555872  51.5227373  56.7586326  42.4595872  51.0217373  56.1846326
  41.8275872  51.0877373  55.3016326  42.4945872  49.9767373  56.4976326
  41.8485872  51.8407373  57.3316326  42.4895872  51.7287373  58.2026326
  41.8005872  52.8947373  57.0556326  40.4405872  51.3417373  57.6836326
  39.8005872  51.4337373  56.8076326  40.4855872  50.2857373  57.9566326
  39.7975872  52.1347373  58.8286326  39.8095872  53.2017373  58.5916326
  38.7505872  51.8257373  58.9146326  40.4675872  51.8907373  60.1246326
  41.4145872  52.2677373  60.1646326  39.9295872  52.2957373  60.8926326
  40.4985872  50.8997373  60.3396326  44.5835872  50.4417373  54.9446326
  45.5395872  49.8167373  55.3786326  44.0895872  50.2407373  53.6746326
  43.3305872  50.8607373  53.3886326  44.4935872  49.1217373  52.8036326
  44.3305872  48.1897373  53.3446326  43.6365872  49.0737373  51.5236326
  43.6875872  50.0427373  51.0426326  44.1225872  48.0337373  50.5086326
  44.2145872  47.0477373  50.9766326  43.4275872  47.9577373  49.6626326
  45.0985872  48.3197373  50.1026326  42.1725872  48.7507373  51.8486326
  41.7465872  49.4897373  52.5366326  41.5655872  48.7617373  50.9346326
  42.0845872  47.7597373  52.3116326  45.9835872  49.1737373  52.4696326
  46.6425872  48.1497373  52.5216326  46.5725872  50.3987373  52.1986326
  45.9425872  51.1997373  52.1176326  47.9975872  50.5667373  51.8696326
  48.1835872  50.0647373  50.9206326  48.3255872  52.0657373  51.6996326
  47.6985872  52.4847373  50.9116326  48.1275872  52.6007373  52.6306326
  49.8025872  52.2377373  51.3106326  50.4305872  51.9277373  52.1466326
  50.0085872  51.5927373  50.4586326  50.2275872  53.6537373  50.9296326
  49.6225872  53.9907373  50.0866326  50.0665872  54.3207373  51.7796326
  51.6595872  53.6207373  50.5746326  52.2075872  52.8827373  51.0046326
  52.2985872  54.3397373  49.6726326  51.7075872  55.2717373  48.9846326
  50.7365872  55.4537373  49.1226326  52.1785872  55.7077373  48.1896326
  53.5525872  54.0927373  49.4556326  54.0125872  53.3677373  49.9736326
  54.1135872  54.6577373  48.8056326  48.9255872  49.9077373  52.8966326
  49.9555872  49.3857373  52.5046326  48.5395872  49.9267373  54.2226326
  47.6595872  50.4017373  54.4116326  49.3195872  49.3957373  55.3526326
  50.3715872  49.5857373  55.1456326  48.9355872  50.2137373  56.5976326
  48.9265872  51.2707373  56.3206326  47.9325872  49.9407373  56.9206326
  49.9155872  50.0357373  57.7656326  49.7835872  49.0497373  58.2116326
  50.9385872  50.1287373  57.3976326  49.6725872  51.1157373  58.8266326
  49.8055872  52.0997373  58.3716326  48.6535872  51.0367373  59.2116326
  50.6685872  50.9587373  59.9766326  50.4545872  50.0327373  60.5186326
  51.6805872  50.8837373  59.5676326  50.5895872  52.1147373  60.8906326
  49.6445872  52.2407373  61.2476326  51.2195872  52.0007373  61.6846326
  50.8235872  52.9797373  60.4096326  49.1785872  47.8757373  55.5566326
  50.0245872  47.2657373  56.1896326  48.1075872  47.2307373  54.9646326
  47.5025872  47.8217373  54.3996326  47.8345872  45.7767373  54.9766326
  48.4935872  45.2857373  55.6976326  46.3805872  45.4817373  55.4106326
  45.6815872  45.9877373  54.7406326  46.2155872  44.4087373  55.3036326
  46.0495872  45.8357373  56.8746326  45.1835872  45.2437373  57.1726326
  46.8885872  45.5637373  57.5156326  45.7055872  47.3147373  57.0806326
  46.5465872  47.9197373  56.7546326  44.8345872  47.5547373  56.4686326
  45.4125872  47.6517373  58.4846326  45.2255872  46.8807373  59.1236326
  45.3235872  48.8737373  58.9746326  45.5755872  49.9157373  58.2486326
  45.7525872  49.8127373  57.2616326  45.4145872  50.8227373  58.6916326
  44.9835872  49.1437373  60.1956326  44.7765872  48.4097373  60.8696326
  44.8565872  50.1237373  60.4376326  48.1985872  45.1587373  53.6176326
  47.4115872  44.4817373  52.9856326  49.4275872  45.5157373  53.1066326
  50.0055872  46.0607373  53.7356326  49.9635872  45.2227373  51.7676326
  49.6765872  44.2157373  51.4606326  49.4355872  46.2627373  50.7626326
  49.4795872  47.2407373  51.2366326  50.1095872  46.2777373  49.9056326
  48.0255872  46.0687373  50.1946326  47.9455872  45.0817373  49.7456326
  47.2745872  46.1667373  50.9766326  47.8135872  47.1557373  49.1276326
  47.7045872  48.1217373  49.6226326  48.6915872  47.1937373  48.4796326
  46.6325872  46.8897373  48.2996326  45.9435872  46.2417373  48.6666326
  46.3765872  47.3437373  47.0886326  47.1515872  48.1647373  46.4466326
  47.9865872  48.5177373  46.8666326  46.8585872  48.4157373  45.4986326
  45.3065872  46.9727373  46.4646326  44.6435872  46.3577373  46.9126326
  45.1615872  47.3277373  45.5176326  51.4895872  45.3297373  51.7736326
  52.0625872  45.9747373  52.6316326  52.1525872  44.8247373  50.6756326
  51.5945872  44.2877373  50.0186326  53.5595872  45.1267373  50.3506326
  54.1705872  44.7497373  51.1716326  53.9575872  44.3697373  49.0576326
  53.7045872  43.3167373  49.1996326  53.1735872  44.8667373  47.8266326
  53.4485872  45.8967373  47.5616326  53.3975872  44.2347373  46.9586326
  52.0895872  44.8207373  47.9876326  55.4635872  44.4387373  48.7216326
  55.6345872  43.9207373  47.7756326  55.7745872  45.4747373  48.5916326
  56.3565872  43.7737373  49.7756326  56.0425872  42.7377373  49.9576326
  57.3975872  43.7577373  49.4306326  56.3265872  44.3227373  50.7246326
  53.8295872  46.6457373  50.2546326  54.9085872  47.1067373  50.5696326
  52.7835872  47.4687373  49.8786326  51.9135872  47.0027373  49.6646326
  52.8135872  48.9407373  49.7496326  53.6915872  49.2177373  49.1656326
  51.5645872  49.4337373  48.9976326  51.6005872  50.5197373  48.9066326
  51.4425872  48.8377373  47.5956326  51.2575872  47.7567373  47.6306326
  50.6145872  49.3127373  47.0546326  52.3585872  49.0087373  47.0236326
  50.3875872  49.0567373  49.6786326  50.4595872  49.3267373  50.6306326
  52.9335872  49.7097373  51.0746326  52.8645872  50.9327373  51.0676326
  53.0735872  48.9897373  52.2506326  53.0575872  47.9767373  52.1766326
  53.3085872  49.6037373  53.5656326  52.6415872  50.4617373  53.6536326
  52.9335872  48.6227373  54.6866326  52.8245872  49.1997373  55.6056326
  51.9645872  48.1877373  54.4416326  53.9325872  47.4787373  54.9396326
  54.1825872  46.9997373  53.9926326  54.8485872  47.8797373  55.3766326
  53.3385872  46.4177373  55.8816326  52.4285872  46.0197373  55.4296326
  54.0515872  45.5997373  55.9896326  53.0185872  46.9827373  57.2736326
  53.9585872  47.1707373  57.8036326  52.4845872  47.9287373  57.1726326
  52.1835872  46.0477373  58.0576326  52.6655872  45.1617373  58.2206326
  52.0895872  46.3657373  59.0266326  51.2715872  45.9067373  57.6516326
  54.7205872  50.1777373  53.7166326  54.9175872  51.0617373  54.5246326
  55.6925872  49.7097373  52.8606326  55.3975872  48.9787373  52.2256326
  56.8625872  50.4957373  52.4606326  56.9855872  51.3267373  53.1586326
  58.1335872  49.6337373  52.5266326  58.1375872  49.0907373  53.4736326
  58.1115872  48.9007373  51.7176326  59.4375872  50.4407373  52.4436326
  60.5145872  49.8077373  52.5166326  59.3925872  51.6867373  52.3316326
  56.6195872  51.0847373  51.0586326  55.9525872  50.4847373  50.2276326
  57.1695872  52.3097373  50.7666326  57.8475872  52.6687373  51.4416326
  56.9145872  53.0277373  49.5156326  55.8405872  53.0457373  49.3666326
  57.4105872  54.4737373  49.6326326  57.0585872  54.8977373  50.5736326
  58.5025872  54.4827373  49.6356326  56.8795872  55.3417373  48.4916326
  55.6885872  55.2167373  48.1186326  57.6535872  56.1417373  47.9276326
  57.4975872  52.3137373  48.2886326  56.8975872  52.3277373  47.2246326
  58.6325872  51.5437373  48.4706326  59.0545872  51.5717373  49.3936326
  59.1525872  50.6187373  47.4576326  59.5775872  51.1907373  46.6326326
  60.2595872  49.7457373  48.0756326  61.1465872  50.3637373  48.2676326
  59.9275872  49.3767373  49.0566326  60.6505872  48.5487373  47.2116326
  61.5205872  48.7167373  46.1176326  61.9625872  49.6837373  45.9216326
  61.8015872  47.6347373  45.2646326  62.4595872  47.7667373  44.4166326
  61.2085872  46.3817373  45.4986326  61.4005872  45.5607373  44.8246326
  60.3505872  46.2027373  46.5976326  59.8905872  45.2397373  46.7706326
  60.0755872  47.2837373  47.4546326  59.3995872  47.1467373  48.2866326
  58.0415872  49.7317373  46.8746326  57.9995872  49.5067373  45.6766326
  57.0715872  49.2637373  47.7386326  57.1035872  49.5947373  48.6996326
  56.0305872  48.3237373  47.3526326  56.4965872  47.4007373  47.0076326
  55.4285872  48.0977373  48.2296326  55.0995872  48.8357373  46.2536326
  54.6875872  48.0427373  45.4296326  54.7645872  50.1767373  46.1816326
  55.2205872  50.8127373  46.8336326  53.8905872  50.6987373  45.1096326
  53.1715872  49.9167373  44.8656326  53.0405872  51.8887373  45.5996326
  52.1845872  52.0067373  44.9336326  52.6295872  51.6127373  46.5716326
  53.7475872  53.2447373  45.7636326  53.3075872  53.7377373  46.6316326
  54.7995872  53.0797373  45.9856326  53.6185872  54.2047373  44.5676326
  53.9195872  55.4097373  44.7316326  53.2765872  53.7967373  43.4376326
  54.6635872  50.9547373  43.8056326  54.1805872  50.6197373  42.7346326
  55.9605872  51.4337373  43.9076326  56.2985872  51.6157373  44.8506326
  56.8805872  51.5687373  42.7636326  56.4175872  52.1987373  42.0046326
  58.2135872  52.2097373  43.2156326  58.5445872  51.7507373  44.1496326
  58.9655872  51.9767373  42.4606326  58.2125872  53.7467373  43.3746326
  59.2415872  54.0657373  43.5456326  57.8775872  54.1947373  42.4396326
  57.3495872  54.2877373  44.5246326  56.3165872  54.0057373  44.3456326
  57.6885872  53.8537373  45.4636326  57.4285872  55.8157373  44.6376326
  58.4185872  56.0977373  45.0066326  57.2885872  56.2487373  43.6436326
  56.3885872  56.3477373  45.5496326  56.5625872  56.0447373  46.5136326
  56.3865872  57.3527373  45.5736326  55.4575872  56.0177373  45.3026326
  57.1135872  50.2027373  42.0946326  57.0205872  50.0847373  40.8846326
  57.3545872  49.1257373  42.9196326  57.4595872  49.3357373  43.9106326
  57.4915872  47.7347373  42.4816326  58.2665872  47.6707373  41.7176326
  57.9325872  46.8847373  43.6816326  58.9355872  47.2037373  43.9946326
  57.2705872  47.0887373  44.5336326  57.9375872  45.4067373  43.4496326
  58.9405872  44.7177373  42.8676326  59.8685872  45.1557373  42.5226326
  58.5925872  43.3887373  42.7556326  59.2095872  42.6927373  42.3346326
  57.3235872  43.1547373  43.2406326  56.5255872  42.0057373  43.3266326
  56.9075872  41.0587373  42.9796326  55.2295872  42.1077373  43.8666326
  54.6005872  41.2307373  43.9386326  54.7605872  43.3497373  44.3286326
  53.7665872  43.4257373  44.7446326  55.5805872  44.4937373  44.2596326
  55.2215872  45.4377373  44.6396326  56.8765872  44.4297373  43.6996326
  56.2005872  47.1867373  41.8636326  56.2055872  46.6827373  40.7526326
  55.0305872  47.3397373  42.5746326  55.1055872  47.7557373  43.5016326
  53.7385872  46.8007373  42.1476326  53.8445872  45.7237373  42.0046326
  52.7445872  47.0397373  43.2876326  53.1205872  46.5337373  44.1846326
  52.7345872  48.1117373  43.5196326  51.3155872  46.5677373  43.0946326
  51.0275872  45.1967373  42.9456326  51.8295872  44.4747373  42.8866326
  49.6895872  44.7617373  42.9016326  49.4665872  43.7097373  42.7996326
  48.6425872  45.6927373  43.0096326  47.6135872  45.3597373  42.9836326
  48.9345872  47.0597373  43.1606326  48.1395872  47.7817373  43.2596326
  50.2665872  47.4967373  43.1966326  50.4795872  48.5487373  43.3276326
  53.2775872  47.3937373  40.8066326  52.7475872  46.6767373  39.9746326
  53.5905872  48.7107373  40.5116326  53.9945872  49.2697373  41.2666326
  53.3905872  49.3117373  39.1816326  52.3445872  49.1797373  38.8996326
  53.6835872  50.8167373  39.2556326  52.9575872  51.2637373  39.9356326
  54.6835872  50.9667373  39.6656326  53.5905872  51.5217373  37.8866326
  54.4255872  51.2037373  37.2596326  52.6625872  51.2257373  37.3956326
  53.6115872  53.0547373  37.9786326  53.5945872  53.4617373  36.9656326
  52.7045872  53.4007373  38.4786326  54.8065872  53.5697373  38.6746326
  55.6165872  53.8157373  38.1196326  54.9005872  53.8877373  39.9506326
  53.9385872  53.6697373  40.7956326  53.0645872  53.3087373  40.4756326
  54.0295872  53.8487373  41.7966326  55.9865872  54.4427373  40.3836326
  56.7085872  54.6457373  39.7006326  55.9405872  54.9287373  41.2736326
  54.2135872  48.6197373  38.0906326  53.7025872  48.4267373  36.9996326
  55.4975872  48.1937373  38.3716326  55.8405872  48.3617373  39.3146326
  56.3195872  47.4277373  37.4176326  56.2915872  47.9527373  36.4606326
  57.7905872  47.3907373  37.8886326  58.0645872  48.3767373  38.2656326
  57.9055872  46.6657373  38.6956326  58.7395872  47.0287373  36.7306326
  58.4875872  46.0267373  36.3786326  58.5805872  47.7237373  35.9046326
  60.2355872  47.0407373  37.0946326  60.4015872  46.3947373  37.9546326
  60.7845872  46.6317373  36.2466326  60.8155872  48.4227373  37.4086326
  60.4995872  49.1277373  36.6356326  60.4225872  48.7617373  38.3706326
  62.2975872  48.3687373  37.4516326  62.6785872  48.2097373  36.5186326
  62.7015872  49.2447373  37.7766326  62.6325872  47.5977373  38.0276326
  55.7185872  46.0357373  37.1556326  55.6455872  45.6207373  36.0146326
  55.1505872  45.3487373  38.2116326  55.2845872  45.7567373  39.1356326
  54.4105872  44.0747373  38.0636326  55.0515872  43.3697373  37.5346326
  54.0545872  43.4537373  39.4286326  53.4025872  44.1327373  39.9766326
  53.3315872  42.1067373  39.2836326  53.9575872  41.3807373  38.7486326
  53.0845872  41.6947373  40.2696326  52.3905872  42.2127373  38.7336326
  55.3025872  43.1957373  40.2736326  55.8545872  44.1197373  40.4786326
  55.0115872  42.7717373  41.2386326  55.9765872  42.4897373  39.7766326
  53.1385872  44.2377373  37.2206326  52.9025872  43.4507373  36.3226326
  52.3075872  45.3117373  37.4696326  52.5315872  45.8907373  38.2776326
  51.1295872  45.6317373  36.6436326  50.4755872  44.7607373  36.6166326
  50.3505872  46.8227373  37.2546326  51.0755872  47.6027373  37.4966326
  49.3455872  47.4467373  36.2686326  48.6785872  46.6867373  35.8406326
  48.7305872  48.2087373  36.7636326  49.8605872  47.9427373  35.4356326
  49.6315872  46.4437373  38.5716326  50.3465872  45.9857373  39.2546326
  49.2785872  47.3597373  39.0466326  48.4345872  45.4927373  38.4306326
  48.7315872  44.5407373  37.9766326  48.0075872  45.2817373  39.4186326
  47.6435872  45.9357373  37.8146326  51.5495872  45.8957373  35.1906326
  50.9135872  45.4037373  34.2776326  52.6945872  46.6317373  34.9676326
  53.1555872  47.0057373  35.7906326  53.2385872  46.9337373  33.6316326
  52.4635872  47.4277373  33.0476326  54.4345872  47.8957373  33.7256326
  55.2415872  47.4267373  34.2866326  54.9725872  48.3157373  32.3586326
  54.1725872  48.7447373  31.7416326  55.7615872  49.0697373  32.4756326
  55.4025872  47.4607373  31.8236326  54.0515872  49.0827373  34.3846326
  53.8525872  48.8557373  35.3276326  53.6325872  45.6587373  32.8786326
  53.3145872  45.5187373  31.7116326  54.2585872  44.6477373  33.5786326
  54.5175872  44.8417373  34.5436326  54.5815872  43.3337373  33.0146326
  55.2235872  43.4767373  32.1436326  55.3545872  42.5467373  34.0746326
  54.7115872  42.2957373  34.9266326  55.7205872  41.6097373  33.6416326
  56.2085872  43.1247373  34.4486326  53.3455872  42.5327373  32.5556326
  53.4585872  41.5967373  31.7806326  52.1175872  42.9167373  33.0476326
  52.1235872  43.6987373  33.6956326  50.8265872  42.3037373  32.7366326
  50.9865872  41.4537373  32.0736326  50.2005872  41.7807373  34.0436326
  50.0295872  42.6337373  34.7016326  49.2355872  41.3257373  33.8196326
  51.0735872  40.7477373  34.7846326  52.0685872  41.1507373  34.9706326
  50.4405872  40.4337373  36.1336326  49.4275872  40.0357373  36.0026326
  51.0445872  39.6957373  36.6756326  50.3895872  41.3447373  36.7416326
  51.2125872  39.4347373  34.0146326  51.7205872  39.5957373  33.0576326
  51.8085872  38.7197373  34.5906326  50.2335872  38.9907373  33.8156326
  49.9065872  43.2597373  31.9556326  48.7165872  43.0207373  31.8566326
  50.4755872  44.3677373  31.3606326  51.4735872  44.5027373  31.5066326
  49.7635872  45.3587373  30.5556326  48.7245872  45.0467373  30.4356326
  49.7595872  46.6967373  31.3096326  49.2735872  46.5677373  32.2846326
  50.7925872  47.0067373  31.5096326  49.0595872  47.7947373  30.5596326
  47.6945872  48.0907373  30.6146326  47.4835872  49.0207373  29.6716326
  46.5145872  49.4357373  29.4266326  48.6295872  49.3047373  29.0326326
  48.7225872  49.8357373  28.1686326  49.6335872  48.5457373  29.5796326
  50.6625872  48.4827373  29.2496326  50.3935872  45.4497373  29.1566326
  51.5275872  45.8727373  28.9886326  49.6225872  45.0177373  28.0986326
  48.7005872  44.6597373  28.3466326  50.1545872  44.6867373  26.7676326
  51.1935872  45.0047373  26.7386326  50.1595872  43.1567373  26.5926326
  49.1665872  42.7487373  26.8096326  50.3885872  42.8997373  25.5506326
  51.1885872  42.4817373  27.4646326  52.5245872  42.3007373  27.1076326
  53.1355872  41.7957373  28.1906326  54.1915872  41.5637373  28.2556326
  52.2595872  41.6607373  29.1986326  52.5165872  41.3797373  30.1456326
  51.0245872  42.0907373  28.7616326  50.1155872  42.1677373  29.3406326
  49.5025872  45.4707373  25.6176326  49.3155872  44.9617373  24.5266326
  49.1645872  46.7857373  25.8796326  49.3865872  47.1177373  26.8116326
  48.5935872  47.7327373  24.9056326  49.0075872  47.5027373  23.9216326
  47.0645872  47.5527373  24.8446326  46.6705872  48.2217373  24.0776326
  46.8365872  46.5297373  24.5416326  46.3565872  47.8497373  26.1806326
  46.6185872  47.0877373  26.9156326  46.6615872  48.8237373  26.5576326
  44.8405872  47.8547373  25.9756326  44.5805872  48.5567373  25.1806326
  44.5475872  46.8567373  25.6616326  44.1015872  48.1997373  27.2016326
  43.5915872  47.4497373  27.6686326  43.9305872  49.3927373  27.7366326
  44.4585872  50.4917373  27.2716326  45.0655872  50.4807373  26.4626326
  44.2175872  51.3747373  27.7236326  43.1865872  49.4927373  28.7876326
  42.7485872  48.6377373  29.1346326  43.0345872  50.3957373  29.2436326
  48.9525872  49.1857373  25.2226326  49.2475872  49.5157373  26.3586326
  48.8005872  50.1217373  24.2236326  48.5545872  49.7707373  23.3066326
  48.8185872  51.5717373  24.4836326  49.7555872  51.8007373  24.9966326
  48.8025872  52.3277373  23.1406326  49.5485872  51.8917373  22.4716326
  47.8195872  52.2147373  22.6806326  49.1245872  53.8187373  23.3156326
  48.4395872  54.2377373  24.0416326  50.1395872  53.9327373  23.7006326
  48.9875872  54.6077373  22.0076326  49.8515872  54.3927373  21.3776326
  48.0855872  54.2987373  21.4776326  48.9185872  56.1177373  22.2646326
  49.7655872  56.4107373  22.8936326  49.0095872  56.6407373  21.3086326
  47.6435872  56.4967373  22.9226326  47.5525872  56.0437373  23.8306326
  47.6125872  57.4967373  23.1136326  46.8445872  56.2527373  22.3446326
  47.6615872  51.9757373  25.4266326  46.6035872  51.3597373  25.4226326
  47.8725872  53.0487373  26.2746326  48.7715872  53.5077373  26.1846326
  46.8195872  53.7017373  27.0806326  46.0535872  52.9567373  27.2926326
  47.3755872  54.1767373  28.4386326  48.2885872  54.7537373  28.2816326
  46.6345872  54.8227373  28.9096326  47.6535872  52.9907373  29.3876326
  46.7335872  52.4217373  29.5286326  48.3845872  52.3337373  28.9146326
  48.2055872  53.3827373  30.7726326  48.4945872  52.4657373  31.2906326
  49.1105872  53.9797373  30.6476326  47.2225872  54.0987373  31.6186326
  46.6345872  53.5497373  32.2276326  47.0235872  55.4037373  31.6746326
  47.7375872  56.2557373  31.0016326  48.5565872  55.9767373  30.5056326
  47.4495872  57.2357373  31.0706326  46.0815872  55.9227373  32.3946326
  45.5255872  55.3907373  33.0706326  45.9445872  56.9277373  32.3016326
  46.0775872  54.8047373  26.2996326  46.4695872  55.1917373  25.2096326
  44.9045872  55.2617373  26.8496326  44.6495872  54.8247373  27.7306326
  43.8265872  55.9317373  26.0986326  44.2425872  56.4357373  25.2256326
  42.8105872  54.8797373  25.6166326  42.0755872  55.3827373  25.0006326
  43.4025872  53.7497373  24.7786326  44.0065872  53.0657373  25.3876326
  42.5945872  53.1747373  24.3116326  44.0335872  54.1547373  23.9786326
  42.1415872  54.3197373  26.7246326  42.8065872  53.7377373  27.2146326
  43.0575872  56.9737373  26.9236326  43.1885872  57.0337373  28.1356326
  42.1375872  57.7677373  26.2536326  42.1115872  57.6687373  25.2396326
  41.1405872  58.6487373  26.9036326  41.6545872  59.1937373  27.6976326
  40.5935872  59.6867373  25.9026326  40.1235872  59.1747373  25.0606326
  39.8275872  60.2777373  26.4066326  41.6775872  60.6467373  25.3776326
  42.2715872  61.0217373  26.2116326  42.3395872  60.0957373  24.7086326
  41.0915872  61.8437373  24.6086326  41.9015872  62.3387373  24.0736326
  40.3695872  61.4767373  23.8776326  40.4175872  62.8607373  25.5446326
  39.6295872  62.3517373  26.1066326  41.1625872  63.2367373  26.2536326
  39.8165872  63.9927373  24.7996326  39.1515872  63.6537373  24.1116326
  39.3005872  64.6077373  25.4286326  40.5215872  64.5187373  24.2906326
  39.9945872  57.9017373  27.6216326  39.0935872  58.5417373  28.1406326
  40.0315872  56.5207373  27.6816326  40.7675872  56.0707373  27.1506326
  39.2825872  55.7127373  28.6616326  38.3975872  56.2637373  28.9826326
  38.8065872  54.3777373  28.0326326  39.6615872  53.8707373  27.5846326
  38.2165872  53.4337373  29.1026326  37.3535872  53.8957373  29.5956326
  37.8955872  52.4827373  28.6636326  38.9595872  53.1807373  29.8686326
  37.7775872  54.6777373  26.9186326  36.9645872  55.2717373  27.3336326
  38.2585872  55.2747373  26.1436326  37.1795872  53.4407373  26.2366326
  36.5605872  52.8587373  26.9286326  36.5355872  53.7497373  25.4066326
  37.9705872  52.7917373  25.8416326  40.1355872  55.4817373  29.9176326
  39.6545872  55.6567373  31.0236326  41.4515872  55.1087373  29.7406326
  41.7735872  55.0127373  28.7846326  42.3705872  54.8097373  30.8466326
  41.8935872  54.0727373  31.4946326  43.6765872  54.1957373  30.3246326
  44.2325872  54.9497373  29.7646326  44.2855872  53.8917373  31.1776326
  43.4475872  52.9807373  29.4336326  42.9015872  51.9637373  29.9006326
  43.8415872  53.0297373  28.2446326  42.6655872  56.0447373  31.7056326
  42.4105872  56.0257373  32.8936326  43.1455872  57.1827373  31.0846326
  43.3005872  57.1327373  30.0786326  43.4305872  58.4337373  31.8086326
  44.1275872  58.2217373  32.6206326  44.0665872  59.4767373  30.8686326
  43.5615872  59.4537373  29.9006326  43.9155872  60.4697373  31.2956326
  45.5745872  59.3017373  30.6676326  46.1975872  58.4497373  31.3336326
  46.1765872  60.0697373  29.8846326  42.1855872  59.0237373  32.4786326
  42.2915872  59.6567373  33.5086326  40.9625872  58.7737373  31.9026326
  40.9705872  58.1757373  31.0886326  39.6845872  59.1887373  32.4786326
  39.7485872  60.2397373  32.7636326  38.6345872  59.0487373  31.3696326
  38.8735872  59.7657373  30.5746326  38.7245872  58.0577373  30.9106326
  37.1875872  59.2467373  31.7786326  36.3955872  58.1247373  32.0906326
  36.8375872  57.1367373  32.0866326  35.0365872  58.2927373  32.4126326
  34.4285872  57.4377373  32.6586326  34.4675872  59.5857373  32.4186326
  33.1445872  59.7497373  32.6726326  32.6495872  58.8967373  32.5536326
  35.2665872  60.7067373  32.1156326  34.8225872  61.6897373  32.1306326
  36.6265872  60.5377373  31.7966326  37.2385872  61.4007373  31.5696326
  39.3415872  58.3957373  33.7556326  38.8895872  58.9627373  34.7356326
  39.6195872  57.0437373  33.7816326  40.0325872  56.6367373  32.9456326
  39.4705872  56.2187373  34.9846326  38.5055872  56.4457373  35.4376326
  39.4775872  54.7347373  34.5826326  38.6885872  54.5697373  33.8466326
  40.4345872  54.4897373  34.1216326  39.2335872  53.7967373  35.7756326
  40.0675872  53.8707373  36.4756326  38.3205872  54.1107373  36.2886326
  39.0905872  52.3367373  35.3366326  39.9025872  51.8487373  34.5166326
  38.1685872  51.6437373  35.8286326  40.5395872  56.5347373  36.0456326
  40.2175872  56.6697373  37.2146326  41.8415872  56.7077373  35.6286326
  42.0275872  56.5687373  34.6336326  42.9525872  57.0607373  36.5186326
  42.9485872  56.3657373  37.3586326  44.2855872  56.8807373  35.7716326
  44.2315872  57.3537373  34.7906326  45.0785872  57.3697373  36.3396326
  44.6455872  55.3977373  35.6336326  44.8585872  54.7487373  36.6806326
  44.6835872  54.8487373  34.5076326  42.8045872  58.4677373  37.1266326
  43.0645872  58.6517373  38.3046326  42.2765872  59.4827373  36.3526326
  42.1295872  59.2937373  35.3616326  41.9385872  60.8077373  36.8836326
  42.8355872  61.2217373  37.3456326  41.5065872  61.7317373  35.7276326
  42.3325872  61.8177373  35.0216326  40.6635872  61.2727373  35.2076326
  41.0895872  63.1517373  36.1486326  40.7665872  63.6967373  35.2616326
  40.2405872  63.1087373  36.8316326  42.2295872  63.9277373  36.7986326
  43.0015872  64.5987373  36.1456326  42.4025872  63.8277373  38.1386326
  43.1815872  64.3297373  38.5316326  41.7675872  63.2337373  38.6656326
  40.8555872  60.7187373  37.9706326  40.9215872  61.4347373  38.9596326
  39.8455872  59.7917373  37.8116326  39.8405872  59.2457373  36.9536326
  38.8255872  59.5577373  38.8316326  38.4705872  60.5287373  39.1756326
  37.6295872  58.8157373  38.2256326  37.2845872  59.3507373  37.3306326
  37.9355872  57.8167373  37.8946326  36.4735872  58.7047373  39.2086326
  35.7215872  59.8547373  39.5146326  35.9435872  60.7917373  39.0206326
  34.7075872  59.7977373  40.4876326  34.1485872  60.6877373  40.7326326
  34.4415872  58.5827373  41.1516326  33.4945872  58.5317373  42.1226326
  32.7995872  59.2387373  41.9946326  35.1915872  57.4277373  40.8436326
  34.9825872  56.5077373  41.3686326  36.2095872  57.4897373  39.8726326
  36.8055872  56.6167373  39.6516326  39.3785872  58.8217373  40.0636326
  39.0035872  59.1387373  41.1806326  40.3425872  57.8487373  39.8826326
  40.5905872  57.6097373  38.9226326  41.0505872  57.2087373  40.9976326
  40.3195872  56.7677373  41.6756326  41.9795872  56.0867373  40.4936326
  42.4985872  56.4157373  39.5866326  42.7685872  55.9487373  41.2446326
  41.3505872  54.7147373  40.2356326  42.1245872  53.5587373  40.4656326
  43.1525872  53.6567373  40.7896326  41.5765872  52.2787373  40.2686326
  42.1845872  51.4027373  40.4476326  40.2475872  52.1407373  39.8326326
  39.8275872  51.1577373  39.6766326  39.4745872  53.2867373  39.5826326
  38.4605872  53.1857373  39.2256326  40.0235872  54.5677373  39.7796326
  39.4225872  55.4367373  39.5596326  41.8265872  58.2547373  41.8156326
  41.6935872  58.2797373  43.0266326  42.5675872  59.2037373  41.1396326
  42.6635872  59.0797373  40.1306326  43.2515872  60.3267373  41.7896326
  43.9625872  59.9307373  42.5166326  44.0345872  61.1117373  40.7266326
  44.7665872  60.4407373  40.2566326  43.3545872  61.4207373  39.9236326
  44.7575872  62.3477373  41.2496326  46.0945872  62.2517373  41.6796326
  46.6095872  61.3017373  41.6396326  46.7625872  63.3887373  42.1706326
  47.7875872  63.3107373  42.5066326  46.0935872  64.6237373  42.2366326
  46.5995872  65.4967373  42.6256326  44.7595872  64.7237373  41.8046326
  44.2465872  65.6747373  41.8616326  44.0925872  63.5887373  41.3106326
  43.0625872  63.6707373  40.9966326  42.2755872  61.2347373  42.5586326
  42.5025872  61.5457373  43.7136326  41.1085872  61.6257373  41.9326326
  40.9965872  61.3567373  40.9576326  40.0855872  62.4647373  42.5716326
  40.5655872  63.3807373  42.9176326  39.0345872  62.8297373  41.5056326
  39.5255872  63.3807373  40.7016326  38.6465872  61.9037373  41.0806326
  37.8255872  63.6497373  41.9906326  37.1245872  63.7277373  41.1586326
  37.3115872  63.1217373  42.7926326  38.1405872  65.0707373  42.4606326
  39.2655872  65.4727373  42.6536326  37.0895872  65.9027373  42.6576326
  37.3005872  66.8397373  42.9936326  36.1525872  65.5657373  42.4646326
  39.4625872  61.7857373  43.8086326  39.1515872  62.4397373  44.7936326
  39.2995872  60.4127373  43.7856326  39.5375872  59.9457373  42.9106326
  38.8545872  59.6137373  44.9386326  37.9975872  60.1057373  45.3946326
  38.4545872  58.2057373  44.4786326  39.2285872  57.8257373  43.8116326
  38.4175872  57.5497373  45.3486326  37.1005872  58.1377373  43.7526326
  36.9105872  59.0627373  43.2066326  37.1565872  57.3287373  43.0226326
  35.9265872  57.8227373  44.6976326  35.0335872  57.6377373  44.0996326
  36.1465872  56.8977373  45.2346326  35.6535872  58.8937373  45.6786326
  36.0315872  58.7827373  46.6056326  34.9225872  59.9747373  45.4766326
  34.4015872  60.2687373  44.3246326  34.4665872  59.6197373  43.5576326
  33.8105872  61.0947373  44.2736326  34.6605872  60.7987373  46.4426326
  34.8415872  60.5447373  47.4076326  34.0705872  61.5957373  46.2336326
  39.9095872  59.5227373  46.0396326  39.5335872  59.5667373  47.1936326
  41.2335872  59.4107373  45.6886326  41.4385872  59.3267373  44.6956326
  42.3485872  59.4217373  46.6476326  42.1555872  58.6867373  47.4266326
  43.6665872  59.0477373  45.9436326  43.8385872  59.7307373  45.1116326
  44.4815872  59.1837373  46.6566326  43.7385872  57.6087373  45.4256326
  42.8545872  56.7767373  45.7536326  44.7575872  57.2637373  44.7876326
  42.4855872  60.7757373  47.3576326  42.5645872  60.8277373  48.5726326
  42.4085872  61.9157373  46.5876326  42.3915872  61.7877373  45.5756326
  42.3715872  63.2757373  47.1396326  43.2915872  63.4527373  47.6966326
  42.2815872  64.2727373  45.9666326  43.1715872  64.1707373  45.3436326
  41.4225872  63.9937373  45.3536326  42.1095872  65.7577373  46.3386326
  41.8245872  66.2877373  45.4286326  41.2855872  65.8777373  47.0426326
  43.3795872  66.3977373  46.9146326  43.7225872  67.5457373  46.5336326
  44.0625872  65.7717373  47.7566326  41.1975872  63.4467373  48.1156326
  41.3405872  64.0467373  49.1676326  40.0045872  62.8527373  47.7696326
  39.9875872  62.3777373  46.8736326  38.7845872  62.9137373  48.5816326
  38.7275872  63.9057373  49.0296326  37.5525872  62.7467373  47.6856326
  37.5215872  61.7277373  47.2966326  36.6545872  62.9267373  48.2776326
  37.5845872  63.6637373  46.5996326  38.2115872  63.2957373  45.9106326
  38.7535872  61.9057373  49.7476326  37.8615872  61.9727373  50.5776326
  39.7405872  60.9417373  49.8426326  40.4365872  60.9217373  49.1006326
  39.9335872  60.0787373  51.0176326  38.9565872  59.7727373  51.3926326
  40.7105872  58.8057373  50.6256326  40.1995872  58.3237373  49.7906326
  41.7145872  59.0817373  50.3046326  40.8285872  57.7947373  51.7816326
  41.2535872  58.2947373  52.6536326  39.8285872  57.4437373  52.0466326
  41.7125872  56.5857373  51.4426326  41.8795872  56.2367373  50.2476326
  42.2525872  55.9557373  52.3826326  40.6335872  60.8547373  52.1456326
  40.1905872  60.8157373  53.2816326  41.7155872  61.6397373  51.7996326
  41.9975872  61.6117373  50.8246326  42.3555872  62.6027373  52.6976326
  43.1765872  63.0887373  52.1716326  41.6235872  63.3717373  52.9486326
  42.9065872  62.0087373  54.0026326  43.4915872  60.9347373  54.0276326
  42.7655872  62.7977373  55.1266326  42.2015872  63.6337373  55.0116326
  43.1925872  62.4357373  56.4856326  44.1865872  61.9997373  56.4256326
  43.2735872  63.6927373  57.3956326  42.2755872  64.1187373  57.4856326
  43.7405872  63.3157373  58.8116326  44.7735872  62.9557373  58.7836326
  43.6915872  64.1737373  59.4906326  43.1095872  62.5367373  59.2556326
  44.2025872  64.7857373  56.8246326  45.2335872  64.4427373  56.8726326
  43.9525872  64.9757373  55.7816326  44.0985872  66.1257373  57.5586326
  44.4695872  66.0577373  58.5866326  44.7045872  66.8727373  57.0396326
  43.0605872  66.4817373  57.5776326  42.1955872  61.4187373  57.0766326
  41.0275872  61.7647373  57.2006326  42.6385872  60.1647373  57.4926326
  43.9655872  59.5987373  57.2246326  44.7665872  60.2587373  57.5746326
  44.0665872  59.4307373  56.1456326  43.9905872  58.2577373  57.9726326
  44.4035872  58.4017373  58.9756326  44.5995872  57.5037373  57.4626326
  42.5145872  57.8447373  58.0886326  42.3255872  57.1837373  58.9446326
  42.1865872  57.3397373  57.1716326  41.8005872  59.1977373  58.2066326
  40.8285872  59.1297373  57.7156326  41.5725872  59.5817373  59.6766326
  42.3775872  60.2387373  60.3116326  40.4315872  59.0877373  60.2576326
  39.8685872  58.4587373  59.6936326  39.9585872  59.3327373  61.6256326
  40.3385872  60.3007373  61.9506326  38.4175872  59.4057373  61.5936326
  38.0455872  59.6217373  62.5966326  38.1275872  60.2417373  60.9546326
  37.7355872  58.1337373  61.0636326  36.4875872  58.1177373  60.9816326
  38.4195872  57.1377373  60.7306326  40.4775872  58.2867373  62.6406326
  39.7655872  57.8927373  63.5496326  41.7405872  57.7707373  62.4446326
  42.2875872  58.1987373  61.7056326  42.3045872  56.6027373  63.1396326
  41.8545872  56.5027373  64.1286326  41.9615872  55.3497373  62.3276326
  40.8985872  55.1297373  62.4326326  42.1695872  55.5487373  61.2756326
  42.7145872  54.2247373  62.7196326  42.7745872  53.6247373  61.9086326
  43.8175872  56.7537373  63.3116326  44.5345872  56.9607373  62.3466326
  44.3315872  56.6707373  64.5876326  43.6815872  56.3437373  65.3106326
  45.7355872  56.9347373  64.9396326  46.0095872  57.9107373  64.5436326
  45.9295872  56.9727373  66.4706326  45.5685872  56.0467373  66.9066326
  47.3995872  57.1267373  66.8816326  47.8405872  58.0247373  66.4376326
  47.4815872  57.1937373  67.9736326  47.9885872  56.2567373  66.5656326
  45.1475872  58.1397373  67.0896326  44.0725872  58.0257373  66.8976326
  45.2855872  58.1617373  68.1776326  45.4755872  59.0997373  66.6746326
  46.6635872  55.9177373  64.2796326  47.6255872  56.2997373  63.6316326
  46.3415872  54.5837373  64.3696326  45.5395872  54.3367373  64.9606326
  47.1415872  53.5217373  63.7496326  48.1705872  53.6487373  64.0866326
  46.6605872  52.1567373  64.2566326  47.3535872  51.3847373  63.9186326
  46.7015872  52.1787373  65.3466326  45.2405872  51.7727373  63.8016326
  44.5785872  52.6327373  63.8806326  45.2575872  51.4407373  62.7636326
  44.6745872  50.6727373  64.6866326  44.5265872  49.5377373  64.2876326
  44.3875872  50.9757373  65.9726326  44.0305872  50.2407373  66.5546326
  44.4415872  51.9647373  66.2516326  47.1705872  53.5807373  62.2126326
  48.0805872  53.0307373  61.6116326  46.1905872  54.2977373  61.5566326
  45.4695872  54.7137373  62.1406326  46.1505872  54.5337373  60.1046326
  46.7505872  53.7667373  59.6136326  44.7105872  54.3717373  59.6026326
  44.0985872  55.1767373  60.0126326  44.7005872  54.4587373  58.5156326
  44.1095872  53.0177373  59.9876326  44.7785872  51.9757373  59.7996326
  42.9415872  52.9967373  60.4366326  46.7515872  55.8887373  59.6846326
  47.0015872  56.1117373  58.5106326  47.0275872  56.8127373  60.6736326
  46.6865872  56.5837373  61.6046326  47.8655872  58.0037373  60.5026326
  47.7265872  58.3867373  59.4936326  47.4305872  59.0887373  61.5096326
  47.4025872  58.6477373  62.5056326  48.1695872  59.8897373  61.5196326
  46.0495872  59.6867373  61.1816326  45.3595872  58.8927373  60.9166326
  45.4515872  60.4407373  62.3676326  46.0745872  61.2947373  62.6456326
  44.4515872  60.8107373  62.1096326  45.3425872  59.7717373  63.2286326
  46.1325872  60.6687373  60.0156326  46.5505872  60.1907373  59.1236326
  45.1205872  61.0077373  59.7736326  46.7495872  61.5387373  60.2706326
  49.3605872  57.6637373  60.6366326  50.1815872  58.2447373  59.9466326
  49.7325872  56.6477373  61.5006326  48.9875872  56.2597373  62.0756326
  51.1055872  56.1277373  61.6126326  51.7615872  56.9517373  61.8946326
  51.1805872  55.0307373  62.6896326  50.3925872  54.3037373  62.5006326
  52.1355872  54.5117373  62.5976326  51.0245872  55.5207373  64.1396326
  50.0635872  56.0167373  64.2506326  51.0185872  54.6447373  64.7906326
  52.1165872  56.4777373  64.6366326  52.0635872  57.4167373  64.0846326
  51.9175872  56.6917373  65.6876326  53.5225872  55.8827373  64.5016326
  53.5175872  54.8567373  64.8816326  53.8045872  55.8597373  63.4446326
  54.4965872  56.6837373  65.2676326  54.2915872  56.6617373  66.2616326
  55.4515872  56.3417373  65.1636326  54.5305872  57.6517373  64.9516326
  51.6065872  55.5977373  60.2606326  51.0615872  54.6407373  59.7316326
  52.7145872  56.2147373  59.7306326  53.1415872  56.9107373  60.3416326
  53.3425872  55.9757373  58.4246326  54.1515872  56.7037373  58.3576326
  54.0155872  54.5887373  58.3646326  53.2525872  53.8307373  58.1926326
  54.7045872  54.5587373  57.5196326  54.7885872  54.2377373  59.6196326
  55.9015872  54.6737373  59.8336326  54.1815872  53.3927373  60.4796326
  54.7575872  52.9987373  61.2266326  53.4615872  52.8157373  60.0796326
  52.4435872  56.2757373  57.2046326  52.7045872  55.7847373  56.1186326
  51.3695872  57.1337373  57.3546326  51.2045872  57.5257373  58.2806326
  50.5285872  57.5837373  56.2356326  50.0345872  56.7057373  55.8206326
  49.4455872  58.5287373  56.7856326  48.9665872  58.0407373  57.6406326
  49.9155872  59.4447373  57.1676326  48.3565872  58.9017373  55.8126326
  48.4755872  59.8097373  54.7576326  47.2915872  59.7917373  54.1246326
  47.0445872  60.3907373  53.2596326  46.4385872  58.9547373  54.7346326
  45.4715872  58.8157373  54.4646326  47.0985872  58.3727373  55.7966326
  46.7205872  57.6287373  56.4856326  51.3775872  58.2427373  55.1226326
  52.3895872  58.8657373  55.4166326  51.0165872  58.1117373  53.7836326
  49.9485872  57.2427373  53.2666326  48.9895872  57.4007373  53.7696326
  50.2525872  56.1947373  53.3856326  49.8515872  57.6007373  51.7806326
  49.1605872  58.4447373  51.6496326  49.4915872  56.7607373  51.1726326
  51.2775872  58.0347373  51.4026326  51.2985872  58.7137373  50.5406326
  51.8835872  57.1507373  51.1656326  51.8125872  58.6827373  52.6896326
  52.8555872  58.3897373  52.8156326  51.7765872  60.2197373  52.6026326
  52.6785872  60.8027373  52.0216326  50.7195872  60.9097373  53.1646326
  50.0045872  60.3527373  53.6276326  50.4745872  62.3477373  52.9636326
  51.2205872  62.7447373  52.2756326  49.0925872  62.5647373  52.3186326
  48.3465872  62.3717373  53.0936326  48.9895872  63.6287373  52.0676326
  48.6905872  61.7497373  51.0866326  49.6395872  61.2567373  50.1656326
  50.6915872  61.4667373  50.3036326  49.2225872  60.4967373  49.0526326
  49.9515872  60.1177373  48.3526326  47.8485872  60.2417373  48.8456326
  47.4285872  59.5117373  47.7806326  48.1475872  59.2657373  47.1766326
  46.8975872  60.7627373  49.7456326  45.8455872  60.5847373  49.5646326
  47.3185872  61.5207373  50.8536326  46.5785872  61.9397373  51.5236326
  50.5665872  63.1997373  54.2456326  50.8245872  64.3897373  54.1456326
  50.3775872  62.6097373  55.4836326  50.1985872  61.6117373  55.4976326
  50.2305872  63.3657373  56.7436326  50.5945872  64.3787373  56.5836326
  48.7435872  63.4737373  57.1246326  48.4255872  62.5217373  57.5716326
  48.6325872  64.2267373  57.9116326  47.7975872  63.8227373  55.9856326
  47.7655872  65.1227373  55.4416326  48.3975872  65.8947373  55.8556326
  46.9215872  65.4117373  54.3476326  46.9035872  66.4047373  53.9246326
  46.1095872  64.3947373  53.7996326  45.2975872  64.6307373  52.7366326
  45.3625872  65.5387373  52.3886326  46.1395872  63.1017373  54.3576326
  45.5355872  62.3267373  53.9216326  46.9705872  62.8197373  55.4546326
  46.9895872  61.8257373  55.8786326  51.0325872  62.7917373  57.9246326
  51.5045872  61.6707373  57.8696326  51.1595872  63.6027373  59.0386326
  50.7545872  64.5347373  58.9546326  51.8025872  63.2557373  60.3226326
  51.7945872  62.1697373  60.4306326  53.2785872  63.7217373  60.3546326
  53.3115872  64.8017373  60.2036326  53.9835872  63.4007373  61.6776326
  53.9355872  62.3257373  61.8986326  55.0415872  63.6907373  61.6376326
  53.5355872  63.9527373  62.5096326  54.1055872  63.0547373  59.2486326
  53.7295872  63.3417373  58.2626326  55.1575872  63.3577373  59.3036326
  54.0535872  61.9617373  59.3316326  51.0065872  63.8507373  61.4966326
  50.4905872  64.9557373  61.4076326  50.8855872  63.0877373  62.6406326
  51.3855872  62.2057373  62.6406326  50.2455872  63.5307373  63.8886326
  49.3615872  64.1187373  63.6416326  49.8295872  62.2947373  64.7136326
  50.5515872  61.4987373  64.5346326  49.8695872  62.5307373  65.7766326
  48.4225872  61.7747373  64.3906326  48.2755872  61.7547373  63.3116326
  48.2615872  60.3617373  64.9456326  48.4355872  60.3447373  66.0276326
  47.2505872  59.9857373  64.7526326  48.9715872  59.6757373  64.4646326
  47.3505872  62.6477373  65.0496326  47.4145872  63.6837373  64.7016326
  46.3465872  62.2757373  64.8126326  47.4635872  62.6507373  66.1376326
  51.1575872  64.4257373  64.7426326  52.3605872  64.2577373  64.7876326
  50.5455872  65.3347373  65.5746326  49.5455872  65.4907373  65.4386326
  51.2725872  66.1567373  66.5526326  52.0155872  66.7527373  66.0196326
  50.2695872  67.1107373  67.2146326  49.8245872  67.7147373  66.4266326
  49.4805872  66.5407373  67.7086326  50.9415872  68.0427373  68.2276326
  51.1935872  67.4807373  69.1276326  51.8655872  68.4167373  67.7826326
  50.0655872  69.2347373  68.6126326  50.6065872  70.3677373  68.6676326
  48.8585872  69.0607373  68.8906326  52.0385872  65.3277373  67.6046326
  53.0715872  65.7557373  68.0916326  51.5425872  64.0827373  67.9386326
  50.6805872  63.8177373  67.4856326  52.2185872  63.1117373  68.8146326
  52.8245872  63.6687373  69.5266326  51.1755872  62.3377373  69.6426326
  51.7025872  61.7937373  70.4276326  50.5135872  63.0547373  70.1306326
  50.3305872  61.3287373  68.8406326  49.7275872  61.8567373  68.1036326
  50.9875872  60.6377373  68.3146326  49.3995872  60.5137373  69.7356326
  49.0065872  60.9147373  70.8076326  48.9815872  59.2957373  69.3146326
  48.3965872  58.7937373  69.9676326  49.3395872  58.9067373  68.4596326
  53.2095872  62.1887373  68.0736326  53.6185872  61.1767373  68.6086326
  53.5685872  62.5167373  66.7836326  53.1335872  63.3427373  66.3836326
  54.3745872  61.6697373  65.8926326  54.8095872  60.8577373  66.4776326
  53.4155872  61.0567373  64.8626326  52.5425872  60.6717373  65.3916326
  53.0825872  61.8337373  64.1756326  53.9945872  59.8997373  64.0576326
  53.3835872  59.5577373  63.0256326  54.9735872  59.2507373  64.4916326
  55.5505872  62.4177373  65.2296326  56.4175872  61.8027373  64.6316326
  55.6165872  63.7887373  65.3856326  54.8595872  64.2107373  65.9086326
  56.7875872  64.6137373  65.0586326  57.1905872  64.2927373  64.0966326
  56.4005872  66.1117373  64.9546326  56.0105872  66.4307373  65.9236326
  57.6405872  66.9697373  64.6286326  58.0325872  66.7267373  63.6336326
  57.3965872  68.0387373  64.6526326  58.4405872  66.8157373  65.3626326
  55.2965872  66.3357373  63.8946326  55.6875872  66.0897373  62.9066326
  54.4605872  65.6697373  64.0936326  54.7245872  67.7597373  63.8766326
  55.4775872  68.4887373  63.5566326  53.8825872  67.8187373  63.1756326
  54.3595872  68.0437373  64.8716326  57.8525872  64.3797373  66.1396326
  57.6685872  64.7537373  67.2876326  59.0095872  63.7217373  65.7736326
  59.0925872  63.4687373  64.7886326  60.0485872  63.3037373  66.7346326
  59.5605872  62.7477373  67.5376326  61.0745872  62.3757373  66.0476326
  61.2945872  62.7507373  65.0486326  62.0075872  62.3897373  66.6106326
  60.6385872  60.9017373  65.9546326  61.4135872  60.3487373  65.4206326
  60.5605872  60.4917373  66.9616326  59.3015872  60.7057373  65.2346326
  58.5125872  61.1557373  65.8346326  59.3415872  61.1867373  64.2556326
  58.9635872  59.2297373  65.0626326  59.7835872  58.7257373  64.5416326
  58.8615872  58.7687373  66.0486326  57.7045872  59.0607373  64.3036326
  57.8115872  59.3227373  63.3386326  57.4085872  58.0867373  64.3716326
  56.9285872  59.6077373  64.6786326  60.7285872  64.5007373  67.4106326
  60.6655872  65.6307373  66.9536326  61.4765872  64.2437373  68.5376326
  61.4795872  63.2957373  68.8936326  62.3245872  65.2747373  69.1536326
  61.7125872  66.1627373  69.2916326  62.8205872  64.8277373  70.5386326
  63.5745872  64.0487373  70.4106326  63.2985872  65.6817373  71.0216326
  61.7185872  64.2867373  71.4716326  61.3885872  63.3167373  71.0996326
  62.1495872  64.1167373  72.4586326  60.4905872  65.1867373  71.6366326
  60.5015872  66.3837373  71.4266326  59.3395872  64.5997373  72.0496326
  58.5115872  65.1797373  72.1446326  59.2935872  63.5757373  72.1086326
  63.4865872  65.6937373  68.2306326  63.9525872  66.8147373  68.2896326
  63.8905872  64.7907373  67.2736326  63.4865872  63.8637373  67.3226326
  64.7715872  65.0397373  66.1236326  65.5125872  65.7887373  66.3966326
  65.5215872  63.7437373  65.7646326  66.0535872  63.8637373  64.8206326
  66.5415872  63.3537373  66.8336326  66.0595872  63.1877373  67.8056326
  67.0645872  62.4337373  66.5456326  67.2925872  64.1447373  66.9466326
  64.5945872  62.6827373  65.6546326  65.0415872  61.9567373  65.1786326
  64.0275872  65.5967373  64.8966326  64.4755872  65.4097373  63.7816326
  62.8435872  66.2937373  65.0676326  62.4955872  66.3937373  66.0136326
  62.0365872  66.8747373  63.9796326  62.7065872  67.1627373  63.1716326
  61.0345872  65.8407373  63.4366326  60.4175872  65.4757373  64.2556326
  60.3805872  66.3337373  62.7166326  61.6925872  64.6567373  62.7216326
  62.3545872  65.0387373  61.9496326  62.2795872  64.0647373  63.4186326
  60.6735872  63.7367373  62.0736326  59.6815872  63.3637373  62.6696326
  60.9155872  63.3267373  60.8046326  60.2575872  62.6937373  60.3896326
  61.7685872  63.6657373  60.3346326  61.2665872  68.1407373  64.4006326
  61.0535872  68.3867373  65.5776326  60.7935872  68.9507373  63.3886326
  61.0565872  68.6727373  62.4416326  59.9755872  70.1667373  63.5336326
  59.3075872  70.0257373  64.3836326  60.9095872  71.3657373  63.8326326
  61.6245872  71.0247373  64.5786326  61.7055872  71.8107373  62.5916326
  61.0465872  72.2437373  61.8276326  62.4535872  72.5677373  62.8536326
  62.2355872  70.9597373  62.1426326  60.1485872  72.5467373  64.4666326
  59.5915872  73.0937373  63.7046326  59.4435872  72.1527373  65.1966326
  61.0655872  73.5237373  65.2116326  61.7685872  74.0097373  64.5256326
  60.4665872  74.3047373  65.6956326  61.6345872  73.0017373  65.9916326
  59.0995872  70.3927373  62.2826326  59.3205872  69.7737373  61.2546326
  58.0725872  71.3137373  62.3426326  57.9325872  71.7987373  63.2226326
  57.3105872  71.7517373  61.1546326  57.1625872  70.8867373  60.5076326
  55.9085872  72.2777373  61.5326326  56.0255872  73.1857373  62.1186326
  55.0525872  72.6107373  60.3036326  54.9375872  71.7327373  59.6546326
  54.0535872  72.9457373  60.6096326  55.4975872  73.4227373  59.7186326
  55.1195872  71.2547373  62.3626326  55.6205872  71.0487373  63.3156326
  54.1185872  71.6377373  62.5996326  55.0055872  70.3117373  61.8146326
  58.1015872  72.8017373  60.3546326  58.6725872  73.7287373  60.9176326
  58.1145872  72.6717373  58.9766326  57.5805872  71.8867373  58.6056326
  58.7115872  73.6307373  58.0366326  59.7695872  73.7057373  58.2796326
  58.5645872  73.1477373  56.5786326  57.5335872  72.8397373  56.3936326
  58.7775872  73.9937373  55.9236326  59.5245872  72.0017373  56.2036326
  60.5315872  72.2677373  56.5286326  59.2215872  71.0827373  56.7066326
  59.5445872  71.7867373  54.6796326  58.5635872  71.4637373  54.3296326
  59.7585872  72.7457373  54.2056326  60.6225872  70.8027373  54.1956326
  60.7825872  70.9927373  53.1306326  61.5635872  71.0057373  54.7116326
  60.2355872  69.3817373  54.3566326  59.3495872  69.1927373  53.8976326
  60.9295872  68.7557373  53.9466326  60.1245872  69.1067373  55.3276326
  58.0875872  75.0297373  58.2046326  56.8825872  75.1507373  58.3736326
  58.9105872  76.1447373  58.1246326  60.3235872  76.1387373  57.7306326
  60.4905872  75.5327373  56.8306326  60.9315872  75.7567373  58.5606326
  60.6525872  77.6117373  57.4646326  60.4395872  77.8467373  56.4136326
  61.7045872  77.8467373  57.6696326  59.6905872  78.3957373  58.3716326
  59.4555872  79.3947373  57.9916326  60.1355872  78.4967373  59.3676326
  58.4515872  77.4957373  58.4386326  58.0615872  77.5157373  59.4566326
  57.3465872  77.9517373  57.4786326  57.4805872  77.8777373  56.2676326
  56.2005872  78.4457373  58.0566326  56.1555872  78.3917373  59.0726326
  55.0285872  78.9467373  57.3316326  54.4525872  79.5907373  57.9966326
  55.3555872  79.5417373  56.4816326  54.0895872  77.8617373  56.8046326
  53.0675872  78.1837373  56.2256326  54.4135872  76.5417373  57.0136326
  55.2865872  76.3407373  57.4956326  53.4755872  75.4397373  56.8136326
  52.7705872  75.7147373  56.0276326  54.2485872  74.2127373  56.3296326
  54.9465872  73.8807373  57.1016326  53.5335872  73.4157373  56.1246326
  55.1615872  74.6297373  54.8046326  55.4035872  73.3697373  54.3836326
  52.6535872  75.2027373  58.0976326  53.0715872  75.5897373  59.1776326
  51.4035872  74.6217373  57.9846326  51.1485872  74.2237373  57.0886326
  50.3735872  74.7077373  59.0396326  50.8715872  74.8007373  60.0076326
  49.5435872  75.9907373  58.8306326  48.8835872  76.1237373  59.6906326
  50.2205872  76.8437373  58.8076326  48.6995872  75.9987373  57.5436326
  49.3575872  76.0567373  56.6756326  48.1105872  75.0827373  57.4806326
  47.7385872  77.1947373  57.5456326  47.0855872  77.1107373  58.4166326
  48.2985872  78.1267373  57.6236326  46.8525872  77.2237373  56.2996326
  46.4975872  76.2087373  56.0926326  45.9745872  77.8387373  56.5176326
  47.5575872  77.7807373  55.1206326  48.4255872  77.2987373  54.9086326
  46.9745872  77.6897373  54.2976326  47.7855872  78.7617373  55.2606326
  49.4835872  73.4677373  59.1636326  49.6185872  72.5197373  58.4096326
  48.5485872  73.5047373  60.1686326  48.5455872  74.3377373  60.7616326
  47.5315872  72.4907373  60.4356326  48.0195872  71.5927373  60.8166326
  46.5265872  72.9937373  61.4886326  46.1465872  73.9777373  61.2076326
  45.6785872  72.3067373  61.4926326  47.0675872  73.0307373  62.9226326
  46.2155872  73.1387373  63.5986326  47.5305872  72.0647373  63.1366326
  48.0635872  74.1557373  63.2356326  48.2875872  75.0747373  62.4236326
  48.6365872  74.1137373  64.3506326  46.7505872  72.1127373  59.1746326
  46.2795872  72.9647373  58.4376326  46.5705872  70.7657373  58.9726326
  47.0195872  70.1447373  59.6416326  45.7785872  70.1787373  57.8996326
  45.4815872  70.9657373  57.2026326  46.6925872  69.1907373  57.1616326
  47.6875872  69.6257373  57.0556326  46.7715872  68.2607373  57.7276326
  46.0435872  68.8607373  55.5026326  44.7975872  68.5257373  55.8746326
  44.4845872  69.5257373  58.4286326  43.5335872  69.3577373  57.6836326
  44.4135872  69.1697373  59.7646326  45.2405872  69.3247373  60.3336326
  43.2225872  68.6057373  60.4106326  42.3795872  69.2797373  60.2526326
  42.9805872  67.6527373  59.9416326  43.3605872  68.3757373  61.9206326
  44.3995872  68.6387373  62.5026326  42.2555872  67.8497373  62.5576326
  41.4475872  67.6507373  61.9696326  42.1375872  67.5667373  63.9966326
  43.1325872  67.5237373  64.4406326  41.3405872  68.6827373  64.6966326
  40.3895872  68.8287373  64.1666326  41.0605872  68.3327373  65.6986326
  42.0295872  70.0347373  64.8506326  42.0595872  70.9487373  63.7776326
  41.6325872  70.6747373  62.8246326  42.6225872  72.2297373  63.9506326
  42.6365872  72.9257373  63.1256326  43.1335872  72.6067373  65.2116326
  43.6485872  73.8517373  65.3986326  43.6335872  74.3667373  64.5696326
  43.1015872  71.6947373  66.2866326  43.4805872  71.9907373  67.2526326
  42.5605872  70.4077373  66.1016326  42.5245872  69.7167373  66.9326326
  41.4435872  66.2167373  64.2566326  40.5895872  65.7907373  63.4906326
  41.7685872  65.5477373  65.4196326  42.5255872  65.9457373  65.9766326
  41.1765872  64.2757373  65.8456326  40.1975872  64.1767373  65.3806326
  42.0685872  63.1287373  65.3196326  42.1515872  63.2237373  64.2356326
  43.0685872  63.2517373  65.7406326  41.5825872  61.7027373  65.6476326
  41.5465872  61.5677373  66.7276326  40.2005872  61.4177373  65.0546326
  40.1855872  61.6267373  63.9786326  39.9325872  60.3637373  65.2086326
  39.4305872  62.0207373  65.5496326  42.5605872  60.6807373  65.0656326
  43.5665872  60.8317373  65.4756326  42.2455872  59.6597373  65.3176326
  42.6145872  60.7617373  63.9726326  40.9695872  64.2187373  67.3696326
  41.9255872  64.2497373  68.1276326  39.6705872  64.0977373  67.8336326
  38.9475872  64.0817373  67.1256326  39.3255872  63.6397373  69.1916326
  39.9315872  64.1807373  69.9196326  37.8405872  63.9247373  69.4936326
  37.7215872  64.9997373  69.6476326  37.2365872  63.6367373  68.6316326
  37.3005872  63.1717373  70.7276326  37.2405872  62.1097373  70.4856326
  37.9835872  63.2977373  71.5686326  35.9095872  63.6817373  71.1376326
  36.0385872  64.5917373  71.7256326  35.3365872  63.9477373  70.2486326
  35.1055872  62.6647373  71.9676326  35.7185872  62.3017373  72.7976326
  34.2385872  63.1857373  72.3876326  34.6365872  61.5307373  71.1306326
  35.3965872  60.9447373  70.8206326  33.9485872  60.9407373  71.5946326
  34.1435872  61.8827373  70.3116326  39.6785872  62.1547373  69.3176326
  39.3685872  61.3757373  68.4356326  40.3535872  61.7657373  70.4456326
  40.5025872  62.4727373  71.1606326  40.8645872  60.4047373  70.6576326
  41.2415872  60.0387373  69.7026326  42.0565872  60.4347373  71.6326326
  41.7405872  60.8707373  72.5796326  42.6335872  59.0487373  71.9066326
  42.9545872  58.5637373  70.9766326  43.5045872  59.1187373  72.5686326
  41.9015872  58.4067373  72.4096326  43.1975872  61.2837373  71.0466326
  42.9055872  62.3377373  70.9606326  44.0895872  61.2347373  71.6796326
  43.4765872  60.9237373  70.0476326  39.7445872  59.4447373  71.0896326
  38.9105872  59.7847373  71.9126326  39.7195872  58.2057373  70.4816326
  40.4415872  58.0227373  69.7996326  38.7535872  57.1357373  70.7736326
  37.7505872  57.5657373  70.7766326  38.8155872  56.0877373  69.6566326
  38.7715872  56.5867373  68.6796326  39.7745872  55.5587373  69.7066326
  37.7035872  55.0777373  69.7156326  36.3455872  55.3947373  69.7266326
  35.7025872  54.2157373  69.6706326  34.6275872  54.1077373  69.6286326
  36.5805872  53.1997373  69.6256326  36.3455872  52.2137373  69.4916326
  37.8505872  53.7247373  69.6726326  38.7815872  53.1737373  69.6336326
  38.9815872  56.4867373  72.1466326  40.0935872  56.4807373  72.6436326
  37.8995872  55.9207373  72.7926326  37.0295872  55.8547373  72.2706326
  38.0115872  55.2277373  74.0846326  37.0115872  54.9517373  74.4236326
  38.5885872  54.3127373  73.9516326  38.6765872  56.0687373  75.1876326
  39.4425872  55.5337373  75.9746326  38.4315872  57.4367373  75.1856326
  37.8085872  57.7517373  74.4506326  38.9435872  58.4707373  76.1106326
  39.0795872  58.0317373  77.0996326  40.2865872  59.0547373  75.6076326
  40.1195872  59.5067373  74.6276326  40.6075872  59.8497373  76.2826326
  41.4545872  58.0697373  75.4756326  41.1835872  57.3267373  74.7336326
  42.3135872  58.6147373  75.0876326  41.8635872  57.3877373  76.7946326
  42.3105872  58.1327373  77.4546326  40.9895872  56.9857373  77.3036326
  42.8635872  56.2417373  76.5906326  43.8255872  56.6637373  76.2866326
  43.0055872  55.7367373  77.5506326  42.4065872  55.2637373  75.5706326
  42.4435872  55.6937373  74.6506326  43.0225872  54.4597373  75.5506326
  41.4445872  54.9867373  75.7516326  37.9335872  59.6157373  76.2616326
  36.9945872  59.7257373  75.4906326  38.1785872  60.5387373  77.2566326
  38.9995872  60.3677373  77.8356326  37.3855872  61.7577373  77.5026326
  36.5965872  61.8187373  76.7536326  36.7015872  61.7107373  78.8866326
  37.4675872  61.7337373  79.6626326  35.7655872  62.9097373  79.0866326
  34.9835872  62.9307373  78.3186326  35.2755872  62.8507373  80.0676326
  36.3155872  63.8577373  79.0586326  35.8675872  60.4377373  79.0706326
  36.5015872  59.5417373  79.0546326  35.3595872  60.4477373  80.0436326
  35.1095872  60.3397373  78.2836326  38.2685872  63.0027373  77.3646326
  39.3685872  63.0397373  77.8846326  37.7975872  64.0647373  76.6196326
  36.8715872  63.9607373  76.2246326  38.4565872  65.3807373  76.5366326
  37.7935872  66.0677373  76.0116326  38.5915872  65.7567373  77.5516326
  39.8325872  65.4387373  75.8426326  40.3945872  66.5177373  75.7266326
  40.4065872  64.2747373  75.3676326  39.8925872  63.4257373  75.5636326
  41.7125872  64.1727373  74.6946326  42.3615872  64.9557373  75.0916326
  42.3335872  62.8167373  75.0676326  42.3305872  62.7227373  76.1566326
  41.7195872  62.0127373  74.6586326  43.7795872  62.6557373  74.5756326
  43.7975872  62.6707373  73.4876326  44.3855872  63.4837373  74.9486326
  44.3675872  61.3337373  75.0836326  44.4505872  61.3807373  76.1706326
  43.7065872  60.5087373  74.8156326  45.7485872  61.0787373  74.4756326
  45.6365872  60.8997373  73.4026326  46.3705872  61.9657373  74.6146326
  46.3925872  59.9077373  75.1086326  45.7725872  59.0977373  75.0486326
  47.2485872  59.6447373  74.6296326  46.6105872  60.0897373  76.0856326
  41.5985872  64.3947373  73.1756326  40.7225872  63.8427373  72.5286326
  42.5315872  65.2197373  72.5856326  43.2615872  65.5917373  73.1816326
  42.4905872  65.6937373  71.1876326  42.0375872  64.9137373  70.5786326
  41.5915872  66.9497373  71.0896326  40.6235872  66.6977373  71.5246326
  42.1505872  68.1527373  71.8606326  43.1195872  68.4737373  71.4566326
  41.4595872  69.0007373  71.7966326  42.2825872  67.9127373  72.9226326
  41.3285872  67.3967373  69.6466326  40.9185872  66.5717373  69.0556326
  40.5935872  68.2117373  69.6316326  42.2425872  67.7617373  69.1616326
  43.9025872  65.9357373  70.6326326  44.8155872  66.2357373  71.3826326
  44.0865872  65.7807373  69.2736326  43.2725872  65.4727373  68.7446326
  45.3645872  65.8787373  68.5576326  46.0935872  66.3887373  69.1886326
  45.8765872  64.4577373  68.2406326  45.1345872  63.9747373  67.6026326
  46.8005872  64.5367373  67.6656326  46.1305872  63.5487373  69.4596326
  45.2635872  63.5487373  70.1186326  46.3525872  62.1107373  68.9956326
  47.2445872  62.0317373  68.3666326  46.4815872  61.4487373  69.8616326
  45.4875872  61.7497373  68.4256326  47.3595872  64.0017373  70.2486326
  47.1985872  64.9977373  70.6776326  47.5555872  63.3127373  71.0796326
  48.2505872  64.0337373  69.6116326  45.2295872  66.6807373  67.2496326
  44.2215872  66.5847373  66.5656326  46.3095872  67.4547373  66.8636326
  47.0815872  67.5197373  67.5216326  46.4635872  68.0827373  65.5366326
  45.4755872  68.3307373  65.1426326  47.2735872  69.3837373  65.6616326
  48.2225872  69.1787373  66.1526326  47.4885872  69.7587373  64.6586326
  46.5425872  70.4857373  66.4396326  45.6125872  70.7167373  65.9216326
  46.3225872  70.1557373  67.4556326  47.4215872  71.7387373  66.4866326
  48.3105872  71.5417373  67.0886326  47.7285872  71.9687373  65.4716326
  46.6695872  72.9457373  67.0466326  45.7155872  73.0357373  66.5206326
  46.4625872  72.7847373  68.1086326  47.4435872  74.1957373  66.8626326
  47.7635872  74.2947373  65.8996326  46.8655872  74.9957373  67.1156326
  48.2775872  74.2107373  67.4426326  47.1305872  67.1467373  64.5156326
  47.8865872  66.2587373  64.8786326  46.8855872  67.4107373  63.1856326
  46.2005872  68.1417373  62.9986326  47.4975872  66.7337373  62.0266326
  48.3135872  66.1017373  62.3776326  46.4745872  65.8277373  61.3066326
  45.6145872  66.4287373  61.0096326  47.0575872  65.1737373  60.0486326
  47.9755872  64.6207373  60.2856326  46.3425872  64.4697373  59.6086326
  47.2865872  65.9207373  59.2786326  45.9815872  64.6917373  62.2116326
  45.5205872  65.0827373  63.1266326  45.2275872  64.0847373  61.6956326
  46.8135872  64.0357373  62.4896326  48.0945872  67.7597373  61.0546326
  47.4765872  68.7717373  60.7626326  49.3165872  67.4517373  60.4976326
  49.7255872  66.5607373  60.7786326  50.0865872  68.2747373  59.5566326
  49.4905872  69.1387373  59.2586326  51.3505872  68.7947373  60.2636326
  51.9725872  67.9407373  60.5646326  51.9535872  69.3697373  59.5486326
  51.0755872  69.6677373  61.4856326  50.9415872  71.0617373  61.3346326
  51.0675872  71.5067373  60.3586326  50.6545872  71.8747373  62.4496326
  50.5605872  72.9447373  62.3376326  50.5115872  71.2897373  63.7256326
  50.2255872  72.0587373  64.8106326  49.7425872  72.9067373  64.5636326
  50.6665872  69.8957373  63.8826326  50.5705872  69.4577373  64.8636326
  50.9475872  69.0857373  62.7636326  51.0645872  68.0167373  62.8836326
  50.4375872  67.4847373  58.2816326  50.3905872  66.2657373  58.2696326
  50.7915872  68.1897373  57.1496326  50.8635872  69.1957373  57.2246326
  51.2375872  67.5407373  55.9126326  50.5695872  66.7057373  55.6986326
  51.1215872  68.5377373  54.7536326  51.7675872  69.4087373  54.9186326
  51.4155872  68.0657373  53.8076326  50.0875872  68.8907373  54.6476326
  52.6655872  66.9727373  56.0466326  53.5535872  67.6217373  56.5686326
  52.9195872  65.7247373  55.5136326  52.1305872  65.2587373  55.0636326
  54.1845872  64.9877373  55.6876326  54.4095872  64.9427373  56.7536326
  53.9875872  63.5587373  55.1656326  53.0695872  63.1727373  55.6056326
  53.8705872  63.5717373  54.0796326  55.1225872  62.5967373  55.5476326
  56.0465872  62.8787373  55.0406326  55.2815872  62.6317373  56.6246326
  54.7155872  61.1777373  55.1386326  53.7035872  60.9887373  55.4976326
  54.7215872  61.1027373  54.0496326  55.6405872  60.1167373  55.7376326
  56.6735872  60.3267373  55.4436326  55.5745872  60.1627373  56.8286326
  55.2525872  58.7707373  55.2626326  55.4305872  58.7077373  54.2626326
  55.8385872  58.0487373  55.6836326  54.2695872  58.5847373  55.4406326
  55.3775872  65.6907373  55.0366326  56.4135872  65.8247373  55.6576326
  55.1845872  66.2587373  53.7886326  54.2915872  66.0667373  53.3556326
  56.1835872  67.0947373  53.0906326  57.1015872  66.5107373  52.9856326
  55.6915872  67.4657373  51.6776326  56.5155872  67.9507373  51.1506326
  55.4415872  66.5527373  51.1346326  54.4785872  68.4167373  51.6616326
  53.6135872  67.9117373  52.0956326  54.6955872  69.3087373  52.2476326
  54.1455872  68.8557373  50.2326326  55.0045872  69.3877373  49.8156326
  53.9585872  67.9657373  49.6276326  52.9655872  69.7397373  50.2026326
  52.6925872  70.1877373  51.0646326  52.2575872  70.0557373  49.1336326
  52.5635872  69.6547373  47.9346326  53.3985872  69.1277373  47.7726326
  51.9205872  69.8987373  47.1856326  51.1895872  70.7827373  49.2206326
  50.7865872  71.0357373  50.1216326  50.6675872  70.9517373  48.3686326
  56.5825872  68.3537373  53.8686326  57.6165872  68.9327373  53.5926326
  55.7335872  68.7857373  54.8586326  54.9355872  68.1987373  55.0666326
  55.9175872  69.9787373  55.6816326  56.6375872  70.6257373  55.1856326
  54.5935872  70.7577373  55.7546326  53.7945872  70.1037373  56.1006326
  54.7015872  71.5507373  56.4896326  54.1945872  71.3957373  54.4176326
  55.0865872  71.6807373  53.5876326  53.0025872  71.7217373  54.2286326
  56.5365872  69.6877373  57.0596326  56.6505872  70.5857373  57.8736326
  57.0185872  68.4237373  57.3256326  56.8695872  67.7147373  56.6126326
  57.9335872  68.1087373  58.4346326  57.7745872  68.8267373  59.2386326
  57.6205872  66.6997373  58.9966326  57.8345872  65.9687373  58.2136326
  58.5025872  66.3397373  60.2086326  58.4635872  67.1197373  60.9786326
  58.1775872  65.3947373  60.6626326  59.5485872  66.1977373  59.9086326
  56.1285872  66.5327373  59.3796326  55.5235872  66.5237373  58.4716326
  55.9965872  65.5607373  59.8546326  55.5645872  67.6077373  60.3206326
  55.5045872  68.5807373  59.8176326  54.5515872  67.3337373  60.6386326
  56.1885872  67.7187373  61.2146326  59.3945872  68.2787373  57.9726326
  59.6875872  68.2107373  56.7896326  60.3565872  68.5367373  58.9206326
  60.0345872  68.6757373  59.8776326  61.7985872  68.5627373  58.6756326
  62.0185872  67.9247373  57.8186326  62.2235872  69.9967373  58.3366326
  61.9775872  70.6767373  59.1626326  63.3065872  70.0447373  58.1606326
  61.7135872  70.3447373  57.4316326  62.5865872  68.0077373  59.8746326
  62.1825872  68.1707373  61.0146326  63.7565872  67.3397373  59.5956326
  64.0105872  67.2387373  58.6246326  64.6115872  66.7107373  60.6086326
  63.9645872  66.3137373  61.3866326  65.3725872  65.5107373  60.0106326
  66.0705872  65.8887373  59.2606326  65.9625872  65.0487373  60.8036326
  64.5105872  64.4107373  59.3626326  63.2675872  64.3677373  59.5366326
  65.0985872  63.5657373  58.6436326  65.5705872  67.7027373  61.3036326
  65.9365872  68.7387373  60.7656326  66.0105872  67.3327373  62.5586326
  65.6525872  66.4427373  62.8996326  66.9255872  68.0637373  63.4336326
  67.3835872  68.8597373  62.8516326  66.1805872  68.6777373  64.6356326
  65.8515872  67.8587373  65.2756326  66.9055872  69.2637373  65.1986326
  64.9665872  69.5777373  64.3736326  64.2225872  69.0557373  63.7716326
  64.3505872  69.9307373  65.7296326  65.1005872  70.3647373  66.4006326
  63.5335872  70.6477373  65.6166326  63.9465872  69.0297373  66.2056326
  65.3725872  70.8717373  63.6766326  65.7745872  70.6427373  62.6836326
  64.5045872  71.5267373  63.5456326  66.1345872  71.4077373  64.2536326
  68.0315872  67.1467373  63.9816326  67.7535872  66.0637373  64.4726326
  69.3145872  67.6537373  63.9846326  69.4055872  68.5917373  63.5976326
  70.5215872  67.0197373  64.5586326  70.2285872  66.3387373  65.3586326
  71.2505872  66.1897373  63.4816326  71.4485872  66.8057373  62.6026326
  72.2035872  65.8587373  63.8876326  70.4475872  64.9407373  63.0756326
  70.1335872  64.4157373  63.9796326  69.5605872  65.2467373  62.5196326
  71.2605872  63.9707373  62.2096326  71.5545872  64.4637373  61.2806326
  72.1545872  63.6637373  62.7546326  70.4055872  62.7347373  61.8986326
  70.0815872  62.2937373  62.8456326  69.5205872  63.0437373  61.3366326
  71.1665872  61.7247373  61.1326326  71.9835872  61.4297373  61.6726326
  70.6035872  60.9007373  60.9446326  71.4775872  62.0887373  60.2356326
  71.4365872  68.0757373  65.1946326  71.2445872  69.2567373  64.9656326
  72.4205872  67.6917373  66.0696326  72.5575872  66.6927373  66.2186326
  73.3625872  68.6537373  66.6706326  72.8165872  69.5647373  66.9076326
  73.9075872  68.1227373  67.9876326  74.3665872  68.9367373  68.5526326
  73.0725872  67.7267373  68.5626326  74.8675872  67.1137373  67.7696326
  74.9695872  66.6387373  68.6586326  74.5015872  69.0407373  65.7226326
  74.6755872  68.4497373  64.6716326  75.3175872  70.0937373  66.0806326
  75.1615872  70.5237373  66.9826326  76.3405872  70.6397373  65.1866326
  75.8515872  70.9847373  64.2736326  76.9825872  71.8477373  65.8696326
  77.5215872  71.5377373  66.7706326  77.7015872  72.3317373  65.1946326
  76.2225872  72.5857373  66.1526326  77.4025872  69.6027373  64.7676326
  77.7885872  69.5627373  63.6126326  77.8635872  68.6957373  65.7086326
  77.4875872  68.7687373  66.6486326  78.8535872  67.6527373  65.3836326
  79.6475872  68.1247373  64.8076326  79.4335872  67.0537373  66.6786326
  79.4895872  67.8277373  67.4446326  78.7655872  66.2737373  67.0496326
  80.8435872  66.4647373  66.4926326  81.1045872  65.9177373  67.3976326
  80.8515872  65.7617373  65.6586326  81.8795872  67.5757373  66.2496326
  81.7095872  68.0157373  65.2686326  81.7395872  68.3557373  67.0006326
  83.2635872  67.0847373  66.3646326  83.5175872  66.6557373  67.2496326
  84.2675872  67.2677373  65.5256326  84.1275872  67.8547373  64.3706326
  83.2455872  68.2587373  64.1326326  84.9565872  68.1247373  63.8506326
  85.4535872  66.8627373  65.8566326  85.5825872  66.5847373  66.8256326
  86.2455872  67.0227373  65.2486326  78.2705872  66.5667373  64.4776326
  78.9385872  66.1027373  63.5726326  76.9565872  66.2267373  64.6796326
  76.4895872  66.6727373  65.4606326  76.2105872  65.2807373  63.8516326
  76.7885872  64.3597373  63.7626326  74.8695872  64.9717373  64.5346326
  74.3215872  65.9067373  64.6306326  74.2895872  64.2917373  63.9106326
  75.0315872  64.3517373  65.9336326  75.3505872  63.3197373  65.8266326
  75.8105872  64.8677373  66.4916326  73.7665872  64.4107373  66.7856326
  72.6995872  64.8227373  66.3746326  73.8605872  63.9997373  68.0696326
  73.1045872  64.2697373  68.6686326  74.8125872  63.8397373  68.4256326
  75.9915872  65.8397373  62.4376326  76.1975872  65.1457373  61.4556326
  75.6495872  67.1717373  62.3146326  75.4435872  67.6797373  63.1726326
  75.6155872  67.8827373  61.0366326  74.9435872  67.3477373  60.3666326
  75.0655872  69.3017373  61.2226326  75.5135872  69.7597373  62.1126326
  75.3845872  69.9247373  60.3796326  73.5725872  69.3897373  61.2986326
  72.8615872  69.7627373  62.3826326  73.2845872  70.0357373  63.3396326
  71.5175872  69.7537373  62.0806326  70.7945872  69.9907373  62.7556326
  71.2805872  69.3627373  60.7866326  70.1065872  69.1757373  60.0416326
  69.1405872  69.3317373  60.4996326  70.2095872  68.7627373  58.7026326
  69.3165872  68.6017373  58.1146326  71.4785872  68.5397373  58.1366326
  71.5565872  68.2087373  57.1086326  72.6465872  68.7187373  58.9056326
  73.6125872  68.5277373  58.4706326  72.5815872  69.1337373  60.2506326
  76.9835872  67.9027373  60.3506326  77.0295872  67.7767373  59.1416326
  78.1365872  67.9517373  61.1056326  78.0435872  68.1717373  62.0926326
  79.4665872  67.8717373  60.4926326  79.5175872  68.6277373  59.7136326
  80.5505872  68.2117373  61.5236326  80.2115872  69.0567373  62.1376326
  80.6925872  67.3667373  62.2056326  81.8835872  68.5967373  60.8946326
  81.9875872  69.8027373  60.1726326  81.1255872  70.4507373  60.0856326
  83.2025872  70.1587373  59.5566326  83.2795872  71.0797373  58.9996326
  84.3245872  69.3107373  59.6736326  85.4935872  69.6287373  59.0576326
  85.3705872  70.3307373  58.3876326  84.2265872  68.1177373  60.4206326
  85.0925872  67.4837373  60.5126326  83.0055872  67.7557373  61.0226326
  82.9265872  66.8277373  61.5726326  79.7045872  66.5297373  59.7826326
  80.3545872  66.4947373  58.7526326  79.0575872  65.4047373  60.2566326
  78.5295872  65.5027373  61.1196326  79.0555872  64.1167373  59.5456326
  80.0445872  63.9927373  59.1176326  78.8505872  62.9517373  60.5206326
  77.8495872  62.9797373  60.9536326  78.9735872  62.0157373  59.9726326
  79.8985872  63.0187373  61.6346326  80.8345872  63.3917373  61.2186326
  79.5575872  63.7297373  62.3876326  80.2685872  61.4507373  62.4446326
  81.3395872  62.1207373  63.7366326  80.8055872  62.8927373  64.3056326
  81.6365872  61.3197373  64.4206326  82.2365872  62.5657373  63.2916326
  78.0725872  64.0667373  58.3616326  78.2695872  63.3137373  57.4256326
  77.0335872  64.9717373  58.3396326  76.9345872  65.5447373  59.1716326
  76.2505872  65.3327373  57.1486326  76.1045872  64.4277373  56.5556326
  74.8725872  65.8327373  57.6316326  74.5265872  65.2087373  58.4556326
  74.9745872  66.8497373  57.9966326  73.7985872  65.8227373  56.5566326
  73.5155872  66.8087373  55.9126326  73.1135872  64.6747373  56.3506326
  72.3715872  64.7277373  55.6716326  73.2575872  63.8877373  56.9636326
  76.9955872  66.3497373  56.2376326  76.4285872  66.8707373  55.2896326
  78.3105872  66.6637373  56.5326326  78.7225872  66.2027373  57.3366326
  79.1495872  67.5957373  55.7766326  80.1885872  67.4107373  56.0446326
  79.0295872  67.4067373  54.7096326  78.8625872  69.0767373  56.0426326
  79.0835872  69.8917373  55.1646326  78.3175872  69.4567373  57.2576326
  78.1215872  68.7027373  57.9156326  77.8185872  70.8067373  57.5756326
  78.1345872  71.4797373  56.7826326  76.2845872  70.7927373  57.6146326
  75.9455872  69.9367373  58.1956326  75.9355872  71.7007373  58.1076326
  75.6485872  70.7377373  56.2266326  75.8685872  71.6647373  55.7006326
  76.0495872  69.9007373  55.6556326  74.1345872  70.5777373  56.3686326
  73.9185872  69.5307373  56.5816326  73.7795872  71.1787373  57.2056326
  73.4555872  70.9527373  55.1216326  73.6585872  70.3477373  54.3326326
  72.6305872  71.9687373  54.9446326  72.2245872  72.7237373  55.9226326
  72.4925872  72.5187373  56.8776326  71.6055872  73.5157373  55.7926326
  72.1805872  72.2447373  53.7586326  72.4525872  71.6747373  52.9806326
  71.4465872  72.9257373  53.6676326  78.3435872  71.4047373  58.8816326
  78.4285872  70.7447373  59.8956326  78.6195872  72.7467373  58.8616326
  78.4095872  73.2057373  57.9776326  78.7985872  73.6007373  60.0476326
  79.1135872  72.9827373  60.8886326  79.8975872  74.6567373  59.7846326
  79.8765872  75.3737373  60.6066326  81.2805872  73.9847373  59.8126326
  81.3775872  73.2447373  59.0096326  82.0815872  74.7247373  59.7026326
  81.4385872  73.4677373  60.7686326  79.6575872  75.4307373  58.4676326
  79.9205872  74.8047373  57.6126326  78.6005872  75.6777373  58.3936326
  80.4365872  76.7447373  58.3776326  81.5195872  76.5727373  58.4046326
  80.1965872  77.2627373  57.4396326  80.1605872  77.4027373  59.2096326
  77.4695872  74.2617373  60.4546326  76.5045872  74.2447373  59.7066326
  77.4185872  74.9197373  61.6666326  78.2675872  74.9287373  62.2136326
  76.3915872  75.9237373  61.9666326  75.4095872  75.5107373  61.7426326
  76.4425872  76.3327373  63.4526326  77.4665872  76.6347373  63.6846326
  75.8015872  77.2037373  63.5996326  76.0025872  75.2497373  64.4526326
  76.5535872  74.3317373  64.2616326  76.3055872  75.7147373  65.8776326
  75.7755872  76.6477373  66.1016326  75.9965872  74.9597373  66.6106326
  77.3815872  75.8917373  66.0056326  74.5035872  74.9577373  64.3716326
  74.2245872  74.5717373  63.3866326  74.2175872  74.2067373  65.1196326
  73.9215872  75.8667373  64.5626326  76.5825872  77.1687373  61.0846326
  77.7005872  77.5617373  60.7926326  75.4415872  77.8567373  60.7226326
  74.5585872  77.4487373  61.0206326  75.4555872  79.2777373  60.3526326
  76.2855872  79.4537373  59.6666326  74.1425872  79.6927373  59.6596326
  73.3045872  79.5277373  60.3376326  74.1945872  80.7597373  59.4296326
  73.8965872  78.9187373  58.3566326  74.7865872  78.9937373  57.7346326
  73.7185872  77.8717373  58.5926326  72.7015872  79.4677373  57.5666326
  71.8285872  79.5267373  58.2186326  72.9495872  80.4677373  57.2096326
  72.3865872  78.5517373  56.3756326  73.3175872  78.2917373  55.8646326
  71.9495872  77.6237373  56.7576326  71.4535872  79.1907373  55.4206326
  71.8915872  79.9927373  54.9756326  71.1495872  78.5437373  54.6946326
  70.6115872  79.5057373  55.8916326  75.7005872  80.1247373  61.6046326
  75.2385872  79.7857373  62.6836326  76.4005872  81.2987373  61.4486326
  76.7645872  81.4997373  60.5246326  76.5495872  82.2957373  62.5226326
  77.1435872  81.8527373  63.3206326  77.3065872  83.5287373  61.9956326
  76.8915872  83.8047373  61.0226326  77.2455872  84.7587373  62.8996326
  77.5095872  84.5127373  63.9346326  77.9355872  85.5307373  62.5396326
  76.2395872  85.1927373  62.8956326  78.6735872  83.2007373  61.8316326
  79.1455872  83.3987373  62.6946326  75.1795872  82.6627373  63.1166326
  74.1925872  82.7717373  62.4056326  75.1055872  82.8317373  64.4836326
  75.9735872  82.7447373  65.0116326  73.8965872  83.2647373  65.1896326
  74.1815872  83.6647373  66.1576326  73.4455872  84.0737373  64.6196326
  72.8075872  82.2067373  65.4256326  71.8765872  82.4847373  66.1636326
  72.9045872  80.9607373  64.8426326  73.6935872  80.7857373  64.2276326
  71.9045872  79.8967373  65.0396326  70.9235872  80.2837373  64.7616326
  72.2185872  78.7047373  64.1316326  73.2045872  78.3097373  64.3806326
  71.4775872  77.9247373  64.2986326  72.1985872  79.0827373  62.7666326
  72.5415872  78.3057373  62.2456326  71.8345872  79.4097373  66.4976326
  72.8605872  79.2537373  67.1426326  70.5945872  79.0807373  67.0296326
  69.7865872  79.2307373  66.4306326  70.3625872  78.5007373  68.3746326
  71.2695872  77.9907373  68.6946326  70.0415872  79.6097373  69.3946326
  69.2305872  80.2257373  69.0046326  69.6925872  79.1497373  70.3196326
  71.2355872  80.5207373  69.7326326  71.5705872  81.0377373  68.8326326
  70.8985872  81.2757373  70.4456326  72.4095872  79.7457373  70.3516326
  72.0575872  79.2367373  71.2496326  72.7725872  78.9837373  69.6636326
  73.5195872  80.6377373  70.7146326  73.5125872  80.9997373  71.6576326
  74.5995872  80.8957373  69.9996326  74.8275872  80.4087373  68.8166326
  74.1225872  79.8617373  68.3336326  75.7275872  80.6047373  68.3936326
  75.5225872  81.6727373  70.4656326  75.3795872  82.2057373  71.3106326
  76.3565872  81.8147373  69.9066326  69.2875872  77.4067373  68.3576326
  68.3455872  77.4777373  67.5896326  69.4735872  76.3307373  69.2016326
  70.2245872  76.4037373  69.8766326  68.8365872  75.0257373  68.9876326
  69.1015872  74.7167373  67.9726326  69.4355872  73.9717373  69.9306326
  69.1205872  72.9857373  69.5906326  70.5245872  74.0197373  69.8876326
  68.8815872  74.1837373  71.6456326  69.4475872  75.3837373  71.8386326
  67.2995872  75.0597373  69.0436326  66.6945872  75.7837373  69.8166326
  66.6525872  74.2407373  68.1456326  67.2675872  73.6367373  67.6006326
  65.2105872  74.1627373  67.8836326  64.7605872  75.1457373  68.0386326
  65.0115872  73.7337373  66.4146326  65.3465872  72.7017373  66.3126326
  63.9475872  73.7557373  66.1806326  65.7815872  74.5717373  65.3706326
  66.8485872  74.5187373  65.5846326  65.6345872  74.1177373  64.3896326
  65.3735872  76.0507373  65.2926326  65.3885872  76.4977373  66.2866326
  66.0995872  76.5827373  64.6766326  63.9805872  76.1767373  64.6676326
  63.9785872  75.6697373  63.6976326  63.2595872  75.6757373  65.3176326
  63.5675872  77.5847373  64.4866326  64.0275872  78.0367373  63.7026326
  62.5615872  77.6187373  64.3316326  63.7815872  78.1377373  65.3116326
  64.4875872  73.1977373  68.8316326  63.3175872  73.3997373  69.1066326
  65.2095872  72.1377373  69.3496326  66.1765872  72.0927373  69.0416326
  64.7685872  71.1607373  70.3676326  64.0915872  71.6567373  71.0656326
  64.0235872  69.9757373  69.7156326  64.5785872  69.6237373  68.8446326
  63.9795872  69.1557373  70.4336326  62.5785872  70.3157373  69.3116326
  62.0605872  70.7587373  70.1636326  62.5815872  71.0227373  68.4826326
  61.8325872  69.0527373  68.8726326  62.2945872  68.6767373  67.9616326
  61.9075872  68.3047373  69.6606326  60.3565872  69.3367373  68.5986326
  59.8605872  69.6167373  69.5336326  60.2815872  70.1867373  67.9146326
  59.6835872  68.1657373  67.9926326  59.6915872  67.3557373  68.5916326
  58.7145872  68.4077373  67.7846326  60.1305872  67.9207373  67.1096326
  65.9605872  70.6547373  71.1916326  67.0995872  70.7977373  70.7796326
  65.6785872  70.0317373  72.3886326  64.6975872  69.9187373  72.6196326
  66.6825872  69.4947373  73.3306326  67.6195872  69.3527373  72.7936326
  66.9505872  70.4887373  74.4866326  66.0085872  70.7017373  74.9926326
  67.9445872  69.9687373  75.5346326  68.9005872  69.6927373  75.0716326
  68.1425872  70.7337373  76.2966326  67.5465872  69.0927373  76.0616326
  67.5205872  71.8087373  73.9526326  66.7875872  72.3257373  73.3236326
  67.7905872  72.4777373  74.7776326  68.4205872  71.6237373  73.3546326
  66.2535872  68.1227373  73.8606326  65.0695872  67.8857373  74.0496326
  67.2515872  67.2047373  74.1126326  68.2045872  67.5137373  73.9126326
  67.0735872  65.8527373  74.6726326  66.1135872  65.8177373  75.1876326
  67.0475872  64.7827373  73.5506326  66.8905872  63.8167373  74.0326326
  65.8525872  65.0067373  72.6066326  66.0035872  65.8927373  71.9776326
  65.7045872  64.1397373  71.9516326  64.9275872  65.1477373  73.1816326
  68.3875872  64.7047373  72.7826326  68.5685872  65.6457373  72.2616326
  69.1945872  64.5497373  73.4976326  68.4645872  63.5597373  71.7656326
  67.7495872  63.7037373  70.9476326  69.4695872  63.5147373  71.3266326
  68.2595872  62.5967373  72.2496326  68.1555872  65.5287373  75.7206326
  69.2025872  66.1517373  75.7456326  67.9075872  64.4927373  76.6016326
  67.0285872  64.0067373  76.4826326  68.9385872  63.8647373  77.4526326
  69.6565872  64.6207373  77.7706326  68.2965872  63.2327373  78.7026326
  67.5575872  62.4937373  78.3886326  69.0665872  62.7047373  79.2686326
  67.6195872  64.2367373  79.6506326  66.8035872  64.7397373  79.1306326
  67.1925872  63.6687373  80.4786326  68.5945872  65.2897373  80.2056326
  69.4645872  64.7947373  80.6416326  68.9415872  65.9247373  79.3906326
  67.9375872  66.1947373  81.2546326  68.6495872  66.9817373  81.5226326
  67.0575872  66.6747373  80.8166326  67.5585872  65.4547373  82.4796326
  68.3865872  65.0117373  82.8906326  67.1935872  66.0967373  83.1786326
  66.8925872  64.7227373  82.2946326  69.7495872  62.8197373  76.6756326
  69.3185872  62.3527373  75.6356326  70.9585872  62.4417373  77.2176326
  71.2225872  62.9257373  78.0786326  71.8955872  61.4267373  76.7066326
  71.3505872  60.7087373  76.0926326  73.0105872  62.0887373  75.8676326
  73.6095872  62.7057373  76.5366326  73.6705872  61.3117373  75.4776326
  72.5675872  62.9877373  74.7006326  71.9155872  63.7737373  75.0806326
  73.4565872  63.4827373  74.3136326  71.8445872  62.2717373  73.5436326
  70.9635872  61.7627373  73.9346326  71.4955872  63.0217373  72.8326326
  72.6785872  61.2817373  72.8286326  72.3845872  60.3207373  72.8906326
  73.7195872  61.5147373  72.0456326  74.2075872  62.7037373  71.8496326
  73.8045872  63.5067373  72.2846326  75.1065872  62.7847373  71.3666326
  74.3005872  60.5327373  71.4246326  73.9595872  59.5927373  71.4826326
  75.0605872  60.7537373  70.7856326  72.5375872  60.6607373  77.8716326
  72.6225872  61.1587373  78.9826326  73.0715872  59.4297373  77.5906326
  73.0355872  59.1027373  76.6336326  74.0345872  58.7607373  78.4746326
  73.5875872  58.6427373  79.4596326  74.4035872  57.3697373  77.9306326
  75.3285872  57.0317373  78.3996326  73.3105872  56.3447373  78.2196326
  72.3685872  56.6277373  77.7336326  73.6135872  55.3627373  77.8396326
  73.1375872  56.2557373  79.2986326  74.5715872  57.4037373  76.5326326
  74.9885872  56.5347373  76.2636326  75.2985872  59.6127373  78.6286326
  75.7915872  60.1867373  77.6736326  75.8365872  59.7127373  79.8956326
  75.3835872  59.2007373  80.6376326  77.1325872  60.3507373  80.1676326
  77.1815872  61.2557373  79.5696326  77.2655872  60.7657373  81.6506326
  76.4755872  61.4857373  81.8626326  77.1025872  59.5947373  82.6306326
  77.8655872  58.8247373  82.4636326  77.1995872  59.9517373  83.6646326
  76.1125872  59.1347373  82.5376326  78.6075872  61.4507373  81.9406326
  78.7845872  62.2747373  81.2386326  78.6095872  61.8717373  82.9526326
  79.4445872  60.7447373  81.8736326  78.2855872  59.4637373  79.6976326
  78.2305872  58.2507373  79.8286326  79.3895872  60.0867373  79.1616326
  79.3325872  61.1007373  79.0386326  80.6045872  59.3527373  78.7976326
  80.8995872  58.7237373  79.6366326  80.3735872  58.7037373  77.9526326
  81.8155872  60.2027373  78.4106326  82.9005872  59.6617373  78.2786326
  81.6605872  61.5627373  78.2146326  80.7315872  61.9667373  78.3586326
  82.7685872  62.4437373  77.8146326  83.3345872  61.8957373  77.0616326
  82.2025872  63.7077373  77.1446326  81.4945872  64.1987373  77.8106326
  83.0135872  64.4007373  76.9196326  81.5045872  63.3207373  75.8286326
  82.2175872  62.7797373  75.2036326  80.6575872  62.6667373  76.0346326
  80.9955872  64.5287373  75.0396326  80.1875872  65.0137373  75.5906326
  81.8085872  65.2457373  74.9206326  80.5395872  64.1067373  73.7036326
  81.2465872  63.9827373  72.9756326  79.3345872  63.7287373  73.3286326
  78.3025872  63.6807373  74.1246326  78.4085872  63.8507373  75.1306326
  77.4325872  63.3497373  73.7606326  79.1735872  63.3767373  72.0916326
  80.0205872  63.3267373  71.5206326  78.2725872  63.0827373  71.7176326
  83.7575872  62.6907373  78.9746326  83.3945872  62.5397373  80.1336326
  85.0835872  63.0027373  78.6736326  85.5975872  63.3467373  77.3396326
  85.3535872  64.3937373  77.1186326  85.1955872  62.6977373  76.5526326
  87.1175872  63.1747373  77.4416326  87.6615872  63.8647373  76.7836326
  87.3755872  62.1467373  77.1636326  87.4445872  63.3927373  78.9246326
  87.5745872  64.4657373  79.1206326  88.3525872  62.8617373  79.2396326
  86.1885872  62.8567373  79.6286326  86.3255872  61.7897373  79.8056326
  85.9575872  63.5547373  80.9736326  85.6545872  64.7347373  81.0166326
  86.1755872  62.7897373  82.1076326  86.4245872  61.8227373  81.9396326
  86.1105872  63.2637373  83.5066326  86.2415872  62.3947373  84.1526326
  87.3015872  64.2067373  83.7886326  87.2835872  65.0267373  83.0696326
  87.2035872  64.6447373  84.7836326  88.6585872  63.4757373  83.7276326
  88.9135872  63.1217373  84.7276326  88.5995872  62.6087373  83.0676326
  89.7705872  64.3897373  83.2016326  89.5445872  64.6527373  82.1656326
  89.8125872  65.3017373  83.7986326  91.1225872  63.6717373  83.2706326
  91.4865872  63.7097373  84.3016326  90.9865872  62.6197373  83.0036326
  92.1155872  64.2777373  82.3576326  92.1025872  65.2907373  82.4356326
  93.0585872  63.9487373  82.5526326  91.8825872  64.0557373  81.3936326
  84.7385872  63.8267373  83.9336326  84.6505872  64.5787373  84.8876326
  83.6205872  63.4077373  83.2416326  83.7715872  62.8447373  82.4116326
  82.2475872  63.7167373  83.6446326  82.1195872  64.7997373  83.6586326
  81.5565872  63.3037373  82.9096326  81.8785872  63.1447373  85.0226326
  81.9185872  61.9437373  85.2356326  81.4845872  64.0547373  85.9816326
  81.6165872  65.0297373  85.7456326  81.0175872  63.7257373  87.3426326
  81.3625872  62.7227373  87.5996326  81.6665872  64.7017373  88.3476326
  81.3775872  64.4017373  89.3546326  82.7495872  64.6037373  88.2646326
  81.2785872  66.1787373  88.1486326  81.5145872  66.4777373  87.1246326
  80.1995872  66.2827373  88.2836326  82.0115872  67.1327373  89.1086326
  83.2515872  67.0207373  89.2666326  81.3465872  68.0507373  89.6556326
  79.4785872  63.6977373  87.4766326  78.9465872  63.2057373  88.4586326
  78.7275872  64.2387373  86.4546326  79.2355872  64.5577373  85.6456326
  77.2655872  64.2477373  86.4156326  76.8945872  64.4307373  87.4256326
  76.8035872  65.4067373  85.5236326  77.1415872  65.2627373  84.4896326
  75.7075872  65.4697373  85.5126326  77.1935872  66.3647373  85.8926326
  76.6795872  62.9077373  85.9316326  77.2125872  62.2647373  85.0486326
  75.4825872  62.5217373  86.4886326  75.1925872  63.0557373  87.3016326
  74.7385872  61.2857373  86.1926326  75.4155872  60.4347373  86.2826326
  73.6085872  61.1517373  87.2376326  73.1985872  62.1417373  87.4486326
  72.7925872  60.5547373  86.8266326  74.0135872  60.4867373  88.5616326
  73.2155872  60.6487373  89.2876326  74.0755872  59.4117373  88.3786326
  75.3465872  60.9587373  89.1596326  75.5975872  62.1767373  89.3046326
  76.1865872  60.0987373  89.5046326  74.1435872  61.2127373  84.7686326
  73.5355872  60.2177373  84.4056326  74.2715872  62.3007373  83.9356326
  74.8545872  63.0607373  84.2626326  73.6655872  62.4137373  82.6066326
  73.7295872  61.4437373  82.1126326  72.1745872  62.7737373  82.7446326
  71.7295872  62.7737373  81.7486326  71.6935872  61.9917373  83.3296326
  71.8825872  64.1277373  83.4216326  72.3005872  64.1247373  84.4296326
  72.3685872  64.9237373  82.8536326  70.3815872  64.4437373  83.5126326
  69.5305872  63.6507373  83.0476326  70.0135872  65.5467373  83.9916326
  74.3925872  63.4267373  81.7116326  75.0225872  64.3607373  82.1846326
  74.2415872  63.2517373  80.3566326  73.6485872  62.4777373  80.0576326
  74.5305872  64.2737373  79.3486326  74.9065872  65.1687373  79.8366326
  75.6325872  63.7937373  78.3786326  75.4595872  62.7557373  78.1016326
  75.6135872  64.4007373  77.4726326  77.0195872  63.9457373  79.0226326
  77.1445872  64.9877373  79.3236326  77.0615872  63.3507373  79.9336326
  78.1875872  63.5787373  78.0906326  78.2045872  64.0367373  76.9206326
  79.1595872  62.9627373  78.5906326  73.2395872  64.7307373  78.6516326
  72.1385872  64.2957373  78.9566326  73.3705872  65.7037373  77.6986326
  74.3065872  66.0377373  77.4896326  72.2715872  66.3757373  77.0196326
  71.4515872  65.6727373  76.8916326  71.7675872  67.5497373  77.8766326
  71.0775872  68.1537373  77.2846326  71.2015872  67.1337373  78.7116326
  72.8615872  68.4597373  78.4506326  73.9665872  68.5967373  77.8736326
  72.5985872  69.1267373  79.4756326  72.7045872  66.8197373  75.6186326
  73.8785872  67.0077373  75.3466326  71.7145872  66.9657373  74.6786326
  70.7525872  66.8157373  74.9826326  71.9805872  67.2557373  73.2736326
  72.9545872  67.7377373  73.2356326  72.0825872  65.9347373  72.4926326
  72.8345872  65.3087373  72.9716326  71.1285872  65.4167373  72.5566326
  72.4585872  66.0517373  71.0126326  72.4605872  65.0477373  70.5806326
  71.6925872  66.6287373  70.4926326  73.8255872  66.7097373  70.7956326
  73.9705872  67.9077373  71.1216326  74.7115872  66.0547373  70.2066326
  70.9765872  68.2507373  72.6766326  69.7975872  68.2447373  73.0016326
  71.4995872  69.1687373  71.7896326  72.4805872  69.0107373  71.5376326
  70.8705872  70.4187373  71.3466326  69.8605872  70.4877373  71.7526326
  71.7085872  71.5957373  71.8846326  72.7365872  71.4687373  71.5406326
  71.3385872  72.5327373  71.4756326  71.6835872  71.6857373  73.4246326
  70.7695872  72.1837373  73.7476326  71.6905872  70.6867373  73.8556326
  72.9025872  72.4507373  73.9606326  73.8095872  72.0767373  73.4866326
  72.8065872  73.4997373  73.6836326  73.0485872  72.3357373  75.4266326
  72.8465872  73.1587373  75.9736326  73.4465872  71.2707373  76.1016326
  73.7075872  70.1287373  75.5396326  73.7605872  70.0487373  74.5296326
  73.9745872  69.3377373  76.1226326  73.5965872  71.3157373  77.3896326
  73.5665872  72.1807373  77.9146326  73.8265872  70.4437373  77.8626326
  70.7735872  70.4107373  69.8246326  71.7695872  70.3857373  69.1246326
  69.5075872  70.3707373  69.2996326  68.7415872  70.4537373  69.9646326
  69.1905872  69.9487373  67.9366326  70.0785872  69.4837373  67.5046326
  68.0855872  68.8747373  67.9956326  67.1585872  69.3537373  68.3126326
  67.9335872  68.4747373  66.9946326  68.3765872  67.6907373  68.9446326
  68.6055872  68.0527373  69.9466326  67.1475872  66.7937373  69.0556326
  66.8665872  66.3967373  68.0746326  67.3445872  65.9507373  69.7286326
  66.2975872  67.3567373  69.4596326  69.5405872  66.8347373  68.4476326
  70.4685872  67.4167373  68.4056326  69.7115872  65.9917373  69.1276326
  69.3295872  66.4287373  67.4516326  68.8285872  71.1437373  67.0386326
  68.0585872  72.0067373  67.4186326  69.4055872  71.1697373  65.7956326
  70.0005872  70.3757373  65.5756326  69.3935872  72.2447373  64.7996326
  68.7235872  73.0477373  65.1076326  70.8225872  72.7977373  64.6766326
  71.5075872  71.9757373  64.4276326  70.8675872  73.4757373  63.8186326
  71.3675872  73.5347373  65.8956326  72.0005872  72.8367373  66.9456326
  72.0575872  71.7587373  66.9146326  72.5545872  73.5377373  68.0376326
  73.0155872  72.9947373  68.8506326  72.4985872  74.9497373  68.0666326
  72.9725872  75.6657373  69.1216326  73.7575872  75.2677373  69.5496326
  71.8875872  75.6387373  67.0016326  71.8905872  76.7107373  67.0056326
  71.2995872  74.9367373  65.9376326  70.8145872  75.4797373  65.1406326
  68.9235872  71.7077373  63.4356326  69.0425872  70.5207373  63.1786326
  68.3865872  72.5927373  62.5266326  68.3265872  73.5727373  62.8126326
  67.8595872  72.2177373  61.2056326  67.6555872  71.1457373  61.2126326
  66.5085872  72.9147373  60.9636326  65.9095872  72.2917373  60.2986326
  65.9685872  73.0207373  61.9046326  66.6665872  74.1837373  60.3576326
  66.2995872  74.8797373  60.9936326  68.8205872  72.4777373  60.0306326
  69.8835872  73.0697373  60.1626326  68.3615872  72.0827373  58.7926326
  67.4835872  71.5797373  58.7876326  68.9655872  72.4347373  57.5046326
  69.9435872  71.9587373  57.4296326  68.0455872  71.8637373  56.4106326
  67.9215872  70.7857373  56.5836326  67.0435872  72.3007373  56.5266326
  68.4895872  72.0777373  54.9686326  69.0725872  71.0197373  54.2456326
  69.2295872  70.0597373  54.7186326  69.4355872  71.1987373  52.8986326
  69.8755872  70.3777373  52.3486326  69.2325872  72.4427373  52.2726326
  69.5145872  72.5877373  51.2386326  68.6495872  73.5007373  52.9896326
  68.4725872  74.4547373  52.5096326  68.2695872  73.3147373  54.3286326
  67.8055872  74.1327373  54.8636326  69.1565872  73.9547373  57.3166326
  70.1005872  74.3737373  56.6706326  68.2525872  74.8167373  57.9036326
  67.5275872  74.4037373  58.4876326  68.3075872  76.2827373  57.7856326
  68.8325872  76.5367373  56.8646326  66.8805872  76.8557373  57.7096326
  66.2895872  76.4537373  58.5346326  66.9185872  77.9397373  57.8266326
  66.1695872  76.5467373  56.3836326  66.1685872  75.4697373  56.2036326
  65.1295872  76.8687373  56.4666326  66.8335872  77.2797373  55.2116326
  66.3865872  78.3977373  54.8606326  67.8395872  76.7847373  54.6606326
  69.1115872  76.9617373  58.9056326  69.4105872  78.1437373  58.8156326
  69.5075872  76.1997373  59.9806326  69.1925872  75.2327373  59.9896326
  70.4735872  76.6297373  60.9996326  70.3655872  77.7017373  61.1726326
  70.1795872  75.8937373  62.3106326  70.2505872  74.8217373  62.1306326
  70.9375872  76.1627373  63.0426326  68.8075872  76.2257373  62.8836326
  68.4375872  77.4167373  62.9216326  68.0715872  75.2847373  63.2536326
  71.9325872  76.3627373  60.5976326  72.8425872  76.8127373  61.2786326
  72.1575872  75.5847373  59.4796326  71.3345872  75.3117373  58.9536326
  73.4335872  74.9537373  59.1066326  74.2265872  75.3787373  59.7186326
  73.3995872  73.4417373  59.3876326  74.3105872  72.9927373  58.9966326
  73.3285872  73.1247373  60.8756326  72.4615872  73.5947373  61.3536326
  73.2555872  72.0447373  61.0206326  74.2405872  73.4667373  61.3746326
  72.3045872  72.8097373  58.7626326  71.5265872  72.9027373  59.3776326
  73.8305872  75.2177373  57.6506326  73.0305872  75.6457373  56.8376326
  75.1415872  74.9827373  57.3166326  75.7435872  74.6227373  58.0576326
  75.7885872  75.3677373  56.0586326  75.0325872  75.4447373  55.2756326
  76.4315872  76.7497373  56.2566326  75.6345872  77.4787373  56.3866326
  77.0205872  76.7357373  57.1726326  77.3405872  77.2357373  55.1236326
  77.8315872  78.1437373  55.4646326  78.1265872  76.5087373  54.9166326
  76.5465872  77.5417373  53.8546326  76.5045872  78.7367373  53.4586326
  75.9285872  76.6197373  53.2776326  76.8175872  74.3217373  55.6096326
  77.4795872  73.7127373  56.4326326  76.9525872  74.0987373  54.2566326
  76.4785872  74.7647373  53.6426326  77.8125872  73.0657373  53.6726326
  77.6035872  72.1307373  54.1906326  77.4345872  72.8977373  52.1886326
  76.3515872  72.7967373  52.1016326  77.7275872  73.8067373  51.6606326
  78.0985872  71.6877373  51.5046326  79.1695872  71.6847373  51.7076326
  77.4905872  70.3677373  51.9836326  76.4115872  70.3347373  51.7906326
  77.9575872  69.5207373  51.4706326  77.6505872  70.2247373  53.0566326
  77.8915872  71.7687373  49.9936326  78.3275872  72.6937373  49.5966326
  78.3785872  70.9247373  49.4906326  76.8245872  71.7557373  49.7406326
  79.3085872  73.3807373  53.8636326  79.8135872  74.3797373  53.3806326
  80.0605872  72.4647373  54.5626326  79.5935872  71.6117373  54.8626326
  81.5035872  72.5747373  54.7526326  81.7555872  73.6307373  54.8506326
  81.9225872  71.8887373  56.0616326  81.3045872  72.2777373  56.8806326
  81.7055872  70.8137373  56.0026326  83.3945872  72.0957373  56.4096326
  83.8085872  73.2847373  57.0436326  83.0805872  74.0457373  57.2896326
  85.1705872  73.4927373  57.3466326  85.4925872  74.4047373  57.8276326
  86.1255872  72.5087373  57.0086326  87.4405872  72.6907373  57.2936326
  87.6315872  73.5157373  57.8076326  85.7095872  71.3187373  56.3746326
  86.4485872  70.5757373  56.1066326  84.3475872  71.1127373  56.0766326
  84.0375872  70.2077373  55.5696326  82.2625872  72.0247373  53.5366326
  82.5005872  70.8327373  53.4236326  82.6815872  72.9537373  52.6116326
  82.3465872  73.9017373  52.7446326  83.7105872  72.7007373  51.5956326
  83.9505872  71.6387373  51.5976326  83.2125872  73.0417373  50.1706326
  83.0675872  74.1207373  50.0946326  84.3035872  72.6337373  49.1596326
  84.4385872  71.5427373  49.1516326  84.0435872  72.9557373  48.1456326
  85.2705872  73.0937373  49.3966326  81.8515872  72.3657373  49.8726326
  81.9055872  71.3097373  50.1286326  81.0905872  72.8207373  50.5076326
  81.3695872  72.4927373  48.4226326  82.0175872  71.9317373  47.7366326
  80.3565872  72.0847373  48.3226326  81.3465872  73.5447373  48.1116326
  84.9585872  73.5167373  51.9846326  84.8875872  74.7407373  51.9626326
  86.1185872  72.8727373  52.3996326  86.2925872  71.4207373  52.4896326
  86.0665872  70.9357373  51.5306326  85.6365872  71.0207373  53.2736326
  87.7635872  71.2077373  52.8646326  88.3435872  71.0327373  51.9556326
  87.9035872  70.3497373  53.5346326  88.2225872  72.5217373  53.5106326
  89.2895872  72.7157373  53.3366326  88.0465872  72.4847373  54.5916326
  87.3105872  73.5837373  52.8756326  87.0045872  74.2827373  53.6536326
  88.0205872  74.3807373  51.7616326  87.8425872  74.0887373  50.5866326
  88.8595872  75.4297373  52.1336326  89.1445872  75.8347373  53.5176326
  89.4085872  74.9757373  54.1476326  88.2685872  76.3477373  53.9336326
  90.3285872  76.8047373  53.4116326  91.2655872  76.2437373  53.5086326
  90.3045872  77.5797373  54.1886326  90.2345872  77.3927373  51.9956326
  91.2095872  77.7177373  51.6106326  89.5485872  78.2507373  51.9916326
  89.6235872  76.2417373  51.1826326  88.9465872  76.6557373  50.4356326
  90.6915872  75.4177373  50.4476326  91.0845872  74.3467373  50.8796326
  91.1775872  75.9477373  49.2736326  90.9065872  76.9037373  49.0506326
  92.0995872  75.2457373  48.3836326  91.6595872  74.2787373  48.1396326
  92.2955872  76.0437373  47.0816326  92.7955872  76.9817373  47.3316326
  92.9615872  75.4827373  46.4286326  91.0075872  76.3777373  46.3076326
  90.3665872  77.0137373  46.9166326  91.3775872  77.1417373  45.0386326
  91.9065872  76.5017373  44.3226326  90.4805872  77.5587373  44.5706326
  92.0355872  77.9827373  45.2886326  90.2145872  75.1377373  45.8886326
  89.8805872  74.5847373  46.7746326  89.3175872  75.4277373  45.3286326
  90.8285872  74.4747373  45.2706326  93.4525872  74.9747373  49.0536326
  94.0565872  75.8617373  49.6396326  93.9795872  73.7177373  48.8606326
  93.4305872  73.0867373  48.2836326  95.3185872  73.3057373  49.2716326
  95.4015872  73.4137373  50.3546326  95.4885872  71.8237373  48.9136326
  95.3795872  71.6657373  47.8326326  96.4795872  71.4587373  49.2076326
  94.7355872  71.2147373  49.4296326  96.4105872  74.1837373  48.6276326
  96.1915872  74.8137373  47.5996326  97.6395872  74.2097373  49.2416326
  97.7585872  73.5947373  50.0476326  98.8075872  74.9067373  48.6996326
  98.5855872  75.9717373  48.6256326  99.9935872  74.7287373  49.6496326
  99.7825872  75.2177373  50.6026326 100.1385872  73.6627373  49.8206326
 101.1785872  75.2617373  49.0866326 101.9495872  74.7487373  49.4616326
  99.1775872  74.3757373  47.3096326  99.0705872  73.1907373  47.0396326
  99.7365872  75.2637373  46.4146326  99.8465872  76.2197373  46.7266326
 100.3505872  74.8387373  45.1536326  99.6025872  74.3017373  44.5686326
 100.7655872  76.0917373  44.3766326 101.5385872  76.6547373  44.9176326
 101.1705872  75.8117373  43.3946326  99.9045872  76.7507373  44.2076326
 101.5425872  73.8767373  45.3706326 101.8975872  73.1287373  44.4756326
 102.1365872  73.8567373  46.6196326 101.7755872  74.5247373  47.2956326
 103.1655872  72.9107373  47.0676326 103.8725872  72.7677373  46.2496326
 103.9295872  73.5247373  48.2486326 104.8785872  73.0037373  48.3596326
 104.1505872  74.5697373  48.0356326 103.2045872  73.4407373  49.4686326
 103.8415872  73.0507373  50.1406326 102.6255872  71.5207373  47.4496326
 103.4015872  70.6187373  47.7206326 101.2585872  71.3307373  47.5026326
 100.6725872  72.1227373  47.2486326 100.5915872  70.0977373  47.9336326
  99.6515872  70.0057373  47.3916326 101.2165872  69.2407373  47.6806326
 100.2735872  70.0187373  49.4326326  99.6115872  69.0867373  49.8436326
 100.7105872  71.0217373  50.2776326 101.2705872  71.7557373  49.8676326
 100.2885872  71.1227373  51.6856326 100.5305872  70.1767373  52.1686326
 101.0825872  72.2297373  52.4086326 102.1125872  71.8927373  52.5336326
 101.1095872  73.1087373  51.7656326 100.5445872  72.6957373  53.7776326
 101.1605872  73.5387373  54.0966326  99.5285872  73.0767373  53.6586326
 100.5605872  71.6377373  54.8926326 100.6605872  72.0337373  56.0796326
 100.5155872  70.4147373  54.6196326  98.7635872  71.3047373  51.8116326
  98.1485872  72.0607373  51.0746326  98.1445872  70.5827373  52.8076326
  98.7735872  70.1207373  53.4656326  96.6945872  70.4517373  53.0166326
  96.1735872  71.0577373  52.2756326  96.2805872  68.9677373  52.8006326
  96.9955872  68.3457373  53.3426326  94.8745872  68.6187373  53.3316326
  94.1075872  69.2607373  52.8786326  94.6125872  67.5777373  53.1126326
  94.8225872  68.7267373  54.4216326  96.3525872  68.6017373  51.2986326
  95.4735872  68.9897373  50.7816326  97.2245872  69.0707373  50.8496326
  96.4725872  67.0937373  51.0366326  95.5785872  66.5517373  51.3646326
  96.6055872  66.9077373  49.9636326  97.3445872  66.6827373  51.5616326
  96.3075872  71.0017373  54.3976326  97.1015872  70.9957373  55.3216326
  95.0115872  71.4467373  54.5576326  94.4185872  71.4147373  53.7366326
  94.3535872  71.8117373  55.8256326  94.9715872  72.5407373  56.3496326
  92.9875872  72.4637373  55.5346326  92.4815872  72.6707373  56.4766326
  93.1085872  73.7717373  54.7526326  93.5285872  73.6037373  53.7526326
  92.1175872  74.2247373  54.6356326  93.7495872  74.4797373  55.2926326
  92.1905872  71.5817373  54.7756326  91.9685872  70.8447373  55.3896326
  94.1895872  70.5957373  56.7576326  93.0875872  70.1457373  57.0296326
  95.3435872  69.9877373  57.2086326  96.2145872  70.4037373  56.8796326
  95.4015872  68.8117373  58.0856326  94.6815872  68.0757373  57.7236326
  96.8075872  68.1957373  58.0346326  97.5635872  68.9827373  58.0716326
  96.9415872  67.5497373  58.9016326  96.9865872  67.3457373  56.7686326
  96.2635872  66.5287373  56.7996326  96.7945872  67.9527373  55.8836326
  98.4025872  66.7667373  56.6786326  99.1005872  67.5577373  56.4056326
  98.6905872  66.3487373  57.6436326  98.4345872  65.6617373  55.6246326
  97.7195872  64.8877373  55.9146326  98.1265872  66.0757373  54.6606326
  99.7775872  65.0607373  55.4956326 100.1125872  64.6817373  56.3736326
  99.7855872  64.3447373  54.7686326 100.4645872  65.7437373  55.1776326
  94.9945872  69.1447373  59.5216326  95.3495872  70.1917373  60.0426326
  94.2395872  68.1907373  60.1616326  94.0285872  67.3577373  59.6176326
  93.6825872  68.3007373  61.5086326  93.3825872  69.3407373  61.6566326
  92.3985872  67.4347373  61.5746326  91.7935872  67.7657373  62.4176326
  91.7985872  67.6087373  60.6796326  92.5945872  65.9287373  61.7236326
  93.6805872  65.3937373  61.8276326  91.4815872  65.1697373  61.8066326
  91.6005872  64.1907373  61.9726326  90.5615872  65.6297373  61.7946326
  94.7025872  67.9767373  62.6246326  95.8855872  67.7697373  62.3896326
  94.1825872  67.8697373  63.8976326  93.2025872  68.1067373  64.0096326
  94.9015872  67.5577373  65.1456326  95.4725872  68.4317373  65.4546326
  93.8665872  67.2297373  66.2386326  93.4815872  66.2217373  66.0786326
  94.4295872  67.3277373  67.6496326  94.8005872  68.3407373  67.8476326
  93.6565872  67.0847373  68.3896326  95.2565872  66.6207373  67.7896326
  92.7805872  68.1297373  66.1766326  92.2495872  67.9927373  66.9836326
  95.8635872  66.3697373  65.0346326  96.8895872  66.3467373  65.6916326
  95.5535872  65.3667373  64.1406326  94.7135872  65.4977373  63.5846326
  96.2715872  64.0957373  64.0136326  97.0785872  64.0767373  64.7476326
  95.3025872  62.9557373  64.3676326  94.5945872  62.8277373  63.5386326
  95.8615872  62.0137373  64.4426326  94.5235872  63.1647373  65.6656326
  93.1155872  63.2127373  65.6486326  92.5755872  63.0827373  64.7226326
  92.4015872  63.4237373  66.8406326  91.3225872  63.4397373  66.8316326
  93.0875872  63.6047373  68.0536326  92.5345872  63.7637373  68.9706326
  94.4915872  63.5667373  68.0736326  95.0205872  63.7027373  69.0076326
  95.2075872  63.3427373  66.8846326  96.2875872  63.3107373  66.9106326
  96.9455872  63.9107373  62.6406326  97.3575872  62.8137373  62.3006326
  97.0455872  65.0087373  61.8056326  96.6605872  65.8847373  62.1556326
  97.6405872  64.9797373  60.4626326  97.9065872  65.9957373  60.1766326
  98.5555872  64.3897373  60.4976326  96.7335872  64.3867373  59.3716326
  97.1795872  64.1817373  58.2546326  95.4285872  64.1107373  59.7116326
  95.1395872  64.4197373  60.6356326  94.3975872  63.5617373  58.8286326
  94.8635872  63.1287373  57.9426326  93.6735872  62.4347373  59.5946326
  93.1585872  62.8667373  60.4506326  92.9305872  61.9627373  58.9546326
  94.6145872  61.3427373  60.0796326  95.5445872  60.9457373  59.4186326
  94.3935872  60.8047373  61.3016326  95.0615872  60.1057373  61.5816326
  93.6225872  61.1207373  61.8596326  93.4405872  64.6737373  58.3516326
  93.6685872  65.8457373  58.6096326  92.3125872  64.3037373  57.6516326
  92.2115872  63.3207373  57.3956326  91.2225872  65.2287373  57.3106326
  91.2115872  66.0187373  58.0626326  91.4965872  65.9067373  55.9456326
  92.4785872  66.3777373  56.0136326  91.5425872  64.8947373  54.7856326
  90.5515872  64.4697373  54.5956326  91.8915872  65.3737373  53.8646326
  92.2235872  64.0637373  55.0046326  90.4655872  67.0217373  55.6636326
  89.4935872  66.5807373  55.4346326  90.3575872  67.6337373  56.5596326
  90.8675872  67.9547373  54.5126326  90.8895872  67.4217373  53.5546326
  90.1435872  68.7747373  54.4236326  91.8575872  68.3937373  54.6956326
  89.8545872  64.5357373  57.3916326  89.7005872  63.3927373  56.9956326
  88.8195872  65.2437373  57.9546326  89.0245872  66.1597373  58.3536326
  87.4345872  64.7717373  57.9976326  87.4305872  63.7247373  58.2866326
  86.6385872  65.5537373  59.0526326  86.6495872  66.6197373  58.8236326
  85.6025872  65.2217373  58.9846326  87.1155872  65.3087373  60.4996326
  86.2845872  65.5427373  61.1686326  87.3405872  64.2477373  60.6276326
  88.3205872  66.1517373  60.9536326  88.7815872  67.0507373  60.2166326
  88.7905872  65.9337373  62.0976326  86.7535872  64.8577373  56.6216326
  86.6595872  65.9207373  56.0346326  86.2265872  63.6877373  56.1086326
  86.3485872  62.8427373  56.6666326  85.5525872  63.5507373  54.8056326
  85.1485872  64.5267373  54.5546326  86.5165872  63.1437373  53.6616326
  86.6895872  62.0687373  53.7076326  85.9265872  63.4937373  52.2856326
  85.7745872  64.5757373  52.1896326  86.6025872  63.1727373  51.4856326
  84.9625872  62.9967373  52.1286326  87.8865872  63.8247373  53.7246326
  88.4205872  63.5247373  54.6326326  88.5015872  63.5257373  52.8706326
  87.7845872  64.9177373  53.7226326  84.3505872  62.6027373  54.9286326
  84.1715872  61.6747373  54.1606326  83.4835872  62.8407373  55.9746326
  83.7225872  63.6027373  56.5966326  82.2765872  62.0477373  56.2406326
  82.5735872  61.0147373  56.4156326  81.5875872  62.5847373  57.4986326
  81.2195872  63.5967373  57.2856326  80.7005872  61.9707373  57.7036326
  82.4495872  62.6147373  58.7536326  82.7745872  61.4127373  59.4096326
  82.4025872  60.4747373  59.0286326  83.5745872  61.4297373  60.5656326
  83.8245872  60.5007373  61.0606326  84.0405872  62.6527373  61.0776326
  84.6575872  62.6687373  61.9646326  83.6925872  63.8567373  60.4426326
  84.0345872  64.7967373  60.8466326  82.9035872  63.8397373  59.2786326
  82.6345872  64.7697373  58.7956326  81.2825872  62.0517373  55.0666326
  80.5385872  61.0987373  54.8876326  81.3175872  63.1427373  54.2216326
  81.9815872  63.8667373  54.4686326  80.6305872  63.2637373  52.9426326
  80.2575872  62.2787373  52.6606326  79.4335872  64.2067373  53.1176326
  79.7685872  65.2097373  53.4116326  78.8645872  64.2957373  52.1836326
  78.7565872  63.8287373  53.8956326  81.6095872  63.7577373  51.8526326
  82.4615872  64.5897373  52.1306326  81.4735872  63.3017373  50.5426326
  80.4225872  62.3897373  50.0736326  79.4235872  62.7457373  50.3546326
  80.5955872  61.3907373  50.4966326  80.5825872  62.3517373  48.5486326
  79.9575872  63.1317373  48.0926326  80.2905872  61.3827373  48.1246326
  82.0665872  62.6717373  48.3036326  82.2435872  63.1167373  47.3156326
  82.6615872  61.7527373  48.3836326  82.4235872  63.6157373  49.4636326
  83.4335872  63.3817373  49.8046326  82.4245872  65.0937373  49.0336326
  83.2365872  65.4937373  48.2156326  81.5065872  65.9497373  49.6036326
  80.8695872  65.5527373  50.2836326  81.5195872  67.4127373  49.4596326
  81.6245872  67.6717373  48.4066326  80.2055872  68.0137373  49.9836326
  80.2495872  69.1007373  49.9056326  78.9935872  67.5157373  49.1956326
  78.8495872  66.4367373  49.3236326  78.0855872  68.0247373  49.5396326
  79.1165872  67.7267373  48.1266326  80.0055872  67.6497373  51.3336326
  80.4275872  68.3287373  51.8996326  82.6805872  68.0647373  50.2136326
  83.1215872  69.1267373  49.8246326  83.2105872  67.4147373  51.3106326
  82.8085872  66.5097373  51.5456326  84.2305872  67.9737373  52.2126326
  83.9745872  69.0147373  52.4096326  84.2025872  67.2157373  53.5526326
  84.4965872  66.1857373  53.3636326  84.9285872  67.6607373  54.2336326
  82.8265872  67.2117373  54.2376326  82.5545872  68.2347373  54.5026326
  82.0815872  66.8397373  53.5356326  82.7265872  66.1647373  55.7176326
  83.5985872  67.2107373  56.9166326  83.0705872  68.1647373  57.0386326
  83.6405872  66.7107373  57.8906326  84.6235872  67.4097373  56.5806326
  85.6535872  67.9827373  51.6136326  86.6125872  68.2917373  52.2966326
  85.8195872  67.6197373  50.2946326  84.9705872  67.4697373  49.7646326
  87.1025872  67.6557373  49.5826326  87.8705872  67.2817373  50.2566326
  87.0585872  66.7297373  48.3406326  86.2825872  67.1067373  47.6716326
  88.3995872  66.7597373  47.5806326  89.2165872  66.3777373  48.2046326
  88.3465872  66.1597373  46.6666326  88.6505872  67.7767373  47.2606326
  86.7015872  65.2697373  48.7156326  87.5145872  64.8257373  49.2906326
  85.8085872  65.2587373  49.3406326  86.3955872  64.3877373  47.4976326
  87.3035872  64.1657373  46.9256326  85.9605872  63.4357373  47.8246326
  85.6715872  64.8757373  46.8336326  87.4235872  69.1127373  49.1866326
  86.6115872  69.7397373  48.5246326  88.6495872  69.6837373  49.5216326
  89.7085872  69.0497373  50.3146326  89.9565872  68.0557373  49.9236326
  89.3795872  68.9667373  51.3596326  90.9195872  69.9907373  50.2036326
  91.6015872  69.6207373  49.4296326  91.4775872  70.0557373  51.1476326
  90.3525872  71.3547373  49.7746326  91.0555872  71.9327373  49.1596326
  90.0995872  71.9427373  50.6646326  89.0635872  70.9967373  49.0216326
  88.2975872  71.7397373  49.2496326  89.2555872  70.9187373  47.5016326
  89.9005872  70.0117373  47.0066326  88.6515872  71.8797373  46.7166326
  88.1325872  72.5837373  47.2276326  88.3245872  71.6657373  45.2956326
  87.5885872  70.8637373  45.2296326  87.8625872  72.5747373  44.9116326
  89.4865872  71.3077373  44.3526326  89.2785872  70.6317373  43.3596326
  90.7615872  71.7287373  44.6706326  90.8815872  72.2027373  45.5616326
  91.9605872  71.3707373  43.9026326  91.6655872  71.3077373  42.8536326
  93.0135872  72.4947373  43.9976326  93.8605872  72.2237373  43.3686326
  92.5905872  73.4107373  43.5886326  93.5285872  72.8127373  45.3936326
  92.8495872  72.6717373  46.3876326  94.7795872  73.3247373  45.4856326
  95.0965872  73.6547373  46.3936326  95.3435872  73.4177373  44.6576326
  92.5225872  69.9717373  44.2416326  93.5045872  69.5527373  43.6546326
  91.8725872  69.1987373  45.1746326  91.0775872  69.6277373  45.6436326
  92.2155872  67.8297373  45.5556326  93.1555872  67.5507373  45.0876326
  92.4415872  67.7837373  47.0746326  91.5555872  68.1597373  47.5896326
  92.6265872  66.7567373  47.3906326  93.8925872  68.7917373  47.5026326
  93.8355872  68.6267373  48.8286326  91.1685872  66.8027373  45.0806326
  90.1515872  67.1307373  44.4846326  91.4515872  65.4827373  45.3336326
  92.3715872  65.2787373  45.7236326  90.5645872  64.3517373  45.0726326
  89.5315872  64.6787373  45.1986326  90.7575872  63.9037373  43.6166326
  90.0075872  63.1567373  43.3526326  90.6225872  64.7727373  42.9746326
  92.4165872  63.2247373  43.3306326  92.3825872  63.3157373  41.9956326
  90.8165872  63.2097373  46.0686326  91.8405872  63.1817373  46.7306326
  89.8435872  62.2347373  46.1716326  89.0295872  62.3317373  45.5816326
  90.0305872  60.9787373  46.9026326  90.7275872  61.1547373  47.7186326
  88.6945872  60.4887373  47.4956326  87.9375872  60.5207373  46.7116326
  88.8045872  59.4467373  47.8006326  88.1965872  61.2847373  48.7156326
  88.1985872  62.3487373  48.4836326  86.7675872  60.8537373  49.0486326
  86.7325872  59.7897373  49.3156326  86.3765872  61.4297373  49.8946326
  86.1005872  61.0157373  48.1936326  89.0565872  61.0417373  49.9556326
  90.0855872  61.3817373  49.7986326  88.6515872  61.5917373  50.8146326
  89.0815872  59.9757373  50.2176326  90.6395872  59.8857373  46.0126326
  90.2835872  59.7547373  44.8466326  91.5055872  59.0097373  46.6266326
  91.8055872  59.2667373  47.5686326  91.9635872  57.7237373  46.0766326
  91.3265872  57.4467373  45.2366326  93.4165872  57.8097373  45.5606326
  94.0755872  58.1087373  46.3766326  93.8935872  56.4587373  45.0126326
  93.1905872  56.0627373  44.2676326  94.8705872  56.5637373  44.5276326
  94.0065872  55.7257373  45.8206326  93.5605872  58.8327373  44.4276326
  93.2735872  59.8367373  44.7626326  94.6015872  58.8837373  44.0866326
  92.9345872  58.5427373  43.5766326  91.8275872  56.6387373  47.1466326
  92.4435872  56.7377373  48.1906326  90.9865872  55.5787373  46.8756326
  90.4505872  55.6307373  46.0146326  90.7495872  54.4337373  47.7776326
  90.5985872  54.7937373  48.7956326  89.4535872  53.7377373  47.3116326
  88.6185872  54.4277373  47.4436326  89.5495872  53.5497373  46.2406326
  89.0825872  52.3927373  47.9616326  88.2515872  51.9767373  47.3876326
  89.9135872  51.6937373  47.8596326  88.6515872  52.4707373  49.4336326
  88.9605872  53.4517373  50.1436326  88.0055872  51.5037373  49.9076326
  91.9335872  53.4477373  47.8196326  92.2225872  52.8697373  48.8506326
  92.6565872  53.2477373  46.6586326  92.3685872  53.7827373  45.8536326
  93.7515872  52.2827373  46.5336326  93.3625872  51.3057373  46.8156326
  94.1705872  52.2147373  45.0486326  93.2995872  51.9547373  44.4476326
  94.5295872  53.1927373  44.7266326  95.2635872  51.1947373  44.7576326
  95.8865872  50.6347373  45.6336326  95.5255872  50.9167373  43.4606326
  96.2305872  50.2207373  43.2656326  94.9975872  51.3637373  42.7276326
  94.9375872  52.6447373  47.4626326  95.6085872  53.6357373  47.2126326
  95.2865872  51.8037373  48.5186326  94.6475872  50.5217373  48.8426326
  94.5975872  49.8647373  47.9646326  93.6375872  50.7057373  49.2316326
  95.5305872  49.9007373  49.9326326  96.2955872  49.2647373  49.4686326
  94.9515872  49.2897373  50.6366326  96.2055872  51.0987373  50.6206326
  97.1725872  50.8377373  51.0706326  95.5475872  51.4937373  51.4056326
  96.3325872  52.1327373  49.4916326  96.1415872  53.1247373  49.9016326
  97.7405872  52.1477373  48.8806326  98.6235872  52.7967373  49.4136326
  97.9735872  51.4877373  47.6876326  97.1865872  51.0067373  47.2546326
  99.2685872  51.5337373  46.9806326 100.0435872  51.2287373  47.6836326
  99.2905872  50.5367373  45.8026326  98.5505872  50.8337373  45.0596326
 100.6625872  50.4757373  45.1216326 101.4495872  50.2507373  45.8496326
 100.6785872  49.6987373  44.3456326 100.9055872  51.4257373  44.6336326
  98.9705872  49.1147373  46.2866326  97.9415872  49.0437373  46.6586326
  99.0685872  48.3937373  45.4676326  99.6515872  48.8097373  47.0906326
  99.6135872  52.9657373  46.5396326 100.7795872  53.3177373  46.4346326
  98.5765872  53.8697373  46.3966326  97.6325872  53.5277373  46.5586326
  98.7655872  55.2967373  46.1596326  99.2975872  55.4207373  45.2156326
  97.3905872  55.9577373  46.0296326  96.8515872  55.9367373  46.9856326
  97.4935872  57.0057373  45.7226326  96.7825872  55.4367373  45.2786326
  99.5995872  55.9847373  47.2536326 100.3095872  56.9227373  46.9516326
  99.5795872  55.4837373  48.5436326  98.9905872  54.6707373  48.7156326
 100.4085872  56.0087373  49.6426326 100.2535872  57.0867373  49.7196326
  99.9935872  55.3567373  50.9876326 100.0475872  54.2747373  50.8706326
 100.9485872  55.7307373  52.1376326 100.9335872  56.8087373  52.3196326
 100.6615872  55.2257373  53.0676326 101.9805872  55.4277373  51.9256326
  98.5405872  55.7457373  51.3476326  98.5095872  56.8007373  51.6196326
  97.8945872  55.6067373  50.4796326  97.9305872  54.9157373  52.4836326
  98.4375872  55.1077373  53.4376326  96.8715872  55.1747373  52.6106326
  97.9945872  53.8437373  52.2586326 101.8945872  55.7807373  49.3366326
 102.6995872  56.6907373  49.4446326 102.2695872  54.5267373  48.8836326
 101.5205872  53.8537373  48.7556326 103.6505872  54.1637373  48.5306326
 104.3015872  54.4467373  49.3596326 103.7525872  52.6427373  48.3206326
 103.2695872  52.1337373  49.1566326 103.2365872  52.3607373  47.3996326
 105.2185872  52.1847373  48.2536326 105.7345872  52.7007373  47.4416326
 105.7105872  52.4307373  49.1956326 105.3175872  50.6757373  48.0116326
 104.7345872  50.1447373  48.7646326 104.9175872  50.4427373  47.0226326
 106.7785872  50.2257373  48.0976326 107.3905872  50.8547373  47.4466326
 107.1295872  50.3547373  49.1256326 106.9195872  48.8117373  47.6956326
 106.6565872  48.6937373  46.7216326 107.8795872  48.4927373  47.7906326
 106.2825872  48.2187373  48.2266326 104.1325872  54.9347373  47.3026326
 105.2365872  55.4517373  47.3126326 103.2625872  55.0527373  46.2426326
 102.3795872  54.5537373  46.3226326 103.5515872  55.8007373  45.0206326
 104.5035872  55.4567373  44.6136326 102.4565872  55.4647373  44.0046326
 101.4605872  55.6567373  44.4196326 102.5715872  56.0647373  43.0956326
 102.5075872  54.4057373  43.7196326 103.6865872  57.3177373  45.2736326
 104.6105872  57.9407373  44.7806326 102.8045872  57.9337373  46.1366326
 102.0235872  57.3847373  46.4916326 102.9145872  59.3337373  46.5386326
 102.9445872  59.9537373  45.6416326 101.6775872  59.7257373  47.3516326
 101.5905872  59.1127373  48.2586326 101.7345872  60.7797373  47.6516326
 100.7645872  59.5897373  46.7596326 104.2115872  59.5947373  47.3166326
 104.9325872  60.5207373  46.9866326 104.5725872  58.7077373  48.3206326
 103.8955872  57.9817373  48.5556326 105.8425872  58.7897373  49.0666326
 105.9495872  59.8057373  49.4526326 105.8265872  57.8197373  50.2656326
 105.4625872  56.8417373  49.9496326 106.8425872  57.7077373  50.6476326
 104.9415872  58.3657373  51.3986326 105.3425872  59.3297373  51.7166326
 103.9315872  58.5197373  51.0236326 104.8755872  57.4347373  52.6176326
 104.3615872  56.5127373  52.3366326 105.8905872  57.1887373  52.9366326
 104.1635872  58.0957373  53.7276326 103.9675872  59.0877373  53.6366326
 103.8075872  57.5857373  54.8916326 103.9655872  56.3447373  55.2416326
 104.3375872  55.6507373  54.5976326 103.6775872  56.0817373  56.1736326
 103.2485872  58.3557373  55.7696326 103.0875872  59.3297373  55.5306326
 103.0155872  57.9747373  56.6766326 107.0695872  58.5827373  48.1716326
 108.0555872  59.2677373  48.3616326 106.9945872  57.7177373  47.0996326
 106.1515872  57.1577373  47.0246326 108.0525872  57.5767373  46.0886326
 108.9885872  57.3577373  46.5996326 107.7125872  56.3977373  45.1546326
 107.6785872  55.4737373  45.7446326 106.7015872  56.5297373  44.7566326
 108.6535872  56.1997373  43.9686326 109.6685872  55.2247373  44.0116326
 109.7775872  54.5817373  44.8716326 110.5385872  55.0607373  42.9176326
 111.3165872  54.3117373  42.9536326 110.3895872  55.8567373  41.7696326
 111.0555872  55.7217373  40.9286326 109.3605872  56.8127373  41.7106326
 109.2305872  57.4147373  40.8216326 108.4915872  56.9757373  42.8036326
 107.6965872  57.7027373  42.7426326 108.2685872  58.8867373  45.3116326
 109.3915872  59.3117373  45.0976326 107.1465872  59.5877373  44.9246326
 106.2475872  59.1447373  45.1096326 107.1635872  60.8887373  44.2516326
 108.0085872  60.9087373  43.5646326 105.8665872  61.0397373  43.4316326
 105.0195872  60.9347373  44.1116326 105.8285872  62.0427373  43.0056326
 105.7045872  60.0317373  42.2796326 105.7895872  59.0147373  42.6556326
 104.3175872  60.1947373  41.6666326 104.1805872  61.2047373  41.2626326
 104.1815872  59.4707373  40.8566326 103.5445872  60.0087373  42.4196326
 106.7405872  60.2357373  41.1716326 107.7535872  60.0357373  41.5356326
 106.5495872  59.5477373  40.3376326 106.7055872  61.2627373  40.7836326
 107.3745872  62.0867373  45.2016326 107.4115872  63.2107373  44.7336326
 107.4945872  61.8697373  46.5586326 107.4335872  60.9077373  46.8696326
 107.6425872  62.9267373  47.5696326 107.9205872  62.4697373  48.5186326
 108.4455872  63.5987373  47.2646326 106.3825872  63.7697373  47.8106326
 106.4245872  64.7287373  48.5626326 105.2155872  63.4007373  47.1786326
 105.2445872  62.5027373  46.7036326 103.9465872  64.1437373  47.2216326
 104.1715872  65.1867373  46.9996326 102.9845872  63.6297373  46.1256326
 102.8155872  62.5617373  46.2676326 101.6235872  64.3377373  46.1256326
 101.7445872  65.4277373  46.1366326 101.0395872  64.0717373  45.2376326
 101.0335872  64.0417373  47.0006326 103.5905872  63.8427373  44.7316326
 104.5475872  63.3207373  44.6346326 102.9235872  63.4567373  43.9506326
 103.7715872  64.9077373  44.5426326 103.3175872  64.1127373  48.6216326
 103.4995872  63.1747373  49.3816326 102.5625872  65.2047373  48.9826326
 102.4425872  65.9267373  48.2886326 101.7965872  65.3317373  50.2256326
 102.1985872  64.6167373  50.9456326 102.0245872  66.7417373  50.7996326
 103.0885872  66.8527373  51.0166326 101.7775872  67.4687373  50.0246326
 101.2415872  67.1197373  52.0666326 101.5025872  68.1477373  52.3226326
 100.1715872  67.1017373  51.8486326 101.5155872  66.2207373  53.2776326
 101.7265872  66.7447373  54.3956326 101.3905872  64.9837373  53.1946326
 100.3085872  64.9767373  50.0256326  99.7295872  65.2007373  48.9726326
  99.6855872  64.3527373  51.0816326 100.2515872  64.2567373  51.9296326
  98.3345872  63.7927373  51.1016326  97.6565872  64.4757373  50.5896326
  98.3285872  62.4487373  50.3556326  97.3185872  62.0227373  50.3896326
  98.5385872  62.6317373  49.2946326  99.3265872  61.4227373  50.8796326
 100.6375872  61.3987373  50.3696326 100.9335872  62.1017373  49.6036326
 101.5765872  60.4827373  50.8716326 102.5865872  60.4867373  50.4846326
 101.2005872  59.5777373  51.8786326 101.9215872  58.8777373  52.2686326
  99.8905872  59.5957373  52.3906326  99.6065872  58.9087373  53.1756326
  98.9555872  60.5207373  51.8946326  97.9565872  60.5487373  52.3036326
  97.8455872  63.6107373  52.5476326  98.6325872  63.4967373  53.4736326
  96.4885872  63.5577373  52.7666326  95.8895872  63.6217373  51.9446326
  95.8695872  63.3977373  54.0836326  96.6465872  63.2587373  54.8326326
  95.1405872  64.7007373  54.4346326  94.3325872  64.8957373  53.7196326
  94.7055872  64.6407373  55.4406326  95.8285872  65.5547373  54.4076326
  94.9265872  62.1777373  54.1146326  94.0205872  62.1117373  53.2976326
  95.1085872  61.1787373  55.0666326  96.2845872  61.0197373  55.9286326
  96.2305872  61.7327373  56.7616326  97.2185872  61.1647373  55.3696326
  96.1845872  59.5807373  56.4536326  96.6495872  59.4627373  57.4406326
  96.6865872  58.9007373  55.7536326  94.6785872  59.2737373  56.4746326
  94.2455872  59.6237373  57.4196326  94.4635872  58.2037373  56.3606326
  94.1415872  60.1007373  55.2966326  94.1035872  59.4697373  54.4086326
  92.7395872  60.6517373  55.5836326  92.5795872  61.5557373  56.3926326
  91.6975872  60.0897373  54.8816326  91.9095872  59.3127373  54.2616326
  90.3125872  60.5317373  55.0026326  90.2985872  61.6027373  55.2126326
  89.6215872  60.3097373  53.6526326  89.6255872  59.2457373  53.3826326
  88.5775872  60.6437373  53.6956326  90.1315872  60.8687373  52.8596326
  89.5845872  59.8067373  56.1476326  89.4515872  58.5937373  56.1276326
  89.0625872  60.5797373  57.1646326  89.2395872  61.5827373  57.1066326
  88.1275872  60.0727373  58.1826326  88.3955872  59.0477373  58.4246326
  88.1775872  60.8937373  59.4866326  87.8665872  61.9147373  59.2826326
  87.2345872  60.3067373  60.5426326  87.4715872  59.2527373  60.7316326
  87.3115872  60.8577373  61.4876326  86.1915872  60.3647373  60.2116326
  89.5865872  60.9457373  60.0916326  90.3015872  61.3807373  59.3826326
  89.5915872  61.5677373  60.9956326  89.9295872  59.9407373  60.3626326
  86.7165872  60.0517373  57.5966326  86.1745872  61.0937373  57.2696326
  86.1175872  58.8257373  57.4376326  86.6345872  58.0127373  57.7726326
  84.8705872  58.5937373  56.6906326  84.6555872  59.4577373  56.0616326
  85.0165872  57.3637373  55.7766326  84.0765872  57.2147373  55.2426326
  86.1375872  57.5107373  54.7486326  87.1175872  57.5677373  55.2376326
  86.1475872  56.6527373  54.0656326  85.9955872  58.4217373  54.1536326
  85.2865872  56.2127373  56.5486326  84.8455872  55.4347373  56.1066326
  83.6535872  58.3617373  57.5836326  82.5375872  58.6297373  57.1646326
  83.8465872  57.7967373  58.8286326  84.8095872  57.6197373  59.0996326
  82.7675872  57.2457373  59.6636326  81.9435872  57.9587373  59.7076326
  82.2615872  55.9677373  58.9716326  82.0925872  56.1757373  57.9146326
  83.0095872  55.1797373  59.0436326  81.0445872  55.5077373  59.5136326
  80.7005872  54.8267373  58.8756326  83.2375872  56.9697373  61.1076326
  84.3285872  57.3677373  61.4806326  82.4025872  56.2557373  61.9406326
  81.5515872  55.9117373  61.4956326  82.6935872  55.7577373  63.2956326
  83.7715872  55.7057373  63.4406326  82.1015872  56.7017373  64.3606326
  81.1245872  57.0737373  64.0236326  81.8925872  56.1227373  65.2696326
  82.9855872  57.8807373  64.7506326  83.1205872  58.9907373  63.8976326
  82.5875872  59.0197373  62.9586326  83.9495872  60.0657373  64.2636326
  84.0605872  60.9107373  63.6026326  84.6145872  60.0547373  65.5006326
  85.2185872  60.9017373  65.7936326  84.4795872  58.9527373  66.3606326
  84.9805872  58.9447373  67.3206326  83.6695872  57.8687373  65.9826326
  83.5685872  57.0287373  66.6496326  82.1395872  54.3297373  63.4636326
  81.2135872  53.9457373  62.7686326  82.7145872  53.5077373  64.4196326
  83.4845872  53.9027373  64.9636326  82.3115872  52.1057373  64.6466326
  81.3445872  51.9667373  64.1626326  83.3095872  51.1677373  63.9386326
  83.4845872  51.5747373  62.9426326  84.2615872  51.1687373  64.4736326
  82.8065872  49.7197373  63.7766326  82.9035872  49.1877373  64.7246326
  81.7545872  49.7367373  63.4896326  83.6005872  48.9887373  62.6766326
  83.5305872  49.5777373  61.7606326  84.6545872  48.9247373  62.9536326
  83.0495872  47.5897373  62.3576326  81.9565872  47.6207373  62.3956326
  83.3405872  47.3327373  61.3346326  83.5705872  46.5517373  63.2756326
  83.3065872  46.7347373  64.2456326  83.1685872  45.6377373  63.0786326
  84.5765872  46.4457373  63.1836326  82.1045872  51.7887373  66.1316326
  82.9015872  52.1667373  66.9746326  80.9725872  51.0657373  66.4376326
  80.4075872  50.7697373  65.6566326  80.4965872  50.7537373  67.7886326
  81.0625872  51.3507373  68.5046326  79.0205872  51.1627373  67.9276326
  78.4195872  50.6357373  67.1736326  78.6515872  50.8147373  68.9016326
  78.7655872  52.6647373  67.8156326  78.6665872  53.2847373  66.5526326
  78.7465872  52.6967373  65.6506326  78.4605872  54.6727373  66.4556326
  78.3825872  55.1447373  65.4856326  78.3385872  55.4487373  67.6206326
  78.1745872  56.5157373  67.5436326  78.4135872  54.8337373  68.8826326
  78.2945872  55.4267373  69.7776326  78.6315872  53.4467373  68.9796326
  78.6845872  52.9817373  69.9536326  80.7295872  49.2727373  68.1306326
  80.2655872  48.3817373  67.4346326  81.4945872  49.0327373  69.2506326
  81.7485872  49.8427373  69.8036326  82.0375872  47.7507373  69.7206326
  81.3705872  46.9337373  69.4396326  83.4385872  47.5207373  69.1136326
  84.0965872  48.3207373  69.4566326  83.8445872  46.5867373  69.5046326
  83.5185872  47.4747373  67.5806326  83.2275872  48.4457373  67.1736326
  84.5635872  47.3137373  67.3026326  82.6735872  46.3687373  66.9386326
  82.3535872  45.3547373  67.6026326  82.4055872  46.4677373  65.7196326
  82.1845872  47.7717373  71.2546326  82.1945872  48.8377373  71.8516326
  82.3685872  46.5747373  71.9286326  82.3565872  45.7227373  71.3686326
  82.6395872  46.5027373  73.3766326  81.8765872  47.0927373  73.8876326
  82.5065872  45.0457373  73.8646326  81.5205872  44.6757373  73.5766326
  83.2655872  44.4267373  73.3836326  82.6375872  44.9177373  75.3926326
  83.6285872  45.2517373  75.7036326  81.8895872  45.5537373  75.8686326
  82.4335872  43.4707373  75.8676326  81.4255872  43.1487373  75.6006326
  83.1455872  42.8187373  75.3616326  82.5935872  43.3757373  77.3296326
  81.8875872  43.8407373  77.9016326  83.6805872  43.0737373  78.0116326
  84.7735872  42.6307373  77.4696326  84.7765872  42.3037373  76.5156326
  85.5805872  42.5037373  78.0746326  83.6965872  43.2097373  79.2986326
  82.8365872  43.5397373  79.7346326  84.5455872  43.0487373  79.8116326
  84.0015872  47.1297373  73.7226326  85.0435872  46.5347373  73.4816326
  83.9735872  48.3667373  74.3256326  83.0645872  48.8177373  74.3706326
  85.1275872  49.1337373  74.8026326  85.5465872  48.6307373  75.6736326
  85.8885872  49.1747373  74.0226326  84.7565872  50.5677373  75.2066326
  83.6065872  50.9567373  75.1166326  85.7625872  51.3897373  75.6766326
  86.7075872  51.0177373  75.6906326  85.5685872  52.8077373  76.0226326
  84.5025872  52.9887373  76.1586326  86.2415872  53.1237373  77.3616326
  85.8295872  52.4647373  78.1266326  87.3085872  52.9367373  77.2816326
  86.0215872  54.4687373  77.7476326  86.7325872  55.0357373  77.3716326
  86.0545872  53.7447373  74.9106326  87.0085872  53.4407373  74.2146326
  85.3835872  54.9467373  74.7836326  84.6905872  55.1207373  75.5006326
  85.6235872  56.0087373  73.7856326  84.8635872  56.7727373  73.9396326
  86.9805872  56.6997373  74.0306326  87.7885872  55.9987373  73.8296326
  87.1695872  57.9437373  73.1656326  86.3715872  58.6717373  73.3596326
  88.1315872  58.4277373  73.3846326  87.1595872  57.6907373  72.0986326
  87.0595872  57.1277373  75.3736326  87.8435872  57.7177373  75.4636326
  85.4775872  55.5057373  72.3396326  86.3045872  54.7537373  71.8546326
  84.3745872  55.9257373  71.6166326  83.7535872  56.5857373  72.0636326
  84.0225872  55.4307373  70.2666326  83.9095872  54.3487373  70.3346326
  82.6835872  56.0117373  69.7566326  82.8365872  57.0497373  69.4566326
  82.1575872  55.2227373  68.5486326  81.9105872  54.1907373  68.8276326
  81.2475872  55.6917373  68.1526326  82.8845872  55.1857373  67.7306326
  81.5775872  55.9847373  70.8226326  81.8175872  56.6427373  71.6646326
  80.6315872  56.3397373  70.3956326  81.4225872  54.9657373  71.2006326
  85.1385872  55.7257373  69.2546326  85.7015872  56.8067373  69.2516326
  85.4855872  54.7257373  68.3656326  84.9105872  53.8897373  68.3586326
  86.5865872  54.8457373  67.3946326  87.2955872  55.5657373  67.7946326
  87.3235872  53.4987373  67.2386326  86.6055872  52.6807373  67.3226326
  87.7555872  53.4457373  66.2376326  88.4755872  53.2747373  68.2416326
  88.7985872  52.2347373  68.1616326  89.3165872  53.9097373  67.9576326
  88.1115872  53.5787373  69.7016326  87.9845872  54.6567373  69.8136326
  87.1715872  53.0797373  69.9456326  89.1855872  53.1047373  70.6846326
  89.2095872  52.0127373  70.6696326  90.1635872  53.4757373  70.3616326
  88.8965872  53.5857373  72.0556326  89.3015872  52.9837373  72.7686326
  89.2915872  54.5047373  72.2226326  87.8965872  53.6477373  72.2486326
  86.0985872  55.3847373  66.0376326  85.0865872  54.9097373  65.5386326
  86.8525872  56.3677373  65.4026326  88.0295872  57.0427373  65.9666326
  88.7725872  56.3167373  66.3216326  87.7125872  57.6897373  66.7936326
  88.6125872  57.8847373  64.8226326  89.4165872  57.3237373  64.3286326
  89.0235872  58.8377373  65.1766326  87.4455872  58.0797373  63.8436326
  87.7865872  58.2317373  62.8126326  86.8405872  58.9427373  64.1476326
  86.6365872  56.7877373  64.0196326  85.5825872  57.0007373  63.8476326
  87.0945872  55.6987373  63.0376326  87.8575872  54.8107373  63.3786326
  86.6335872  55.8067373  61.7486326  85.9945872  56.5817373  61.5706326
  86.9755872  54.9227373  60.6276326  87.7085872  54.1887373  60.9646326
  85.7285872  54.1597373  60.1376326  84.9775872  54.8897373  59.8436326
  86.0135872  53.2567373  58.9296326  86.8265872  52.5527373  59.1476326
  85.1205872  52.6777373  58.6646326  86.2865872  53.8507373  58.0486326
  85.1365872  53.2767373  61.2426326  84.8485872  53.8757373  62.1136326
  84.2355872  52.7627373  60.8836326  85.8635872  52.5237373  61.5716326
  87.6085872  55.7397373  59.5026326  87.2005872  56.8617373  59.2456326
  88.6355872  55.1417373  58.8036326  88.8765872  54.1927373  59.0596326
  89.3335872  55.7387373  57.6676326  88.7705872  56.6117373  57.3366326
  90.7565872  56.1937373  58.0586326  91.3575872  55.3237373  58.3266326
  91.2035872  56.6237373  57.1606326  90.8415872  57.2417373  59.1866326
  89.9225872  57.8187373  59.2206326  91.0735872  56.6067373  60.5606326
  92.0165872  56.0467373  60.5756326  91.1155872  57.3787373  61.3386326
  90.2605872  55.9187373  60.8196326  92.0025872  58.2057373  58.9316326
  91.8365872  58.7607373  57.9996326  92.0945872  58.9347373  59.7446326
  92.9505872  57.6587373  58.8476326  89.4035872  54.7687373  56.4826326
  89.5405872  53.5677373  56.6616326  89.3825872  55.3277373  55.2256326
  89.2715872  56.3387373  55.1726326  89.8065872  54.6187373  54.0136326
  90.6795872  54.0177373  54.2676326  88.7245872  53.6647373  53.4996326
  88.3185872  53.0947373  54.3356326  87.9185872  54.2287373  53.0256326
  89.2985872  52.7597373  52.5766326  89.1415872  53.1197373  51.6206326
  90.2145872  55.6027373  52.9196326  89.6165872  56.6557373  52.7756326
  91.2865872  55.2407373  52.1376326  91.6545872  54.3087373  52.2686326
  91.8665872  56.0997373  51.1116326  92.6125872  55.5357373  50.5526326
  91.0765872  56.3877373  50.4186326  92.5225872  57.3857373  51.6366326
  92.6745872  57.6167373  52.8286326  92.9475872  58.2617373  50.6656326
  92.7975872  57.9597373  49.7046326  93.6385872  59.5347373  50.9096326
  93.4935872  59.8067373  51.9556326  95.1645872  59.4017373  50.6716326
  95.6035872  60.3827373  50.8616326  95.7755872  58.4307373  51.6966326
  95.4765872  57.3957373  51.4876326  96.8695872  58.4807373  51.6816326
  95.4495872  58.6807373  52.7136326  95.5205872  59.0007373  49.2166326
  95.0725872  58.0337373  48.9846326  95.1035872  59.7377373  48.5316326
  97.0235872  58.9137373  48.9196326  97.4975872  58.1027373  49.4836326
  97.1845872  58.7157373  47.8526326  97.5245872  59.8567373  49.1666326
  93.0365872  60.6707373  50.0776326  92.6765872  60.4807373  48.9266326
  92.9695872  61.9087373  50.6806326  93.2745872  61.9467373  51.6526326
  92.8325872  63.1807373  49.9616326  92.1675872  63.0347373  49.1146326
  92.2365872  64.2857373  50.8576326  92.8525872  64.3947373  51.7506326
  92.1715872  65.6457373  50.1466326  91.5855872  65.5727373  49.2226326
  91.7015872  66.3947373  50.7976326  93.1755872  66.0137373  49.9016326
  90.8085872  63.9397373  51.2866326  90.7965872  63.0147373  51.8756326
  90.3895872  64.7357373  51.9126326  90.1565872  63.8087373  50.4146326
  94.2075872  63.6017373  49.4466326  95.1515872  63.6917373  50.2146326
  94.3235872  63.8977373  48.1086326  93.4945872  63.7457373  47.5346326
  95.5865872  64.2487373  47.4416326  96.2475872  64.7007373  48.1826326
  96.2785872  62.9637373  46.9376326  96.3475872  62.2737373  47.7796326
  95.5075872  62.2557373  45.8146326  95.4295872  62.8887373  44.9216326
  96.0125872  61.3237373  45.5336326  94.4915872  61.9987373  46.1446326
  97.7085872  63.2217373  46.4526326  98.2625872  63.8337373  47.1756326
  98.2415872  62.2697373  46.3576326  97.7255872  63.7227373  45.4776326
  95.3745872  65.2937373  46.3406326  94.2875872  65.4237373  45.8026326
  96.4525872  66.0807373  45.9996326  97.3135872  65.9137373  46.5066326
  96.4515872  67.0987373  44.9496326  95.7805872  67.9087373  45.2416326
  97.8755872  67.6577373  44.8596326  98.5975872  66.8477373  44.6986326
  97.9675872  68.3607373  44.0246326  98.1465872  68.1847373  45.7836326
  95.9755872  66.5317373  43.5956326  96.6235872  65.6807373  43.0026326
  94.8115872  67.0537373  43.0546326  94.3865872  67.8307373  43.5606326
  94.1265872  66.5227373  41.8596326  93.8465872  65.4857373  42.0496326
  92.8555872  67.3567373  41.6066326  92.3035872  67.4267373  42.5426326
  93.1495872  68.3637373  41.3056326  91.9035872  66.7837373  40.5426326
  92.4665872  66.5517373  39.6386326  91.4665872  65.8577373  40.9176326
  90.7835872  67.7747373  40.1636326  91.2515872  68.6437373  39.6976326
  90.1345872  67.3157373  39.4156326  89.9345872  68.2747373  41.3446326
  90.5985872  68.6187373  42.1416326  89.3485872  69.1437373  41.0276326
  89.0245872  67.2307373  41.8706326  89.3765872  66.2977373  41.6736326
  88.9315872  67.3327373  42.8786326  88.1085872  67.2767373  41.4296326
  95.0515872  66.5257373  40.6426326  95.1255872  65.5507373  39.9206326
  95.8355872  67.6437373  40.4756326  95.7295872  68.3607373  41.1786326
  96.7715872  67.8687373  39.3746326  96.2725872  67.5877373  38.4446326
  97.0815872  69.3717373  39.3006326  97.5525872  69.5777373  38.3306326
  96.1315872  69.9197373  39.2846326  97.9505872  69.9497373  40.3826326
  99.2635872  70.2337373  40.2316326  99.8215872  70.0817373  39.3156326
  99.7755872  70.7467373  41.4066326 100.7335872  71.0847373  41.5166326
  98.8145872  70.8137373  42.3886326  98.8485872  71.2477373  43.7206326
  99.7735872  71.5927373  44.1576326  97.6695872  71.2197373  44.4806326
  97.6805872  71.5417373  45.5146326  96.4755872  70.7697373  43.8916326
  95.5755872  70.7437373  44.4906326  96.4475872  70.3427373  42.5476326
  95.5115872  70.0287373  42.1136326  97.6235872  70.3327373  41.7606326
  98.0505872  67.0117373  39.4476326  98.8245872  67.0107373  38.5056326
  98.2735872  66.2417373  40.5756326  97.5975872  66.3257373  41.3286326
  99.3715872  65.2797373  40.7386326 100.0535872  65.3717373  39.8926326
 100.1655872  65.6067373  42.0216326  99.5185872  65.4257373  42.8816326
 101.0045872  64.9117373  42.0896326 100.7155872  67.0457373  42.1176326
  99.8855872  67.7517373  42.1416326 101.5195872  67.2067373  43.4086326
 102.3915872  66.5437373  43.4056326 101.8655872  68.2427373  43.5156326
 100.9035872  66.9667373  44.2816326 101.6465872  67.4057373  40.9586326
 101.0995872  67.4167373  40.0086326 102.0725872  68.4047373  41.1066326
 102.4695872  66.6857373  40.8756326  98.8925872  63.8127373  40.7326326
  99.7095872  62.9087373  40.6666326  97.5285872  63.5547373  40.7656326
  96.9215872  64.3677373  40.8106326  96.9275872  62.2107373  40.8626326
  97.2065872  61.7727373  41.8216326  95.3955872  62.3247373  40.7846326
  95.0615872  63.1447373  41.4236326  95.1135872  62.5627373  39.7576326
  94.6705872  61.0437373  41.2386326  95.1955872  60.1537373  40.8926326
  94.6485872  61.0297373  42.3296326  93.2415872  61.0067373  40.6766326
  92.8845872  62.0287373  40.5406326  93.2695872  60.5377373  39.6916326
  92.2975872  60.3147373  41.5766326  92.2545872  60.6417373  42.5276326
  91.3985872  59.4077373  41.2356326  91.3825872  58.8127373  40.0836326
  92.2785872  58.7337373  39.5896326  90.6705872  58.1227373  39.9016326
  90.4645872  59.0717373  42.0716326  90.4425872  59.4387373  43.0136326
  89.7745872  58.3907373  41.7836326  97.4415872  61.2667373  39.7766326
  97.8215872  60.1537373  40.0736326  97.4995872  61.7467373  38.4916326
  97.1565872  62.6847373  38.3416326  97.9085872  60.9247373  37.3486326
  97.2655872  60.0437373  37.3046326  97.7055872  61.7277373  36.0586326
  96.6675872  62.0607373  36.0086326  98.3475872  62.6087373  36.0906326
  98.0195872  60.9117373  34.7966326  99.0525872  60.5617373  34.8196326
  97.3585872  60.0427373  34.7536326  97.8365872  61.7767373  33.5546326
  98.5385872  62.8047373  33.4186326  96.9465872  61.4847373  32.7216326
  99.3585872  60.4327373  37.4616326  99.6485872  59.3117373  37.0906326
 100.3025872  61.2637373  38.0326326  99.9885872  62.1547373  38.3966326
 101.6865872  60.8437373  38.2496326 102.0925872  60.4737373  37.3076326
 102.5115872  62.0587373  38.6906326 102.1575872  62.4527373  39.6516326
 103.5675872  61.7797373  38.8046326 102.4525872  62.8607373  37.9436326
 101.7575872  59.6967373  39.2716326 102.4695872  58.7277373  39.0656326
 100.9315872  59.7777373  40.3756326 100.3485872  60.6067373  40.4436326
 100.7975872  58.7157373  41.3796326 101.7915872  58.4587373  41.7466326
  99.9505872  59.2027373  42.5796326  98.9685872  59.4947373  42.2116326
  99.7465872  58.0847373  43.6166326 100.7035872  57.7997373  44.0666326
  99.0775872  58.4077373  44.4226326  99.2935872  57.1937373  43.1656326
 100.6015872  60.4297373  43.2616326 101.4865872  60.1127373  43.8146326
 100.9215872  61.1527373  42.5126326  99.6525872  61.1697373  44.2076326
  99.3415872  60.5357373  45.0446326 100.1535872  62.0497373  44.6236326
  98.7565872  61.5097373  43.6726326 100.2215872  57.4507373  40.7256326
 100.7775872  56.3817373  40.8826326  99.1255872  57.5747373  39.9006326
  98.7105872  58.5027373  39.8296326  98.5165872  56.4627373  39.1536326
  98.2105872  55.6897373  39.8556326  97.2665872  56.9607373  38.4066326
  97.5385872  57.8327373  37.8146326  96.9175872  56.1807373  37.7286326
  96.1215872  57.3087373  39.3736326  95.7765872  56.3807373  39.8316326
  96.4955872  57.9427373  40.1776326  94.9345872  58.0267373  38.7096326
  93.8385872  58.0097373  39.3206326  95.0865872  58.6237373  37.6186326
  99.5005872  55.8027373  38.1736326  99.4945872  54.5907373  38.0166326
 100.4115872  56.6047373  37.5226326 100.2855872  57.6117373  37.6306326
 101.5055872  56.1147373  36.6716326 101.0925872  55.4357373  35.9286326
 102.1515872  57.2997373  35.9266326 102.4295872  58.0737373  36.6386326
 103.3775872  56.9377373  35.0986326 103.1515872  56.1077373  34.4236326
 103.7075872  57.7937373  34.4966326 104.2125872  56.6507373  35.7456326
 101.2255872  57.8347373  35.0066326 101.5915872  58.6927373  34.7086326
 102.5435872  55.3257373  37.4796326 103.0405872  54.3117373  37.0126326
 102.8595872  55.7777373  38.7436326 102.4155872  56.6457373  39.0386326
 103.8225872  55.1587373  39.6566326 104.6625872  54.7877373  39.0666326
 104.3615872  56.2597373  40.5786326 103.5505872  56.7327373  41.1436326
 105.0895872  55.8477373  41.2906326 104.8655872  57.0387373  39.9916326
 103.2835872  53.9457373  40.4516326 104.0655872  53.2377373  41.0586326
 101.9305872  53.6557373  40.4466326 101.3235872  54.3507373  40.0196326
 101.3405872  52.4637373  41.0966326 101.7875872  52.3657373  42.0836326
  99.8135872  52.6737373  41.3036326  99.4025872  53.1067373  40.3906326
  99.0335872  51.3787373  41.5946326  99.4365872  50.8647373  42.4756326
  97.9725872  51.5797373  41.7686326  99.0825872  50.6877373  40.7446326
  99.5735872  53.6567373  42.4756326  99.8655872  53.1877373  43.4146326
 100.2075872  54.5267373  42.3456326  98.1265872  54.1517373  42.5986326
  97.4795872  53.3837373  43.0396326  98.0825872  55.0347373  43.2446326
  97.7195872  54.4317373  41.6206326 101.6905872  51.1507373  40.3576326
 101.6075872  50.0807373  40.9366326 102.1215872  51.2047373  39.0466326
 102.2495872  52.1237373  38.6456326 102.4555872  50.0127373  38.2516326
 101.5565872  49.3987373  38.1846326 102.8285872  50.4377373  36.8166326
 102.0295872  51.0707373  36.4236326 103.7435872  51.0317373  36.8446326
 103.0285872  49.2617373  35.8506326 103.1615872  49.5117373  34.6326326
 103.0225872  48.0907373  36.2936326 103.5535872  49.1537373  38.9206326
 104.6665872  49.6047373  39.1456326 103.2145872  47.8597373  39.2706326
 102.2885872  47.5667373  38.9846326 104.1105872  46.8517373  39.8576326
 103.6165872  45.8817373  39.8336326 104.9985872  46.7817373  39.2306326
 104.5895872  47.1147373  41.2956326 104.9815872  46.1787373  41.9746326
 104.5175872  48.4027373  41.7906326 104.1315872  49.0767373  41.1346326
 105.2985872  48.9457373  42.9176326 106.3475872  48.7767373  42.6746326
 105.0725872  50.4787373  42.9806326 105.0695872  50.8487373  41.9536326
 103.7165872  50.8257373  43.6196326 103.7105872  50.6077373  44.6946326
 103.4875872  51.8877373  43.4866326 102.9095872  50.2527373  43.1496326
 106.2115872  51.2067373  43.7256326 106.1355872  51.0137373  44.7946326
 107.1665872  50.8147373  43.3726326 106.2215872  52.7267373  43.4956326
 105.3045872  53.1947373  43.8706326 107.0675872  53.1937373  44.0116326
 106.3205872  52.9537373  42.4266326 105.0595872  48.2647373  44.2776326
 105.8505872  48.4297373  45.1896326 103.9535872  47.4597373  44.4386326
 103.3345872  47.4007373  43.6396326 103.6435872  46.6817373  45.6496326
 104.5695872  46.5737373  46.2126326 102.6535872  47.4887373  46.5206326
 103.0265872  48.5117373  46.5826326 101.6885872  47.5257373  46.0116326
 102.4285872  47.0087373  47.9686326 101.8895872  47.7917373  48.5056326
 101.7835872  46.1287373  47.9656326 103.7265872  46.6957373  48.7256326
 104.7045872  47.4747373  48.6386326 103.8065872  45.6757373  49.4456326
 103.1965872  45.2377373  45.3256326 102.5835872  44.5697373  46.1376326
 103.5165872  44.7287373  44.0806326 104.0485872  45.3417373  43.4666326
 103.0135872  43.4517373  43.5526326 102.4425872  42.9477373  44.3326326
 102.0555872  43.7497373  42.3856326 102.6495872  44.0617373  41.5156326
 101.5555872  42.8187373  42.0896326 100.9885872  44.8087373  42.6596326
 100.0075872  44.5927373  43.6476326 100.0135872  43.6807373  44.2256326
  99.0215872  45.5667373  43.8906326  98.2705872  45.3977373  44.6496326
  99.0115872  46.7607373  43.1486326  98.2485872  47.5047373  43.3266326
  99.9965872  46.9877373  42.1716326  99.9945872  47.9097373  41.6036326
 100.9775872  46.0107373  41.9256326 101.7145872  46.1857373  41.1616326
 104.1175872  42.4717373  43.1126326 103.9125872  41.2637373  43.1766326
 105.3045872  43.0187373  42.6536326 105.3465872  44.0327373  42.6626326
 106.4945872  42.2947373  42.1566326 106.1825872  41.6097373  41.3686326
 107.4855872  43.3137373  41.5476326 107.5875872  44.1497373  42.2446326
 108.8815872  42.7027373  41.3326326 108.8315872  41.8257373  40.6746326
 109.5655872  43.4347373  40.8906326 109.3305872  42.3977373  42.2866326
 106.9255872  43.8397373  40.2046326 107.0545872  43.0807373  39.4316326
 105.8565872  44.0317373  40.3006326 107.5715872  45.1487373  39.7406326
 108.6485872  45.0337373  39.5726326 107.1175872  45.4827373  38.7996326
 107.4175872  45.9337373  40.4906326 107.1245872  41.4147373  43.2336326
 107.3935872  41.8987373  44.3506326  68.4435872  36.3317373  36.7626326
  68.2368292  37.2416162  36.3760181  67.3165872  35.4067373  37.0226326
  66.6565872  35.9277373  37.7186326  66.4775872  35.1417373  35.7516326
  66.2635872  36.1037373  35.2846326  67.2145872  34.2737373  34.7156326
  67.3205872  33.2317373  35.0466326  66.6675872  34.2607373  33.7636326
  68.2115872  34.6707373  34.4906326  65.1285872  34.5077373  36.1506326
  64.6835872  35.1077373  36.9466326  65.2995872  33.5047373  36.5366326
  64.1095872  34.4227373  35.0066326  64.4505872  33.7347373  34.2236326
  63.1475872  34.0517373  35.3826326  63.9405872  35.4097373  34.5616326
  67.7185872  34.1247373  37.7616326  67.0085872  33.7387373  38.6686326
  68.8415872  33.4127373  37.3816326  69.4075872  33.7967373  36.6336326
  69.3525872  32.2037373  38.0556326  70.3835872  32.0347373  37.7406326
  69.3585872  32.3817373  39.1316326  68.5655872  30.9037373  37.8106326
  69.1705872  29.8457373  37.7316326  67.1965872  30.9957373  37.6366326
  66.8025872  31.9107373  37.8196326  66.2885872  29.8837373  37.3206326
  66.3065872  29.1757373  38.1496326  64.8505872  30.4167373  37.1356326
  64.8815872  31.2107373  36.3886326  64.2255872  29.6217373  36.7256326
  64.1815872  30.9497373  38.4156326  64.8935872  31.5397373  38.9926326
  62.9815872  31.8317373  38.0736326  62.2375872  31.2727373  37.4926326
  62.5005872  32.1947373  38.9886326  63.2935872  32.7027373  37.4916326
  63.6495872  29.8067373  39.2746326  64.4375872  29.0777373  39.4796326
  63.2825872  30.1907373  40.2306326  62.8255872  29.2877373  38.7706326
  66.7065872  29.1247373  36.0496326  67.0755872  29.7197373  35.0476326
  66.5645872  27.7557373  36.0726326  66.1995872  27.3507373  36.9336326
  66.6655872  26.8927373  34.8846326  67.4135872  27.3107373  34.2156326
  67.1335872  25.4707373  35.2406326  67.2725872  24.9217373  34.3086326
  68.4655872  25.4617373  35.9866326  68.3735872  25.9237373  36.9756326
  68.8225872  24.4327373  36.1176326  69.2265872  26.0107373  35.4176326
  66.1795872  24.7727373  36.0106326  66.0075872  25.2987373  36.8496326
  65.3405872  26.8397373  34.1186326  64.2805872  27.0867373  34.6736326
  65.3765872  26.4487373  32.7936326  66.2925872  26.3307373  32.3626326
  64.1595872  26.2427373  31.9826326  63.6325872  27.1937373  31.9276326
  64.5225872  25.8327373  30.5396326  65.2305872  26.5647373  30.1496326
  65.1725872  24.4467373  30.4456326  64.4745872  23.6517373  30.7356326
  65.4865872  24.2507373  29.4146326  66.0625872  24.3807373  31.0836326
  63.2935872  25.8417373  29.6256326  62.7975872  26.8187373  29.6566326
  63.5845872  25.6387373  28.5876326  62.5655872  25.0767373  29.9216326
  63.1945872  25.2407373  32.6286326  61.9945872  25.3817373  32.5126326
  63.7275872  24.2357373  33.3996326  64.7355872  24.2077373  33.4646326
  62.9545872  23.2187373  34.1176326  62.2035872  22.7977373  33.4506326
  63.9325872  22.1107373  34.5376326  64.7755872  22.5507373  35.0716326
  63.4325872  21.4287373  35.2226326  64.4605872  21.3267373  33.3216326
  65.0095872  22.0007373  32.6596326  65.1635872  20.5747373  33.6736326
  63.3345872  20.6307373  32.5486326  62.4025872  20.1007373  33.2056326
  63.3435872  20.6387373  31.2916326  62.1865872  23.7817373  35.3236326
  61.0665872  23.3697373  35.5926326  62.7605872  24.8157373  36.0296326
  63.6795872  25.1207373  35.7226326  62.0615872  25.5757373  37.0716326
  61.6205872  24.8767373  37.7836326  63.0575872  26.4727373  37.8286326
  63.3985872  27.2717373  37.1686326  62.5355872  26.9307373  38.6686326
  64.2735872  25.7177373  38.3686326  64.0945872  24.6727373  39.0266326
  65.4255872  26.1767373  38.1646326  60.9315872  26.4237373  36.4636326
  59.8315872  26.4867373  36.9886326  61.1965872  27.0547373  35.2656326
  62.1415872  26.9437373  34.9026326  60.2205872  27.8607373  34.5306326
  59.7625872  28.5637373  35.2266326  60.9415872  28.6547373  33.4276326
  61.4625872  27.9537373  32.7766326  60.1965872  29.1757373  32.8236326
  61.9525872  29.6857373  33.9676326  62.6345872  29.2137373  34.6716326
  62.7885872  30.2357373  32.8136326  62.1535872  30.6177373  32.0076326
  63.4455872  31.0407373  33.1626326  63.4265872  29.4457373  32.3996326
  61.2465872  30.8387373  34.6846326  60.8065872  30.4937373  35.6266326
  61.9555872  31.6397373  34.9256326  60.4405872  31.2567373  34.0716326
  59.0725872  27.0097373  33.9696326  57.9255872  27.3937373  34.0936326
  59.3575872  25.7887373  33.3976326  60.3455872  25.5617373  33.2926326
  58.3485872  24.8127373  32.9676326  57.6935872  25.2657373  32.2286326
  59.0515872  23.5967373  32.3486326  59.8985872  23.3257373  32.9796326
  58.3695872  22.7437373  32.3376326  59.5355872  23.8597373  30.9156326
  59.9505872  24.8637373  30.8306326  60.6185872  22.8537373  30.5546326
  60.2365872  21.8327373  30.6306326  60.9625872  23.0277373  29.5346326
  61.4835872  22.9527373  31.2196326  58.3885872  23.7067373  29.9146326
  57.6055872  24.4507373  30.0906326  58.7595872  23.8337373  28.8926326
  57.9375872  22.7087373  29.9856326  57.4655872  24.3667373  34.1326326
  56.2515872  24.3577373  34.0086326  58.1055872  24.0647373  35.3156326
  59.1215872  24.0927373  35.3056326  57.4105872  23.6597373  36.5396326
  56.8865872  22.7237373  36.3436326  58.4215872  23.4317373  37.6666326
  58.9995872  24.3367373  37.8486326  57.8835872  23.1807373  38.5806326
  59.2945872  22.3647373  37.3406326  59.9895872  22.7157373  36.7036326
  56.3715872  24.6917373  36.9866326  55.3255872  24.3197373  37.4936326
  56.6595872  26.0247373  36.7636326  57.5815872  26.2287373  36.3876326
  55.7175872  27.1237373  36.9746326  55.1695872  26.9417373  37.8996326
  56.4985872  28.4437373  37.1096326  57.1585872  28.5257373  36.2496326
  55.7995872  29.2807373  37.0796326  57.3555872  28.5617373  38.3826326
  57.9025872  27.6367373  38.5526326  58.3755872  29.6897373  38.2316326
  57.8775872  30.6497373  38.0506326  58.9865872  29.7787373  39.1346326
  59.0515872  29.4787373  37.3936326  56.4945872  28.8657373  39.6086326
  55.7305872  28.0957373  39.7536326  57.1215872  28.8887373  40.5066326
  55.9935872  29.8367373  39.5076326  54.6705872  27.1957373  35.8496326
  53.4885872  27.1207373  36.1366326  55.1025872  27.2997373  34.5326326
  56.1155872  27.3027373  34.4086326  54.2375872  27.4617373  33.3376326
  53.8035872  28.4627373  33.3216326  55.0565872  27.2467373  32.0486326
  55.6235872  26.3207373  32.1586326  54.3665872  27.1067373  31.2136326
  56.0135872  28.3867373  31.6586326  55.4375872  29.2357373  31.2886326
  56.5855872  28.7107373  32.5236326  56.9685872  27.8887373  30.5616326
  57.3995872  26.9397373  30.8796326  56.3975872  27.7167373  29.6466326
  58.0725872  28.8287373  30.2916326  58.0085872  29.7627373  30.6806326
  59.1705872  28.5677373  29.6026326  59.3765872  27.4327373  28.9936326
  58.6225872  26.7737373  28.8976326  60.2315872  27.2577373  28.4876326
  60.0955872  29.4737373  29.5146326  59.9175872  30.3747373  29.9386326
  60.9135872  29.2937373  28.9406326  53.0655872  26.4777373  33.3246326
  51.9395872  26.8707373  33.0856326  53.3475872  25.1647373  33.6326326
  54.3235872  24.9527373  33.8316326  52.3715872  24.0687373  33.6076326
  51.9295872  24.0137373  32.6116326  53.1145872  22.7507373  33.8926326
  53.7065872  22.8817373  34.7986326  52.3905872  21.9527373  34.0736326
  54.0275872  22.3167373  32.7286326  53.4085872  21.9187373  31.9236326
  54.5625872  23.1767373  32.3316326  55.0745872  21.2697373  33.1136326
  55.2705872  20.9117373  34.2586326  55.8125872  20.7227373  32.1176326
  56.5235872  20.0487373  32.3966326  55.5995872  20.9457373  31.1496326
  51.2095872  24.2467373  34.6056326  50.1625872  23.6457373  34.4156326
  51.4035872  25.0867373  35.6906326  52.3045872  25.5587373  35.7216326
  50.5215872  25.1897373  36.8676326  49.6745872  24.5167373  36.7336326
  51.2865872  24.7327373  38.1306326  52.1325872  25.4027373  38.2906326
  50.4135872  24.7607373  39.3896326  49.5355872  24.1127373  39.2716326
  50.9835872  24.4147373  40.2606326  50.0615872  25.7747373  39.6166326
  51.8285872  23.3027373  37.9886326  52.5735872  23.2407373  37.1866326
  52.3235872  22.9827373  38.9136326  51.0185872  22.5977373  37.7666326
  49.9465872  26.5997373  37.0696326  48.7855872  26.7257373  37.4256326
  50.7605872  27.6897373  36.8016326  51.6925872  27.4467373  36.4666326
  50.5095872  29.1277373  37.0836326  50.1025872  29.1717373  38.0926326
  51.8625872  29.8837373  37.1176326  52.5655872  29.2507373  37.6616326
  52.4705872  30.1427373  35.7306326  51.9605872  30.9647373  35.2136326
  53.5295872  30.4067373  35.8216326  52.3935872  29.2517373  35.0976326
  51.8005872  31.2037373  37.8946326  51.3955872  31.0407373  38.8996326
  52.8035872  31.6347373  37.9976326  51.1665872  31.9417373  37.3896326
  49.4345872  29.7797373  36.1846326  49.5025872  30.9307373  35.8016326
  48.3905872  28.9757373  35.8106326  48.4075872  28.0617373  36.2416326
  47.2505872  29.3347373  34.9586326  46.9385872  30.3547373  35.1876326
  47.6875872  29.2757373  33.4946326  46.8335872  29.5317373  32.8676326
  48.4785872  30.0077373  33.3246326  48.1575872  27.9857373  33.1416326
  49.1325872  27.9587373  33.2586326  46.0395872  28.4157373  35.1806326
  44.9115872  28.7947373  34.8966326  46.2655872  27.1767373  35.7516326
  47.2325872  26.9327373  35.9206326  45.2335872  26.2367373  36.1856326
  44.3165872  26.3917373  35.6196326  45.5765872  25.2207373  35.9836326
  44.9255872  26.3397373  37.6816326  43.7925872  26.6167373  38.0436326
  45.9785872  26.1277373  38.5556326  46.8965872  26.0497373  38.1266326
  45.8465872  25.6467373  39.9406326  44.8335872  25.8357373  40.3076326
  46.0695872  24.1217373  39.9246326  47.0055872  23.8907373  39.4196326
  46.1565872  23.7577373  40.9466326  44.9575872  23.3587373  39.2426326
  44.9115872  23.2517373  38.0356326  44.0275872  22.7727373  40.0226326
  43.3615872  22.1587373  39.5656326  44.0815872  22.9407373  41.0376326
  46.8235872  26.3337373  40.9266326  47.8205872  25.7427373  41.3216326
  46.5695872  27.6317373  41.3546326  45.4695872  28.4747373  40.8816326
  44.5505872  28.2057373  41.4196326  45.3155872  28.3747373  39.8026326
  45.9095872  29.8997373  41.2376326  45.0595872  30.5717373  41.4046326
  46.5185872  30.3067373  40.4216326  46.7945872  29.7387373  42.4806326
  46.1705872  29.7207373  43.3836326  47.5415872  30.5357373  42.5756326
  47.4535872  28.3727373  42.2626326  48.4045872  28.5157373  41.7536326
  47.7185872  27.6917373  43.6136326  48.7335872  27.9587373  44.2356326
  46.8025872  26.7827373  44.0976326  45.9665872  26.6067373  43.5296326
  46.9565872  26.0297373  45.3456326  47.1795872  26.7377373  46.1446326
  45.6265872  25.3307373  45.6996326  45.7195872  24.9787373  46.7286326
  44.8185872  26.0637373  45.6956326  45.2185872  24.1117373  44.8436326
  46.0625872  23.4267373  44.7666326  44.4345872  23.5827373  45.3906326
  44.6825872  24.4177373  43.4346326  44.5025872  25.6027373  43.0666326
  44.3895872  23.4517373  42.6976326  48.1285872  25.0307373  45.3056326
  48.7265872  24.7407373  46.3286326  48.4995872  24.5227373  44.0766326
  47.9795872  24.8497373  43.2656326  49.5835872  23.5657373  43.8746326
  49.5815872  22.8567373  44.7056326  49.2865872  22.7937373  42.5836326
  49.2875872  23.4687373  41.7206326  50.0435872  22.0177373  42.4166326
  48.3025872  22.3117373  42.6356326  50.9805872  24.2217373  43.8426326
  51.9825872  23.5277373  43.8376326  51.0675872  25.6017373  43.8076326
  50.1905872  26.1127373  43.8236326  52.3325872  26.3307373  43.6626326
  52.9215872  25.8437373  42.8856326  52.0475872  27.7807373  43.2276326
  51.4175872  28.2487373  43.9836326  52.9885872  28.3257373  43.2076326
  51.3795872  27.9427373  41.8506326  50.4695872  27.3467373  41.8036326
  51.0165872  29.4127373  41.6456326  51.9185872  30.0337373  41.6536326
  50.4975872  29.5527373  40.6896326  50.3525872  29.7607373  42.4476326
  52.3115872  27.5367373  40.7066326  52.5605872  26.4707373  40.7656326
  51.8285872  27.7107373  39.7376326  53.2445872  28.1127373  40.7356326
  53.2055872  26.3167373  44.9296326  54.4135872  26.4287373  44.8176326
  52.6085872  26.1607373  46.1646326  51.5985872  26.0817373  46.1676326
  53.3145872  26.2797373  47.4446326  53.5845872  27.3277373  47.5656326
  52.3435872  25.9337373  48.5816326  51.9285872  24.9267373  48.4636326
  52.8545872  25.9797373  49.5526326  51.5065872  26.6437373  48.5996326
  54.6525872  25.5017373  47.5366326  55.6665872  26.1357373  47.7846326
  54.7305872  24.1337373  47.2646326  53.5985872  23.2457373  46.9656326
  52.9275872  23.6607373  46.2076326  53.0405872  23.0427373  47.8886326
  54.2385872  21.9527373  46.4566326  54.3915872  22.0207373  45.3706326
  53.6185872  21.0727373  46.6666326  55.5965872  21.8957373  47.1706326
  56.3445872  21.3217373  46.6076326  55.4665872  21.4317373  48.1506326
  55.9865872  23.3707373  47.3546326  56.4255872  23.5047373  48.3436326
  57.0525872  23.7777373  46.3326326  58.2265872  23.5247373  46.5536326
  56.6395872  24.4167373  45.1816326  55.6495872  24.6267373  45.1066326
  57.5385872  24.9047373  44.1396326  58.4045872  24.2437373  44.0896326
  56.7965872  24.8287373  42.7946326  56.5255872  23.7887373  42.6056326
  55.8735872  25.4057373  42.8726326  57.5885872  25.3627373  41.5896326
  57.8315872  26.4147373  41.7396326  58.8765872  24.5807373  41.3276326
  58.6675872  23.5137373  41.1806326  59.3825872  24.9617373  40.4316326
  59.5765872  24.6847373  42.1656326  56.7095872  25.2447373  40.3506326
  55.7835872  25.8177373  40.4736326  57.2405872  25.6367373  39.4786326
  56.4385872  24.1987373  40.1586326  58.0575872  26.3157373  44.4486326
  59.2355872  26.5757373  44.2846326  57.1725872  27.2477373  44.9476326
  56.2035872  26.9517373  45.0536326  57.5635872  28.6087373  45.3286326
  58.1775872  29.0217373  44.5346326  56.3185872  29.5017373  45.4766326
  55.6595872  29.0687373  46.2316326  56.6385872  30.4827373  45.8316326
  55.5295872  29.6857373  44.1636326  55.1605872  28.7217373  43.8256326
  54.3335872  30.6047373  44.3996326  54.6555872  31.5807373  44.7806326
  53.7725872  30.7607373  43.4706326  53.6545872  30.1497373  45.1266326
  56.3595872  30.2897373  43.0306326  57.1715872  29.6157373  42.7406326
  55.7355872  30.4447373  42.1436326  56.7875872  31.2527373  43.3246326
  58.4545872  28.6177373  46.5776326  59.4245872  29.3567373  46.6176326
  58.1945872  27.6987373  47.5716326  57.3355872  27.1547373  47.4926326
  59.1155872  27.4117373  48.6786326  59.2765872  28.3167373  49.2676326
  58.4815872  26.3307373  49.5776326  57.4335872  26.5717373  49.7586326
  58.5055872  25.3787373  49.0446326  59.1915872  26.1537373  50.9286326
  59.0115872  25.1337373  51.2756326  60.2705872  26.2687373  50.8076326
  58.6505872  27.1257373  51.9846326  57.4665872  27.0097373  52.3666326
  59.3965872  28.0097373  52.4546326  60.4805872  26.9477373  48.1426326
  61.5165872  27.4657373  48.5176326  60.4845872  25.9787373  47.1576326
  59.5875872  25.6057373  46.8716326  61.7095872  25.4167373  46.6036326
  62.3165872  25.0617373  47.4386326  61.3465872  24.2157373  45.7156326
  60.7885872  23.4887373  46.2986326  60.7345872  24.5377373  44.8746326
  62.5815872  23.5317373  45.1756326  62.8805872  23.5837373  44.0036326
  63.3805872  22.9057373  46.0666326  64.2305872  22.4747373  45.7186326
  63.0985872  22.8497373  47.0306326  62.5675872  26.4537373  45.8576326
  63.7485872  26.5677373  46.1356326  61.9855872  27.2467373  44.8886326
  60.9975872  27.0937373  44.6856326  62.7735872  28.2047373  44.0956326
  63.6775872  27.6857373  43.7796326  62.0565872  28.6467373  42.8016326
  62.7715872  29.2567373  42.2496326  61.7505872  27.4217373  41.9196326
  60.9495872  26.8107373  42.3506326  61.4425872  27.7277373  40.9126326
  62.6405872  26.7887373  41.8106326  60.8265872  29.5397373  43.0706326
  60.1365872  29.0077373  43.7186326  61.1465872  30.4457373  43.5856326
  60.0785872  29.9767373  41.8076326  59.5755872  29.1217373  41.3396326
  59.3135872  30.7217373  42.0596326  60.7665872  30.4267373  41.0806326
  63.2465872  29.4047373  44.9236326  64.3425872  29.8827373  44.6906326
  62.4415872  29.8837373  45.9406326  61.5545872  29.4147373  46.1036326
  62.8535872  30.9817373  46.8276326  63.2615872  31.7837373  46.2116326
  61.6585872  31.5617373  47.5926326  62.0115872  32.3547373  48.2506326
  60.9505872  31.9907373  46.8826326  60.9985872  30.5937373  48.3776326
  60.3935872  30.0697373  47.7826326  63.9725872  30.5557373  47.7866326
  64.8815872  31.3297373  48.0256326  63.9715872  29.2637373  48.2776326
  63.1245872  28.7127373  48.1446326  65.0785872  28.6937373  49.0436326
  65.3535872  29.3947373  49.8326326  64.5885872  27.3957373  49.6976326
  64.2955872  26.6597373  48.9376326  65.3785872  26.9547373  50.3186326
  63.7185872  27.5917373  50.3386326  66.3385872  28.4417373  48.1876326
  67.4505872  28.5657373  48.6776326  66.1735872  28.0587373  46.8666326
  65.2115872  27.8927373  46.5756326  67.2745872  27.7417373  45.9356326
  68.0305872  27.1567373  46.4596326  66.7445872  26.9017373  44.7656326
  65.7875872  27.3027373  44.4306326  67.4455872  26.9497373  43.9306326
  66.5995872  25.4357373  45.1896326  67.5905872  25.0007373  45.2796326
  66.1125872  25.3817373  46.1646326  65.7645872  24.6217373  44.2026326
  65.6245872  23.6187373  44.6066326  64.7925872  25.1087373  44.1226326
  66.3775872  24.5137373  42.8696326  67.3745872  24.6167373  42.8036326
  65.7165872  24.2987373  41.7466326  64.4375872  24.0837373  41.6916326
  63.8965872  23.9267373  42.5366326  64.0125872  24.0497373  40.7666326
  66.3165872  24.3377373  40.5986326  67.2635872  24.6527373  40.5056326
  65.7075872  24.2947373  39.7796326  68.0125872  28.9637373  45.4006326
  69.2245872  28.9147373  45.2976326  67.2735872  30.0667373  45.0436326
  66.2655872  29.9987373  45.1616326  67.8135872  31.1747373  44.2546326
  68.8725872  30.9967373  44.0686326  67.1235872  31.1977373  42.8776326
  66.0535872  31.4037373  43.0156326  67.5215872  32.0437373  42.3006326
  67.2815872  29.9377373  42.0356326  66.1865872  29.0737373  41.8366326
  65.2435872  29.2887373  42.3176326  66.3125872  27.9507373  40.9956326
  65.4695872  27.2977373  40.8246326  67.5385872  27.6947373  40.3456326
  67.6455872  26.6517373  39.4826326  66.7695872  26.4667373  39.0206326
  68.6455872  28.5347373  40.5786326  69.5815872  28.3277373  40.0816326
  68.5165872  29.6577373  41.4186326  69.3605872  30.3157373  41.5816326
  67.7065872  32.5327373  44.9726326  66.8195872  33.3127373  44.6696326
  68.6725872  32.9047373  45.9036326  69.6945872  32.0127373  46.4576326
  70.4575872  31.8077373  45.6956326  69.2535872  31.0727373  46.8116326
  70.2995872  32.7927373  47.6306326  71.3615872  32.5577373  47.7786326
  69.7585872  32.5437373  48.5536326  70.0705872  34.2737373  47.2866326
  70.9045872  34.6397373  46.6716326  69.9865872  34.9067373  48.1796326
  68.7685872  34.2577373  46.4706326  67.9215872  34.4157373  47.1386326
  68.7785872  35.3667373  45.4036326  68.2415872  36.4377373  45.6106326
  69.3385872  35.0767373  44.1766326  69.7085872  34.1357373  44.0656326
  69.3575872  35.9797373  43.0216326  69.8685872  36.9007373  43.3086326
  70.1195872  35.3327373  41.8476326  69.4995872  34.5617373  41.3856326
  70.2765872  36.1087373  41.0976326  71.4945872  34.7287373  42.1966326
  72.1145872  34.7747373  41.3036326  71.9855872  35.3277373  42.9636326
  71.4435872  33.2657373  42.6436326  70.4385872  32.7457373  43.0786326
  72.5695872  32.5237373  42.5616326  72.5025872  31.5697373  42.8706326
  73.4015872  32.9327373  42.1346326  67.9435872  36.3527373  42.5506326
  67.7345872  37.4307373  42.0206326  66.9235872  35.4447373  42.7586326
  67.1555872  34.5927373  43.2656326  65.5255872  35.6917373  42.4206326
  65.5035872  36.1477373  41.4316326  64.7835872  34.3407373  42.3436326
  65.3285872  33.6837373  41.6636326  64.8005872  33.8817373  43.3306326
  63.3145872  34.4067373  41.8856326  62.7425872  35.0457373  42.5576326
  63.1715872  34.9357373  40.4576326  63.7745872  34.3417373  39.7596326
  62.1235872  34.8967373  40.1406326  63.4945872  35.9817373  40.3986326
  62.7035872  33.0067373  41.9486326  62.7375872  32.6227373  42.9776326
  61.6545872  33.0247373  41.6276326  63.2595872  32.3127373  41.3086326
  64.8675872  36.6927373  43.3846326  63.9095872  37.3287373  42.9856326
  65.4025872  36.9027373  44.6506326  66.2115872  36.3397373  44.9076326
  64.9895872  38.0197373  45.5236326  63.9065872  37.9927373  45.6526326
  65.6625872  37.9287373  46.9126326  65.4445872  36.9537373  47.3526326
  66.7415872  38.0227373  46.8026326  65.1785872  39.0317373  47.8726326
  65.2955872  40.0127373  47.4116326  64.1165872  38.8717373  48.0676326
  65.9255872  39.0417373  49.2176326  65.3385872  39.6467373  49.9106326
  65.9785872  38.0237373  49.6086326  67.2885872  39.6087373  49.1146326
  67.7825872  39.5367373  48.2276326  67.9575872  40.2817373  50.0336326
  67.5175872  40.5217373  51.2356326  66.6045872  40.2127373  51.4966326
  68.0975872  41.0807373  51.8436326  69.1365872  40.7387373  49.7676326
  69.4355872  40.6677373  48.7936326  69.5935872  41.3407373  50.4296326
  65.3185872  39.3397373  44.8376326  64.4345872  40.1237373  44.5526326
  66.6375872  39.5337373  44.5036326  67.2785872  38.7927373  44.7636326
  67.1475872  40.7527373  43.8726326  66.9535872  41.6047373  44.5276326
  68.6685872  40.6457373  43.6376326  68.8475872  40.0357373  42.7526326
  69.0445872  41.6437373  43.4136326  69.5035872  40.0397373  44.7786326
  69.2535872  38.9797373  44.8556326  70.5585872  40.1087373  44.5026326
  69.3055872  40.7107373  46.1446326  69.4245872  40.0067373  47.1756326
  69.1185872  41.9457373  46.2116326  66.4385872  41.0107373  42.5356326
  65.9515872  42.0977373  42.2766326  66.3315872  39.9507373  41.6556326
  66.7875872  39.0797373  41.9246326  65.8415872  40.1207373  40.2906326
  66.2645872  41.0567373  39.9276326  66.3635872  38.9857373  39.3926326
  67.3925872  38.7427373  39.6876326  65.7675872  38.0797373  39.5596326
  66.3985872  39.3067373  37.9136326  66.2995872  38.3617373  36.8866326
  66.4835872  39.0417373  35.7416326  66.4705872  38.6027373  34.7526326
  66.7385872  40.3337373  35.9946326  66.9625872  41.0397373  35.3016326
  66.7025872  40.5187373  37.3566326  66.9085872  41.4417373  37.8816326
  64.3205872  40.2887373  40.2046326  63.8735872  41.0437373  39.3636326
  63.4835872  39.6557373  41.1106326  63.8985872  39.0417373  41.8096326
  62.0315872  39.9237373  41.1406326  61.7155872  40.0137373  40.1016326
  61.2395872  38.7467373  41.7616326  61.7605872  37.8217373  41.5096326
  61.1325872  38.8457373  43.2956326  60.4735872  39.6687373  43.5986326
  60.7275872  37.9187373  43.7096326  62.1175872  39.0127373  43.7476326
  59.8295872  38.6577373  41.1346326  59.2335872  39.5157373  41.4456326
  59.9245872  38.6837373  40.0486326  59.0645872  37.3767373  41.4916326
  58.8225872  37.3407373  42.5606326  58.1195872  37.3337373  40.9356326
  59.6515872  36.4867373  41.2316326  61.7015872  41.2737373  41.7986326
  60.6405872  41.8207373  41.5546326  62.6295872  41.8467373  42.6466326
  63.4545872  41.2957373  42.8746326  62.5135872  43.2057373  43.1866326
  61.4725872  43.3917373  43.4506326  63.3595872  43.3377373  44.4636326
  64.3465872  42.9017373  44.3076326  63.4825872  44.3927373  44.7036326
  62.6635872  42.6417373  45.6396326  61.7255872  43.1597373  45.8446326
  62.4195872  41.6227373  45.3416326  63.6125872  42.5417373  47.1836326
  63.8565872  44.2997373  47.5586326  62.8895872  44.8167373  47.6126326
  64.3715872  44.4037373  48.5216326  64.4735872  44.7717373  46.7846326
  62.9025872  44.2727373  42.1536326  62.2105872  45.2667373  42.0226326
  64.0175872  44.0597373  41.3736326  64.5985872  43.2547373  41.6046326
  64.4785872  45.0017373  40.3556326  64.3825872  46.0157373  40.7476326
  65.9655872  44.7307373  40.0966326  66.1185872  43.7197373  39.6976326
  66.3635872  45.4507373  39.3696326  66.5445872  44.8257373  41.0246326
  63.6625872  44.9317373  39.0496326  63.2675872  45.9597373  38.5146326
  63.4065872  43.6777373  38.5286326  63.7325872  42.8877373  39.0796326
  62.9345872  43.3857373  37.1716326  62.3965872  44.2597373  36.8066326
  64.1585872  43.1717373  36.2596326  64.7475872  42.3397373  36.6376326
  63.8145872  42.9267373  35.2576326  65.0375872  44.3957373  36.1526326
  66.1115872  44.4657373  36.7056326  64.5675872  45.4227373  35.4116326
  65.1135872  46.2657373  35.4016326  63.6445872  45.3097373  34.9796326
  61.9475872  42.1897373  37.1056326  62.1855872  41.2257373  36.3836326
  60.7685872  42.2287373  37.8496326  60.2985872  43.3877373  38.6106326
  60.4485872  44.3067373  38.0396326  60.8375872  43.4477373  39.5646326
  58.8055872  43.1367373  38.8496326  58.2235872  43.5957373  38.0396326
  58.4635872  43.5567373  39.8026326  58.6495872  41.6077373  38.7926326
  57.6525872  41.2997373  38.4506326  58.8195872  41.1797373  39.7866326
  59.7635872  41.1597373  37.8346326  60.2105872  40.2387373  38.2066326
  59.2075872  40.8827373  36.4316326  58.7565872  39.7827373  36.1666326
  59.2835872  41.8717373  35.4756326  59.6925872  42.7677373  35.7596326
  58.8875872  41.7157373  34.0786326  57.8485872  41.4027373  34.0706326
  58.9745872  43.0637373  33.3296326  58.4935872  42.9147373  32.3616326
  58.3825872  43.8117373  33.8586326  60.3815872  43.6367373  33.0526326
  61.0325872  42.8517373  32.6686326  60.2775872  44.3787373  32.2576326
  61.0565872  44.3307373  34.2466326  62.1565872  44.9007373  34.0496326
  60.5045872  44.3147373  35.3666326  59.6605872  40.6097373  33.3486326
  59.1025872  39.9797373  32.4676326  60.9465872  40.3017373  33.7496326
  61.3335872  40.8387373  34.5256326  61.7315872  39.2107373  33.1476326
  61.5985872  39.2447373  32.0646326  63.2355872  39.3667373  33.4446326
  63.4025872  39.2847373  34.5196326  64.0635872  38.2847373  32.7356326
  63.8725872  38.2967373  31.6546326  65.1365872  38.4447373  32.8916326
  63.8165872  37.2867373  33.1126326  63.7645872  40.7247373  32.9706326
  63.2415872  41.5467373  33.4716326  64.8305872  40.8167373  33.2066326
  63.6215872  40.8337373  31.8876326  61.2195872  37.8527373  33.6296326
  61.0395872  36.9417373  32.8406326  60.9105872  37.7287373  34.9696326
  61.0295872  38.5587373  35.5396326  60.2905872  36.5367373  35.5516326
  60.9125872  35.6697373  35.3266326  60.2205872  36.6987373  37.0786326
  61.2425872  36.7737373  37.4746326  59.7355872  37.6517373  37.3216326
  59.4925872  35.5827373  37.8206326  58.1705872  35.7757373  38.2666326
  57.6615872  36.7057373  38.0596326  57.5125872  34.7627373  38.9876326
  56.4995872  34.9127373  39.3346326  58.1705872  33.5507373  39.2596326
  57.6625872  32.7727373  39.8146326  59.4845872  33.3487373  38.8026326
  59.9865872  32.4127373  39.0046326  60.1445872  34.3627373  38.0836326
  61.1555872  34.2067373  37.7386326  58.9135872  36.2717373  34.9256326
  58.6465872  35.1677373  34.4876326  58.0465872  37.3367373  34.7876326
  58.3495872  38.2247373  35.1866326  56.7395872  37.2537373  34.1176326
  56.1515872  36.4747373  34.6026326  55.9765872  38.5867373  34.2646326
  56.6385872  39.4037373  33.9796326  54.7235872  38.6627373  33.3886326
  54.0695872  37.7977373  33.5546326  54.1565872  39.5757373  33.6046326
  54.9905872  38.6977373  32.3246326  55.5335872  38.8007373  35.7186326
  56.3905872  38.7877373  36.4016326  55.0325872  39.7707373  35.8316326
  54.8375872  38.0157373  36.0356326  56.8865872  36.8387373  32.6496326
  56.2455872  35.8937373  32.2246326  57.8005872  37.4977373  31.8526326
  58.3005872  38.2807373  32.2656326  57.9945872  37.1977373  30.4226326
  57.0425872  37.3227373  29.9066326  59.0035872  38.1617373  29.7886326
  59.9755872  38.0547373  30.2736326  59.1095872  37.9197373  28.7306326
  58.5625872  39.4977373  29.9066326  58.7615872  39.8007373  30.8376326
  58.4665872  35.7617373  30.1746326  58.1065872  35.1597373  29.1806326
  59.2565872  35.1587373  31.1316326  59.5535872  35.7397373  31.9136326
  59.6755872  33.7547373  31.0796326  60.0465872  33.5447373  30.0766326
  60.8145872  33.5407373  32.0836326  60.5565872  33.9987373  33.0386326
  60.9475872  32.4757373  32.2466326  62.1475872  34.1077373  31.5906326
  62.0175872  35.1407373  31.2666326  62.8345872  34.1097373  32.4356326
  62.8985872  33.1487373  30.2426326  64.6165872  33.1117373  30.8196326
  64.6875872  32.5877373  31.7806326  65.2495872  32.5887373  30.0906326
  64.9975872  34.1327373  30.9476326  58.5365872  32.7487373  31.3366326
  58.6915872  31.5737373  31.0216326  57.3715872  33.2097373  31.9206326
  57.3545872  34.1977373  32.1656326  56.1685872  32.4127373  32.1916326
  56.4175872  31.3567373  32.1026326  55.6875872  32.6757373  33.6296326
  55.4185872  33.7297373  33.7206326  54.7855872  32.0857373  33.8046326
  56.7165872  32.3337373  34.7216326  57.6115872  32.9327373  34.5876326
  56.1275872  32.6487373  36.0966326  55.2435872  32.0347373  36.3016326
  56.8735872  32.4677373  36.8786326  55.8425872  33.7057373  36.1526326
  57.1325872  30.8647373  34.6876326  57.6825872  30.6357373  33.7676326
  57.8045872  30.6487373  35.5236326  56.2565872  30.2087373  34.7466326
  55.0335872  32.6557373  31.1846326  54.2495872  31.7527373  30.9576326
  54.9715872  33.8667373  30.5216326  55.6365872  34.5727373  30.8256326
  54.0905872  34.1727373  29.3826326  53.1095872  33.7447373  29.5906326
  53.9245872  35.7007373  29.2256326  54.9065872  36.1367373  29.0316326
  53.3015872  35.8847373  28.3496326  53.2895872  36.4367373  30.4226326
  53.9315872  36.3467373  31.2946326  53.1375872  37.9217373  30.0886326
  52.4725872  38.0657373  29.2286326  52.7235872  38.4707373  30.9426326
  54.1145872  38.3607373  29.8486326  51.9065872  35.8967373  30.7906326
  51.9835872  34.8697373  31.1626326  51.4595872  36.5037373  31.5866326
  51.2395872  35.9047373  29.9206326  54.5735872  33.4797373  28.0886326
  54.8205872  34.1087373  27.0736326  54.7435872  32.1187373  28.1606326
  54.4445872  31.6987373  29.0386326  55.1825872  31.2197373  27.0926326
  55.6475872  31.8017373  26.2956326  56.2375872  30.2677373  27.6896326
  57.1325872  30.8427373  27.9356326  55.8375872  29.8747373  28.6256326
  56.6505872  29.0547373  26.8406326  57.2635872  28.4047373  27.4636326
  55.7695872  28.4757373  26.5616326  57.4435872  29.4167373  25.5826326
  56.9705872  30.2317373  24.7626326  58.5235872  28.8167373  25.3576326
  53.9885872  30.4527373  26.5016326  53.1655872  29.9337373  27.2336326
  53.9305872  30.3247373  25.1286326  54.7015872  30.7367373  24.6126326
  52.9555872  29.5107373  24.3936326  53.0955872  29.7507373  23.3416326
  53.3275872  28.0287373  24.5616326  53.1565872  27.7007373  25.5956326
  52.7245872  27.3997373  23.8986326  54.3845872  27.8637373  24.3156326
  51.4675872  29.8457373  24.6706326  50.6145872  28.9707373  24.6146326
  51.1595872  31.1687373  24.9346326  51.9485872  31.8027373  24.9386326
  49.8245872  31.7597373  25.1816326  49.0605872  30.9907373  25.0876326
  49.7745872  32.3207373  26.6156326  50.6545872  32.9457373  26.7866326
  48.5295872  33.1657373  26.8876326  47.6195872  32.6027373  26.6486326
  48.4855872  33.4747373  27.9386326  48.5535872  34.0767373  26.2786326
  49.7715872  31.1767373  27.6366326  50.6635872  30.5507373  27.5226326
  49.7745872  31.5687373  28.6606326  48.8895872  30.5387373  27.5046326
  49.4895872  32.8057373  24.1226326  50.3885872  33.6097373  23.7916326
  21.5595872  41.1947373  79.8776326  21.8395872  41.5847373  79.0116326
  21.7085872  40.6067373  77.9886326  20.6525872  40.4097373  77.7986326
  22.1785872  39.6767373  78.3196326  22.3815872  41.0397373  76.6756326
  22.3155872  40.2097373  75.9596326  21.7445872  42.2137373  76.1096326
  22.7655872  43.0787373  75.5786326  23.1055872  42.6747373  74.6136326
  22.4055872  44.4937373  75.3936326  22.4615872  45.5197373  76.3126326
  22.7435872  45.3717373  77.3466326  22.1545872  46.6947373  75.8416326
  21.8735872  46.4397373  74.4956326  21.5145872  47.3367373  73.4296326
  21.3515872  48.5437373  73.4476326  21.3705872  46.7187373  72.2146326
  21.2195872  47.3217373  71.4246326  21.5265872  45.3927373  72.0236326
  21.4325872  45.0007373  70.7836326  21.3205872  45.6977373  70.0576326
  21.7515872  44.0737373  70.5506326  21.8415872  44.4937373  72.9806326
  22.0125872  45.0937373  74.2076326  23.8685872  41.3927373  76.8606326
  24.2135872  41.1717373  77.8746326  23.8905872  42.8967373  76.6226326
  23.6615872  43.4057373  77.5646326  24.8705872  43.2337373  76.2716326
  24.6745872  40.7247373  75.9056326  25.2385872  39.2547373  76.2236326
  24.2645872  38.4897373  77.0456326  26.5395872  39.2187373  76.9386326
  25.2535872  38.5537373  74.7816326  26.1335872  38.9667373  73.7556326
  26.7515872  38.1177373  73.4596326  26.7845872  39.7727373  74.1026326
  25.3215872  39.4487373  72.5486326  24.5905872  38.6797373  72.2696326
  24.6605872  40.7007373  72.8516326  25.0005872  41.6957373  71.8736326
  24.2885872  41.6147373  71.0396326  25.0905872  43.0887373  72.3386326
  25.6195872  43.2917373  73.5706326  25.9255872  42.4357373  74.1826326
  25.7505872  44.6217373  73.9956326  26.1765872  44.8327373  74.9626326
  25.3215872  45.6367373  73.1556326  25.3865872  46.8757373  73.5486326
  25.0565872  47.6217373  72.9556326  25.9465872  47.0987373  74.3586326
  24.7995872  45.4057373  71.9496326  24.6785872  44.1067373  71.4656326
  24.2295872  43.9157373  70.3446326  26.2465872  39.7207373  71.3596326
  27.2205872  39.2507373  71.5196326  26.3765872  41.2377373  71.3776326
  27.1795872  41.5397373  72.0626326  26.5785872  41.6397373  70.3806326
  25.6735872  39.2617373  70.1466326  26.6315872  38.8947373  68.9176326
  26.1325872  37.9577373  67.8836326  27.8885872  38.2227373  69.3216326
  26.9245872  40.3307373  68.2856326  26.0465872  40.9097373  67.3326326
  25.1305872  41.2447373  67.8206326  25.7885872  40.1657373  66.5776326
  26.7165872  42.0917373  66.6226326  26.1415872  42.3227373  65.7176326
  26.7475872  43.2577373  67.4686326  28.0855872  43.7677373  67.5856326
  28.2505872  44.5317373  66.8106326  28.3745872  44.3537373  68.8986326
  28.4475872  43.7387373  70.1226326  28.4075872  42.6657373  70.2286326
  28.5395872  44.5547373  71.1396326  28.5885872  45.8227373  70.5376326
  28.7205872  47.1517373  71.0926326  28.7325872  47.5047373  72.2606326
  28.8595872  48.1327373  70.1256326  29.0355872  49.0757373  70.4456326
  28.8345872  47.8827373  68.7926326  29.0975872  48.8537373  67.9696326
  29.2795872  49.7957373  68.3166326  29.0925872  48.6397373  66.9946326
  28.6365872  46.6807373  68.2356326  28.5335872  45.6917373  69.1666326
  28.1665872  41.7697373  66.2266326  28.3605872  40.7007373  66.3256326
  28.9725872  42.5437373  67.2746326  29.1075872  41.9117373  68.1596326
  29.9615872  42.8287373  66.9016326  28.4005872  42.1597373  64.8836326
  29.7775872  41.8077373  64.1286326  29.4425872  41.3777373  62.7436326
  30.4475872  40.6467373  64.7706326  30.4995872  43.2417373  64.2836326
  29.9305872  44.3897373  63.6586326  28.8715872  44.4447373  63.9126326
  30.0055872  44.2697373  62.5766326  30.5575872  45.7397373  64.0446326
  30.0165872  46.5187373  63.4926326  30.4275872  46.0187373  65.4556326
  31.6095872  46.7027373  65.9116326  31.5695872  47.7557373  65.5866326
  31.8725872  46.6437373  67.3606326  31.6375872  45.4567373  67.9716326
  31.3135872  44.6017373  67.3746326  31.7825872  45.4097373  69.3656326
  31.5755872  44.4937373  69.8916326  32.1205872  46.5777373  70.0346326
  32.1095872  46.6127373  71.3346326  32.2325872  47.5197373  71.7806326
  31.7725872  45.8287373  71.8506326  32.3545872  47.7257373  69.4066326
  32.2515872  47.8227373  68.0256326  32.4845872  48.8887373  67.4856326
  32.0485872  45.8967373  63.7176326  32.4195872  45.0367373  63.1536326
  32.6965872  45.9787373  65.0986326  32.8835872  44.9687373  65.4816326
  33.6355872  46.5377373  65.0686326  32.2235872  47.1057373  62.9896326
  33.5655872  47.4057373  62.1656326  33.2015872  48.0317373  60.8606326
  34.3355872  46.1817373  61.8486326  34.3545872  48.4327373  63.1216326
  33.9495872  49.7937373  63.2046326  32.9795872  49.8457373  63.7026326
  33.8315872  50.1867373  62.1946326  34.9325872  50.7137373  63.9466326
  34.6315872  51.7457373  63.7276326  34.8565872  50.4997373  65.3676326
  36.1045872  50.0307373  65.9016326  36.6255872  50.8827373  66.3656326
  35.9605872  48.9497373  66.8976326  35.7545872  47.6207373  66.5776326
  35.6925872  47.3177373  65.5426326  35.6145872  46.6897373  67.5566326
  35.4375872  45.2277373  67.1806326  35.4475872  45.0777373  66.0946326
  36.2475872  44.6307373  67.6186326  34.4915872  44.8457373  67.5836326
  35.6295872  47.0817373  68.9626326  35.5165872  46.3257373  69.9126326
  35.7785872  48.4307373  69.1876326  35.7325872  48.7467373  70.1466326
  35.9585872  49.4027373  68.2316326  36.1165872  50.5547373  68.6026326
  36.4075872  50.5397373  63.5536326  36.4845872  50.0477373  62.5816326
  36.9285872  49.6177373  64.6566326  36.7565872  48.5867373  64.3396326
  38.0045872  49.7347373  64.8276326  37.0815872  51.7937373  63.5156326
  38.5975872  51.8927373  62.9786326  38.8165872  53.0727373  62.0976326
  38.9795872  50.7257373  62.1506326  39.3765872  51.9757373  64.3766326
  39.4365872  53.1937373  65.1076326  38.4345872  53.6077373  65.2036326
  40.0585872  53.9067373  64.5636326  40.0075872  53.0197373  66.5196326
  40.0115872  53.9977373  67.0196326  39.2075872  52.0787373  67.2796326
  40.1005872  51.2097373  67.9956326  40.5045872  51.7497373  68.8656326
  39.5815872  49.9267373  68.4756326  39.4365872  48.7407373  67.7936326
  39.5925872  48.6647373  66.7266326  39.1185872  47.7167373  68.5406326
  39.0285872  48.2737373  69.8256326  38.7365872  47.6657373  71.0966326
  38.4905872  46.4937373  71.3376326  38.7675872  48.5527373  72.1516326
  38.5865872  48.1947373  73.0766326  39.0225872  49.8747373  72.0146326
  39.0075872  50.6017373  73.0956326  38.8245872  50.1857373  74.0076326
  39.1995872  51.5777373  72.9956326  39.3055872  50.4877373  70.8536326
  39.2935872  49.6257373  69.7906326  41.4425872  52.4717373  66.5296326
  41.9125872  52.5217373  65.5436326  41.2315872  51.0267373  66.9706326
  40.9195872  50.4177373  66.1136326  42.1315872  50.5957373  67.4236326
  42.2245872  53.1227373  67.5166326  43.2425872  54.3007373  67.1336326
  42.5895872  55.3937373  66.3756326  44.4115872  53.7647373  66.3906326
  43.5935872  54.7697373  68.6336326  42.7915872  55.7457373  69.2826326
  41.7855872  55.7047373  68.8686326  43.1995872  56.7327373  69.0666326
  42.6755872  55.5627373  70.8046326  42.0595872  56.3777373  71.1946326
  42.0285872  54.3077373  71.0966326  42.9005872  53.4507373  71.8496326
  42.6225872  53.5137373  72.9086326  42.8705872  52.0487373  71.4456326
  43.1045872  51.5167373  70.2006326  43.3855872  52.1317373  69.3556326
  42.9515872  50.2197373  70.1286326  42.5725872  49.8817373  71.4396326
  42.2205872  48.6827373  72.1006326  42.1505872  47.5027373  71.5166326
  41.9265872  46.6957373  72.0886326  42.4515872  47.4117373  70.5646326
  41.9195872  48.6677373  73.4116326  41.9655872  49.8207373  74.0676326
  41.7195872  49.7737373  75.1206326  42.2725872  51.0257373  73.5896326
  42.5505872  50.9837373  72.2536326  44.0085872  55.5557373  71.5646326
  44.7785872  56.0807373  70.9936326  44.3015872  54.0617373  71.6496326
  44.7635872  53.7177373  70.7156326  44.9765872  53.8317373  72.4776326
  43.8345872  56.1527373  72.8476326  45.0865872  56.6957373  73.6976326
  44.7305872  57.8287373  74.5796326  46.3045872  57.0867373  72.9486326
  45.2905872  55.4187373  74.6406326  46.4735872  55.2547373  75.4046326
  46.8245872  56.2237373  75.7646326  47.2475872  54.8207373  74.7696326
  46.2145872  54.3577373  76.6226326  45.7485872  54.9597373  77.4136326
  45.3525872  53.2557373  76.2576326  46.0655872  52.0067373  76.3096326
  45.7815872  51.4837373  77.2396326  45.8635872  51.1157373  75.1506326
  46.0595872  51.6507373  73.9196326  46.3205872  52.7067373  73.8246326
  45.9195872  50.7967373  72.8156326  46.0715872  51.1807373  71.8196326
  45.5955872  49.4667373  73.0416326  45.4695872  48.6397373  72.0456326
  45.2455872  47.6677373  72.2416326  45.5555872  48.9707373  71.1066326
  45.3825872  48.9797373  74.2616326  45.4875872  49.7857373  75.3856326
  45.2675872  49.3117373  76.4846326  47.5175872  53.7547373  77.1566326
  48.3725872  54.3797373  76.8846326  47.5535872  52.4187373  76.4266326
  48.0335872  52.5477373  75.4496326  48.1265872  51.6867373  76.9986326
  47.4725872  53.5847373  78.5616326  48.8195872  53.3707373  79.4116326
  48.7205872  53.9887373  80.7586326  50.0205872  53.9857373  78.7906326
  48.9505872  51.7687373  79.4886326  48.1885872  51.0327373  80.4406326
  47.1695872  51.4217373  80.4596326  48.6235872  51.1677373  81.4316326
  48.1065872  49.5297373  80.1386326  47.5145872  49.0407373  80.9236326
  47.4905872  49.2977373  78.8616326  47.8185872  47.9767373  78.3966326
  46.9735872  47.3137373  78.6306326  48.1185872  47.8827373  76.9656326
  48.6965872  48.9107373  76.2616326  48.9905872  49.8007373  76.7956326
  48.8765872  48.8007373  74.9216326  49.5045872  49.9517373  74.1556326
  50.4125872  49.6127373  73.6396326  48.8105872  50.3147373  73.3876326
  49.7725872  50.7877373  74.8126326  48.5055872  47.5687373  74.2246326
  48.6575872  47.3537373  73.0366326  48.0155872  46.5607373  75.0286326
  47.8845872  45.6547373  74.5986326  47.8255872  46.6367373  76.3896326
  47.4505872  45.6497373  77.0016326  49.4445872  48.8037373  80.0186326
  50.1495872  49.4157373  79.4516326  49.0445872  47.5557373  79.2336326
  49.8805872  47.1907373  78.6286326  48.7515872  46.7487373  79.9166326
  49.9475872  48.4107373  81.2806326  51.5145872  48.2117373  81.5266326
  51.6955872  48.1037373  82.9956326  52.2795872  49.4057373  81.1046326
  51.8505872  46.8477373  80.7386326  51.4165872  45.5947373  81.2456326
  50.3365872  45.6267373  81.3846326  51.8775872  45.4297373  82.2206326
  51.7395872  44.3867373  80.3496326  51.3175872  43.4997373  80.8396326
  51.1415872  44.5277373  79.0426326  52.0835872  44.0747373  78.0566326
  52.0935872  42.9777373  78.0646326  51.8825872  44.5417373  76.6796326
  51.6395872  45.8637373  76.5186326  51.6435872  46.5277373  77.3866326
  51.3905872  46.3087373  75.2156326  51.2095872  47.3537373  75.0396326
  51.4045872  45.3827373  74.1826326  51.1185872  45.7647373  72.9736326
  51.1315872  45.0647373  72.2376326  50.5975872  46.6137373  72.8356326
  51.6785872  44.0917373  74.3686326  51.9145872  43.5917373  75.6426326
  52.1075872  42.3937373  75.7996326  53.2345872  44.1157373  80.0906326
  53.8625872  44.6777373  80.7866326  53.4145872  44.5727373  78.6476326
  53.5115872  45.6647373  78.6006326  54.2855872  44.1037373  78.1776326
  53.4685872  42.7127373  80.1666326  54.9265872  42.0977373  80.4486326
  54.5135872  40.8137373  81.0636326  55.7675872  42.9257373  81.3416326
  55.5225872  41.8467373  78.9816326  55.6255872  40.5257373  78.4546326
  54.6275872  40.1187373  78.2976326  56.1405872  39.8927373  79.1796326
  56.3935872  40.4407373  77.1286326  56.4735872  39.3877373  76.8386326
  55.6885872  41.1707373  76.1066326  56.5855872  42.0937373  75.4706326
  57.1075872  41.5727373  74.6526326  55.9575872  43.2957373  74.9286326
  55.5985872  44.4557373  75.5746326  55.7835872  44.6167373  76.6276326
  55.0305872  45.3527373  74.8116326  55.0135872  44.7157373  73.5596326
  54.5625872  45.0757373  72.2686326  53.9505872  46.2077373  71.9716326
  53.5835872  46.2847373  71.0266326  53.5155872  46.6947373  72.7346326
  54.6945872  44.2347373  71.2326326  55.2585872  43.0577373  71.4506326
  55.3475872  42.4077373  70.5906326  55.7315872  42.5797373  72.5956326
  55.5745872  43.4677373  73.6206326  57.8075872  41.0357373  77.1996326
  58.1515872  41.1177373  78.2346326  57.6005872  42.4127373  76.5866326
  57.1955872  43.0947373  77.3416326  58.5365872  42.8207373  76.1976326
  58.7245872  40.3057373  76.3956326  60.0785872  39.7427373  77.0326326
  59.8125872  38.7857373  78.1336326  60.9565872  40.8307373  77.5216326
  60.8165872  39.0847373  75.7746326  60.3435872  37.9357373  75.0946326
  59.2625872  37.8587373  75.2036326  60.8135872  37.0497373  75.5156326
  60.6535872  38.0047373  73.5886326  60.4215872  37.0307373  73.1396326
  59.8265872  39.0287373  73.0006326  60.6415872  40.0887373  72.4696326
  60.7895872  39.8977373  71.3986326  60.0895872  41.4357373  72.6366326
  60.0705872  42.2307373  73.7596326  60.4855872  41.9067373  74.7066326
  59.5105872  43.4027373  73.5876326  59.0885872  43.3497373  72.2436326
  58.3945872  44.2227373  71.3696326  57.9695872  45.4327373  71.6636326
  57.4795872  45.9407373  70.9386326  58.2045872  45.8667373  72.5416326
  58.1035872  43.8627373  70.1046326  58.4985872  42.6707373  69.6956326
  58.2555872  42.4227373  68.6706326  59.1665872  41.7427373  70.3826326
  59.4215872  42.1507373  71.6656326  62.1015872  38.3847373  73.2406326
  62.7885872  38.0587373  74.0256326  62.0105872  39.9087373  73.1636326
  62.0405872  40.3577373  74.1606326  62.8435872  40.3327373  72.5986326
  62.4575872  37.8367373  71.9746326  63.9765872  37.4287373  71.6356326
  64.1485872  36.6047373  70.4166326  64.6235872  36.7147373  72.7686326
  64.6715872  38.8687373  71.4236326  64.8165872  39.4507373  70.1316326
  65.4075872  38.7817373  69.5036326  65.3565872  40.3917373  70.2296326
  63.4695872  39.7197373  69.4426326  62.9085872  38.7787373  69.3586326
  62.7245872  40.6997373  70.1966326  62.4525872  41.8587373  69.3976326
  61.5095872  41.6917373  68.8596326  62.3395872  43.1557373  70.0766326
  62.9075872  43.2987373  71.3006326  63.5075872  42.4907373  71.7276326
  62.6625872  44.5037373  71.9776326  63.0815872  44.6577373  72.9576326
  61.8565872  45.4577373  71.3696326  61.5575872  46.5727373  71.9706326
  60.9775872  47.2367373  71.4676326  61.9375872  46.7897373  72.8676326
  61.3175872  45.2767373  70.1686326  61.5395872  44.1177373  69.4466326
  61.0195872  43.9647373  68.3556326  63.6285872  40.3367373  68.0486326
  64.5635872  40.0307373  67.5726326  63.5815872  41.8327373  68.3596326
  64.5295872  42.1907373  68.7806326  63.3145872  42.4227373  67.4766326
  62.4955872  39.9807373  67.2746326  62.5805872  39.6837373  65.7056326
  61.2295872  39.2197373  65.3196326  63.6245872  38.7097373  65.3086326
  62.7425872  41.1567373  65.1156326  63.9735872  41.7257373  64.7146326
  64.6035872  40.9887373  64.2236326  64.5055872  42.1527373  65.5616326
  63.5685872  42.8067373  63.7126326  62.9285872  42.3257373  62.9656326
  62.8575872  43.8707373  64.3836326  63.7195872  45.0117373  64.5786326
  63.3135872  45.8567373  64.0026326  63.8725872  45.4377373  65.9696326
  64.5265872  44.8007373  66.9966326  65.0375872  43.8597373  66.8686326
  64.4795872  45.4167373  68.1436326  63.7455872  46.5747373  67.8356326
  63.3375872  47.7147373  68.5616326  63.6325872  47.9267373  69.8246326
  63.2475872  48.7417373  70.2896326  64.2035872  47.2577373  70.3046326
  62.6525872  48.7097373  67.9706326  62.3725872  48.5867373  66.6796326
  61.8265872  49.4057373  66.2306326  62.6865872  47.5777373  65.8726326
  63.3735872  46.5967373  66.5196326  64.7045872  43.5007373  62.9766326
  65.5275872  42.8137373  62.7796326  65.0815872  44.5937373  63.9696326
  65.7695872  44.1827373  64.7176326  65.5835872  45.4317373  63.4756326
  64.1365872  43.9887373  61.7736326  65.0075872  44.5677373  60.5646326
  64.2055872  44.4237373  59.3256326  66.2755872  43.7987373  60.4396326
  65.1365872  46.0937373  61.0456326  63.9755872  46.9157373  61.0866326
  63.1465872  46.3487373  61.5116326  63.7005872  47.1997373  60.0696326
  64.1355872  48.1847373  61.9306326  63.1735872  48.7157373  61.9226326
  64.4605872  47.8907373  63.2956326  65.0485872  49.0627373  63.8666326
  64.2615872  49.8257373  63.9876326  65.7395872  48.8437373  65.1496326
  66.5425872  47.7497373  65.3916326  66.7585872  47.0697373  64.5816326
  67.0195872  47.5107373  66.6446326  67.8695872  46.2777373  66.8936326
  67.9715872  45.6577373  65.9946326  68.8695872  46.5737373  67.2346326
  67.4205872  45.6707373  67.6906326  66.6905872  48.4117373  67.7506326
  67.0115872  48.2867373  68.9176326  65.9335872  49.5017373  67.3966326
  65.6905872  50.1397373  68.1406326  65.4435872  49.7887373  66.1466326
  64.8115872  50.8167373  65.9956326  65.2155872  49.1647373  61.4556326
  65.8605872  48.6857373  60.7156326  66.0045872  49.4897373  62.7356326
  66.9285872  48.8997373  62.7616326  66.2565872  50.5527373  62.7996326
  64.5545872  50.3007373  60.9206326  65.2735872  51.3247373  59.9236326
  64.3645872  51.9717373  58.9516326  66.3135872  50.6787373  59.0746326
  65.8995872  52.4207373  60.9296326  65.0165872  53.3097373  61.6146326
  64.1235872  52.7597373  61.9206326  64.6915872  54.0927373  60.9266326
  65.5845872  53.9657373  62.8806326  64.8745872  54.7367373  63.2146326
  65.8035872  53.0337373  63.9456326  66.4965872  53.7277373  65.0026326
  65.7345872  54.1907373  65.6476326  67.3985872  52.9287373  65.8536326
  67.9245872  51.8027373  65.3086326  67.7065872  51.5467373  64.2716326
  68.7025872  50.9887373  66.1426326  69.1205872  50.0717373  65.7606326
  68.8655872  51.3617373  67.4686326  69.4865872  50.5757373  68.2946326
  69.4655872  50.8127373  69.2816326  69.8415872  49.6927373  67.9916326
  68.3625872  52.4927373  67.9646326  67.6045872  53.3457373  67.1806326
  67.1565872  54.3717373  67.6746326  66.9755872  54.5817373  62.7726326
  67.6685872  53.8247373  62.4016326  67.2625872  54.8457373  64.2526326
  68.3375872  54.8257373  64.4456326  66.8775872  55.8287373  64.5536326
  66.9915872  55.7567373  61.9776326  68.3635872  56.3747373  61.4126326
  68.1135872  57.4167373  60.3916326  69.0495872  55.2347373  60.7646326
  69.1005872  56.9297373  62.7226326  68.6695872  58.1367373  63.3366326
  67.5925872  58.0937373  63.5026326  68.8865872  58.9767373  62.6776326
  69.3555872  58.3707373  64.6856326  69.0045872  59.3177373  65.1156326
  69.0605872  57.2937373  65.5946326  70.1435872  57.0997373  66.5226326
  69.7995872  57.3787373  67.5306326  70.6995872  55.7347373  66.5746326
  70.8185872  55.0537373  65.4066326  70.5235872  55.5237373  64.4636326
  71.3105872  53.7427373  65.4786326  71.4145872  53.1657373  64.5766326
  71.6555872  53.2297373  66.7206326  72.0785872  52.0057373  66.8356326
  72.2765872  51.6557373  67.7686326  72.1955872  51.4287373  66.0316326
  71.5465872  53.9347373  67.8446326  71.0535872  55.2287373  67.8336326
  70.9505872  55.8467373  68.8806326  70.8805872  58.4097373  64.6116326
  71.2405872  57.6117373  63.9596326  71.2245872  58.1027373  66.0666326
  72.2425872  57.7087373  66.1626326  71.1575872  59.0137373  66.6746326
  71.3665872  59.6777373  64.2006326  72.8995872  59.8577373  63.7546326
  73.0725872  61.0947373  62.9576326  73.2545872  58.7607373  62.8206326
  73.6625872  59.8757373  65.1716326  73.4075872  60.9037373  66.1236326
  72.3285872  61.0157373  66.2346326  73.7875872  61.8437373  65.7316326
  73.9865872  60.6557373  67.5346326  73.4955872  61.3487373  68.2276326
  73.7115872  59.2937373  67.9246326  74.9295872  58.5217373  67.9336326
  75.2165872  58.3617373  68.9816326  74.8725872  57.2167373  67.2826326
  74.8665872  56.8937373  65.9436326  74.8275872  57.6407373  65.1586326
  74.9155872  55.6087373  65.7026326  74.9495872  55.0507373  66.9916326
  75.0455872  53.7417373  67.5146326  75.1775872  52.6517373  66.7846326
  75.2505872  51.7557373  67.2526326  75.2365872  52.7547373  65.7896326
  75.0185872  53.5217373  68.8416326  74.9445872  54.5727373  69.6446326
  74.9345872  54.3617373  70.7046326  74.8935872  55.8547373  69.3076326
  74.8925872  56.0207373  67.9536326  75.5075872  60.7987373  67.7006326
  75.9105872  61.5777373  67.0526326  75.9955872  59.4237373  67.2816326
  75.9955872  59.3407373  66.1906326  77.0085872  59.2177373  67.6526326
  75.8405872  61.0247373  69.0696326  76.8685872  62.1817373  69.4906326
  76.7775872  62.3927373  70.9566326  76.4945872  63.4507373  68.8376326
  78.2715872  61.5687373  69.0436326  78.9665872  60.6167373  69.8346326
  78.3495872  59.7277373  69.9696326  79.1885872  61.0417373  70.8136326
  80.2855872  60.2117373  69.1676326  80.8735872  59.6137373  69.8746326
  80.0225872  59.4137373  67.9936326  80.4045872  60.1157373  66.8006326
  80.8245872  59.3937373  66.0836326  79.3225872  60.8287373  66.1046326
  78.8805872  62.1297373  66.2306326  79.2855872  62.8177373  66.9616326
  77.9285872  62.4657373  65.3996326  77.7035872  61.2767373  64.6906326
  76.7935872  60.8747373  63.6856326  75.8605872  61.6587373  63.1836326
  75.0775872  61.2297373  62.7036326  75.7875872  62.5877373  63.5436326
  76.7855872  59.6157373  63.2066326  77.6705872  58.7677373  63.7136326
  77.6475872  57.7637373  63.3136326  78.5715872  58.9907373  64.6626326
  78.5355872  60.2767373  65.1176326  81.1285872  61.4217373  68.7306326
  80.5355872  62.3367373  68.7416326  81.5175872  61.0627373  67.2996326
  81.6535872  61.9607373  66.6856326  82.4685872  60.5187373  67.3116326
  82.3075872  61.5607373  69.4996326  82.6875872  62.9577373  70.2016326
  81.8645872  63.1497373  71.4266326  82.3985872  64.1017373  69.3036326
  84.2575872  62.6987373  70.4806326  84.6795872  61.6307373  71.3196326
  84.1095872  60.7387373  71.0576326  84.4455872  61.8817373  72.3546326
  86.1695872  61.2527373  71.2146326  86.3035872  60.3457373  71.8126326
  86.5515872  60.9527373  69.8526326  87.7705872  61.6417373  69.5066326
  88.6365872  61.0587373  69.8546326  87.9055872  61.9037373  68.0656326
  87.6635872  60.9847373  67.0746326  87.3055872  59.9877373  67.2986326
  87.8525872  61.4187373  65.8556326  88.2815872  62.7357373  66.0656326
  88.6435872  63.8017373  65.2076326  88.5965872  63.7457373  63.8896326
  88.8015872  64.5787373  63.3396326  88.2565872  62.8987373  63.4696326
  89.0535872  64.9887373  65.6966326  89.1225872  65.1057373  67.0156326
  89.4875872  66.0497373  67.3926326  88.8015872  64.2087373  67.9316326
  88.3615872  63.0317373  67.4016326  87.1985872  62.2827373  71.7076326
  86.7505872  63.0327373  72.3626326  87.6655872  62.8987373  70.3876326
  86.9065872  63.5917373  69.9986326  88.6185872  63.4307373  70.4906326
  88.2005872  61.5247373  72.3876326  89.6285872  62.1007373  72.8486326
  89.6185872  63.4747373  73.4166326  90.6765872  62.0527373  71.8046326
  89.9275872  61.0797373  74.0536326  89.2275872  61.2217373  75.2766326
  88.1635872  61.0577373  75.1006326  89.3635872  62.2407373  75.6426326
  89.7055872  60.2597373  76.3656326  89.2125872  60.5437373  77.3036326
  89.3345872  58.9017373  76.0506326  90.4485872  58.0377373  76.3076326
  90.4615872  57.7667373  77.3756326  90.4555872  56.8097373  75.5116326
  90.5955872  56.6467373  74.1526326  90.7735872  57.4807373  73.4826326
  90.4565872  55.4117373  73.7426326  90.2355872  54.6937373  74.9296326
  89.9975872  53.2937373  75.1776326  89.9105872  52.3797373  74.3706326
  89.8075872  52.9917373  76.5096326  89.6035872  52.0327373  76.7426326
  89.8305872  53.9157373  77.4996326  89.5955872  53.5257373  78.7186326
  89.3295872  52.5647373  78.9206326  89.6775872  54.2227373  79.4356326
  90.0045872  55.2287373  77.3136326  90.2195872  55.5507373  76.0066326
  91.2275872  60.2907373  76.5986326  91.6945872  61.1057373  76.0406326
  91.6565872  58.9407373  76.0066326  91.8025872  59.0567373  74.9246326
  92.5855872  58.5567373  76.4406326  91.4455872  60.4707373  77.9976326
  92.8685872  60.2907373  78.7206326  93.0765872  61.3227373  79.7696326
  94.0275872  60.4077373  77.7976326  92.6805872  58.8347373  79.3436326
  91.6915872  58.6267373  80.3416326  90.7025872  58.7567373  79.8996326
  91.8125872  59.3687373  81.1326326  91.7555872  57.2387373  80.9786326
  90.9425872  57.1587373  81.7116326  91.5995872  56.2247373  79.9716326
  92.7065872  55.3077373  80.0046326  92.4515872  54.4847373  80.6936326
  93.0765872  54.7627373  78.6886326  93.2755872  55.6447373  77.6766326
  93.2445872  56.7177373  77.8856326  93.4635872  55.1147373  76.3876326
  93.6005872  55.7757373  75.5476326  93.3885872  53.7387373  76.2276326
  93.3725872  53.1837373  75.0526326  93.1865872  52.1877373  75.0486326
  93.4265872  53.7357373  74.2176326  93.1835872  52.9067373  77.2396326
  93.0295872  53.3727373  78.5336326  92.8345872  52.5817373  79.4326326
  93.0835872  56.9467373  81.6826326  93.6085872  57.8737373  81.9256326
  93.8465872  56.1177373  80.6526326  94.3515872  56.7757373  79.9356326
  94.5915872  55.4697373  81.1286326  92.7745872  56.2067373  82.8506326
  93.7625872  56.1297373  84.1016326  93.0145872  56.3837373  85.3556326
  94.8285872  57.1637373  84.0676326  94.4175872  54.6767373  83.9236326
  93.6555872  53.5037373  84.1826326  92.6925872  53.5757373  83.6736326
  93.4705872  53.4077373  85.2496326  94.3495872  52.2307373  83.6976326
  93.7425872  51.3647373  83.9956326  94.4325872  52.2767373  82.2676326
  95.6765872  51.7197373  81.8376326  95.6015872  50.6207373  81.8616326
  96.0915872  52.1747373  80.5006326  96.4825872  53.4657373  80.2176326
  96.5535872  54.1877373  81.0156326  96.7325872  53.8487373  78.9386326
  97.1295872  55.2877373  78.6696326  97.0975872  55.9007373  79.5786326
  98.1425872  55.3297373  78.2516326  96.4465872  55.7267373  77.9326326
  96.5875872  52.9027373  77.8316326  96.7525872  53.1567373  76.6476326
  96.2005872  51.6367373  78.2156326  96.0475872  50.9427373  77.4976326
  95.8835872  51.2227373  79.4876326  95.4455872  50.0977373  79.6406326
  95.7845872  52.0247373  84.2156326  96.0705872  52.7817373  84.9476326
  96.6455872  52.1527373  82.9596326  96.9815872  53.1837373  82.8526326
  97.5345872  51.5107373  83.0086326  95.9535872  50.7207373  84.7296326
  95.7785872  50.3987373  86.2856326  94.7155872  51.1707373  86.9766326
  96.9915872  50.5807373  87.1176326  95.5325872  48.8257373  86.1766326
  94.2645872  48.2597373  85.9106326  93.7455872  48.8517373  85.1556326
  93.6715872  48.2687373  86.8256326  94.3785872  46.8127373  85.3956326
  93.4225872  46.3227373  85.6186326  94.6035872  46.8017373  83.9676326
  95.9405872  46.3617373  83.6436326  95.8875872  45.3537373  83.2046326
  96.6615872  47.2287373  82.7106326  97.2635872  48.4397373  82.9636326
  97.2775872  48.8917373  83.9446326  97.8175872  49.0007373  81.9256326
  97.5295872  48.0927373  80.8956326  97.7915872  48.0647373  79.5096326
  98.4635872  49.0057373  78.8796326  98.5005872  49.0007373  77.8686326
  98.8625872  49.7537373  79.4166326  97.3765872  47.0417373  78.7376326
  96.7005872  46.0677373  79.3356326  96.3665872  45.2677373  78.6886326
  96.3925872  45.9357373  80.6276326  96.8285872  47.0097373  81.3576326
  95.5205872  45.9667373  85.9856326  95.7635872  46.3007373  86.9966326
  96.6605872  46.2627373  85.0086326  97.1555872  47.1957373  85.2926326
  97.4285872  45.4857373  85.0126326  95.1575872  44.5907373  85.9666326
  96.0145872  43.4637373  86.7286326  95.1725872  42.2877373  87.0426326
  96.6895872  43.9347373  87.9616326  97.1845872  43.1057373  85.6926326
  96.8845872  42.4097373  84.4916326  95.9555872  42.7987373  84.0766326
  96.7515872  41.3497373  84.7116326  97.9485872  42.5627373  83.4056326
  97.6355872  41.9737373  82.5326326  98.1085872  43.9317373  83.0066326
  99.2775872  43.9947373  82.1866326  99.0095872  43.6117373  81.1886326
  99.8955872  45.3237373  82.0346326 100.0475872  46.0697373  83.1566326
  99.7425872  45.6687373  84.1256326 100.5915872  47.3527373  83.0006326
 100.7255872  47.9837373  83.8636326 100.9025872  47.7927373  81.7216326
 101.3995872  48.9797373  81.5246326 101.5305872  49.2857373  80.5646326
 101.5545872  49.5817373  82.3106326 100.7395872  47.0357373  80.6386326
 100.2295872  45.7517373  80.7386326 100.0905872  45.0847373  79.7266326
  99.3575872  42.1187373  83.7936326  99.5555872  42.3897373  84.8326326
 100.2295872  42.9717373  82.8536326 101.0255872  43.4537373  83.4326326
 100.6955872  42.3627373  82.0726326  99.4745872  40.7167373  83.5946326
 100.7775872  39.8837373  84.0296326 100.5475872  38.4177373  84.0826326
 101.3975872  40.3207373  85.3076326 101.7315872  40.1917373  82.7876326
 101.4775872  39.6357373  81.5036326 100.4845872  39.9317373  81.1606326
 101.5155872  38.5467373  81.5606326 102.5155872  40.1107373  80.4826326
 102.3945872  39.5447373  79.5496326 102.3535872  41.5247373  80.2316326
 103.6285872  42.1687373  80.3576326 104.1815872  42.0387373  79.4136326
 103.6025872  43.5907373  80.6886326 103.4355872  44.1947373  81.9126326
 103.2455872  43.6297373  82.8156326 103.5315872  45.4977373  81.8986326
 103.7865872  45.7657373  80.5416326 104.0235872  46.9317373  79.7786326
 104.0285872  48.1577373  80.2536326 104.1805872  48.9287373  79.6186326
 103.7205872  48.3237373  81.1956326 104.2605872  46.8747373  78.4586326
 104.2405872  45.6827373  77.8806326 104.4295872  45.6647373  76.8146326
 104.0325872  44.5067373  78.4586326 103.8135872  44.6167373  79.7986326
 103.9495872  39.9297373  81.0026326 103.9905872  39.2337373  81.8426326
 104.3025872  41.3357373  81.4666326 103.8575872  41.5257373  82.4486326
 105.3835872  41.4847373  81.5386326 104.8295872  39.5407373  79.9656326
 105.3035872  38.0207373  79.8386326 104.2035872  37.0607373  80.1276326
 106.2695872  37.7467373  80.9296326 105.9825872  37.9857373  78.3876326
 105.2235872  38.1437373  77.1976326 104.1805872  38.3577373  77.4376326
 105.2605872  37.2107373  76.6336326 105.7595872  39.2827373  76.3146326
 105.2185872  39.2567373  75.3596326 105.5465872  40.5647373  76.9456326
 106.7735872  41.3157373  76.9506326 106.8675872  41.8567373  75.9976326
 106.9255872  42.2687373  78.0456326 106.9125872  42.0217373  79.3936326
 106.7815872  41.0217373  79.7866326 107.0345872  43.0877373  80.1426326
 107.1625872  44.1237373  79.2066326 107.3295872  45.5427373  79.3706326
 107.2885872  46.2087373  80.3926326 107.5945872  46.2097373  78.1956326
 107.7995872  47.1947373  78.2546326 107.6085872  45.6147373  76.9826326
 108.0835872  46.3057373  75.9856326 108.4275872  47.2527373  76.1256326
 108.2455872  45.7857373  75.1396326 107.3565872  44.3157373  76.7666326
 107.1475872  43.6207373  77.9236326 107.2675872  39.2087373  76.0186326
 107.6555872  38.2027373  76.1856326 107.8415872  40.2117373  77.0166326
 107.8975872  39.7617373  78.0166326 108.8375872  40.5627373  76.7286326
 107.4745872  39.6237373  74.6756326 108.9045872  39.5807373  73.9546326
 108.7725872  38.9837373  72.6036326 109.9245872  38.7667373  74.6596326
 109.3775872  41.1167373  74.0176326 108.7675872  42.1117373  73.2076326
 107.7435872  42.2727373  73.5466326 108.7385872  41.7567373  72.1766326
 109.5185872  43.4567373  73.2316326 109.0795872  44.1077373  72.4646326
 109.4155872  44.1057373  74.5126326 110.7095872  44.4817373  75.0276326
 110.9545872  45.4957373  74.6696326 110.8205872  44.4307373  76.4986326
 110.3495872  43.3067373  77.0946326 109.9615872  42.4947373  76.4716326
 110.3305872  43.2747373  78.4966326 109.9375872  42.4087373  79.0036326
 110.7385872  44.4047373  79.1826326 110.5805872  44.5057373  80.4716326
 110.6255872  45.4537373  80.8256326 109.9815872  43.8317373  80.9226326
 111.1915872  45.4977373  78.5816326 111.2735872  45.5687373  77.1936326
 111.7035872  46.5897373  76.6896326 111.0215872  43.3207373  72.9606326
 111.2505872  42.3377373  72.5456326 111.6545872  43.4727373  74.3426326
 111.6595872  42.5017373  74.8546326 112.6865872  43.8437373  74.2876326
 111.4735872  44.3497373  72.0956326 112.4485872  44.1877373  71.9366326
 112.0385872  55.3547373  85.5296326 111.8825872  54.9617373  84.6066326
 112.9575872  55.3627373  83.7686326 113.8955872  54.9607373  84.1556326
 113.0275872  56.4517373  83.7846326 112.7985872  54.9117373  82.3066326
 113.6125872  55.3727373  81.7316326 112.8755872  53.4717373  82.1636326
 111.7225872  52.9767373  81.4536326 111.9175872  52.9967373  80.3696326
 111.2775872  51.6307373  81.8246326 110.5865872  51.2357373  82.9416326
 110.3465872  51.9197373  83.7456326 110.2335872  49.9797373  82.9476326
 110.7705872  49.4817373  81.7526326 110.7535872  48.1617373  81.1796326
 110.3075872  47.1247373  81.6526326 111.3275872  48.1027373  79.9246326
 111.2735872  47.2267373  79.4236326 111.9145872  49.1597373  79.3166326
 112.3355872  48.9937373  78.0926326 112.0695872  48.1487373  77.5756326
 112.5575872  49.8367373  77.5876326 112.0465872  50.3857373  79.8546326
 111.4205872  50.4877373  81.0666326 111.4655872  55.3337373  81.6756326
 110.9825872  56.1257373  82.2506326 110.6525872  54.0377373  81.7456326
 110.2235872  53.9307373  82.7486326 109.8375872  54.0027373  81.0166326
 111.7675872  55.7877373  80.3666326 110.6575872  56.0957373  79.2586326
 111.0475872  57.2427373  78.4046326 109.3125872  56.3887373  79.8286326
 110.7535872  54.7237373  78.4356326 111.9555872  54.3997373  77.7426326
 112.7135872  54.0757373  78.4556326 112.3315872  55.2907373  77.2376326
 111.7725872  53.3117373  76.6786326 112.7205872  53.1997373  76.1356326
 111.4195872  52.0507373  77.2816326 110.1745872  51.5477373  76.7596326
 110.3875872  50.8337373  75.9456326 109.3165872  50.9117373  77.7756326
 109.0355872  51.6467373  78.8816326 109.4105872  52.6717373  78.9656326
 108.2735872  51.0377373  79.8866326 108.0305872  51.5957373  80.7706326
 107.8885872  49.7177373  79.7196326 107.2295872  49.0797373  80.6396326
 107.0545872  48.0947373  80.4746326 106.8005872  49.5717373  81.3996326
 108.2075872  49.0157373  78.6396326 108.9275872  49.5737373  77.5936326
 109.1735872  48.8857373  76.6226326 110.6685872  53.6607373  75.6756326
 110.4115872  54.7207373  75.7396326 109.5005872  52.7937373  76.1416326
 108.9065872  53.3557373  76.8716326 108.8465872  52.5227373  75.3096326
 111.1295872  53.3397373  74.3766326 110.3745872  53.8297373  73.0546326
 111.3445872  54.0037373  71.9506326 109.7635872  55.1747373  73.2186326
 109.3405872  52.6417373  72.8026326 109.8355872  51.3507373  72.4776326
 110.6575872  51.0877373  73.1466326 110.2115872  51.3537373  71.4546326
 108.7625872  50.2727373  72.6156326 109.1865872  49.3037373  72.3236326
 108.3125872  50.1907373  73.9766326 106.9295872  49.8337373  73.9926326
 106.8475872  48.7597373  73.7676326 106.2415872  50.1637373  75.2536326
 106.2325872  51.4297373  75.7996326 106.6515872  52.2507373  75.2366326
 105.7355872  51.6397373  77.0486326 105.7635872  53.0397373  77.6366326
 106.2175872  53.7677373  76.9546326 104.7405872  53.3667373  77.8646326
 106.3255872  53.0437373  78.5796326 105.2015872  50.5247373  77.8326326
 104.7955872  50.5797373  78.9806326 105.2045872  49.3097373  77.1836326
 104.8545872  48.5017373  77.6806326 105.6775872  49.0617373  75.9196326
 105.5805872  47.9327373  75.4816326 107.5215872  50.5547373  71.7576326
 107.6265872  51.5237373  71.2636326 106.3875872  50.6327373  72.7936326
 106.2175872  51.6827373  73.0586326 105.4445872  50.2147373  72.4296326
 107.3605872  49.5367373  70.7776326 106.3665872  49.7707373  69.5396326
 106.6445872  48.9367373  68.3476326 106.3895872  51.1547373  69.0206326
 104.9865872  49.2877373  70.1856326 104.7375872  47.9037373  70.3876326
 105.5675872  47.4587373  70.9386326 104.6695872  47.4067373  69.4196326
 103.4405872  47.6507373  71.1616326 103.1735872  46.5917373  71.0576326
 103.5925872  47.9617373  72.5656326 102.3845872  48.6057373  72.9886326
 101.5865872  47.8467373  73.0376326 102.3885872  49.2927373  74.2816326
 102.6475872  50.6057373  74.5926326 102.9795872  51.3247373  73.8556326
 102.4445872  50.9117373  75.8476326 102.0225872  49.6997373  76.4246326
 101.6395872  49.3387373  77.7716326 101.5895872  50.0167373  78.7856326
 101.2905872  48.0127373  77.9086326 101.0125872  47.7027373  78.8276326
 101.3205872  47.1167373  76.8996326 101.0035872  45.8837373  77.1786326
 100.8035872  45.6147373  78.1366326 101.1045872  45.2087373  76.4456326
 101.6495872  47.3977373  75.6326326 101.9995872  48.7087373  75.4646326
 102.2595872  48.5027373  70.6636326 102.4745872  48.9767373  69.7026326
 102.1235872  49.5297373  71.7836326 102.8945872  50.3047373  71.6896326
 101.1355872  49.9957373  71.7816326 101.0865872  47.7087373  70.6246326
 100.1085872  47.7077373  69.3606326 100.8105872  47.7267373  68.0516326
  99.1765872  48.8617373  69.3246326  99.2925872  46.3607373  69.6406326
  99.9155872  45.0867373  69.5916326 100.9975872  45.1997373  69.6676326
  99.6885872  44.6117373  68.6356326  99.4635872  44.1687373  70.7406326
 100.0035872  43.2197373  70.6346326  99.7665872  44.7747373  72.0206326
  98.5585872  44.9787373  72.7856326  98.4055872  44.0927373  73.4166326
  98.5175872  46.1967373  73.6076326  98.6715872  47.4517373  73.0636326
  98.8295872  47.5507373  71.9976326  98.6575872  48.5497373  73.8586326
  98.8215872  49.9227373  73.2346326  98.8975872  49.8677373  72.1416326
  97.9645872  50.5547373  73.4846326  99.7125872  50.4177373  73.6406326
  98.4805872  48.4157373  75.3026326  98.5295872  49.3227373  76.1076326
  98.2455872  47.1337373  75.7546326  98.0365872  47.0237373  76.7376326
  98.3025872  45.9897373  74.9876326  98.1785872  44.9077373  75.5436326
  97.9565872  43.8807373  70.7936326  97.5055872  43.9147373  69.7976326
  97.4485872  44.9837373  71.7146326  97.3775872  45.9387373  71.1816326
  96.4675872  44.7447373  72.1296326  97.7535872  42.6307373  71.4366326
  96.5285872  41.6727373  71.0576326  96.8945872  40.4017373  71.7256326
  96.4215872  41.4417373  69.6056326  95.2655872  42.4147373  71.7146326
  94.8125872  42.0387373  73.0086326  95.6655872  41.8067373  73.6416326
  94.1975872  41.1407373  72.9266326  94.0115872  43.1307373  73.7206326
  93.6945872  42.7447373  74.6986326  94.8175872  44.3077373  73.9306326
  93.9525872  45.4407373  73.8256326  93.3215872  45.4747373  74.7276326
  94.5665872  46.7587373  73.6686326  94.8225872  47.4787373  72.5246326
  94.7145872  47.0597373  71.5326326  95.1295872  48.7337373  72.7316326
  95.1565872  48.8177373  74.1336326  95.4135872  49.8477373  75.0666326
  95.7065872  51.0957373  74.7536326  95.9105872  51.7437373  75.5046326
  95.7735872  51.3567373  73.7906326  95.3595872  49.6117373  76.3826326
  95.0615872  48.3877373  76.7946326  95.0205872  48.2357373  77.8646326
  94.7725872  47.3347373  76.0376326  94.8455872  47.6147373  74.7086326
  92.7595872  43.5977373  72.9586326  92.5755872  43.0067373  72.0586326
  93.0945872  45.0427373  72.6086326  93.6735872  45.0727373  71.6766326
  92.1935872  45.6617373  72.5036326  91.6355872  43.6087373  73.8146326
  90.6935872  42.3277373  73.9696326  91.4495872  41.0617373  73.7966326
  89.5725872  42.3597373  72.9966326  90.2365872  42.5607373  75.4856326
  90.9805872  42.0057373  76.5636326  92.0335872  41.9387373  76.2906326
  90.6145872  40.9987373  76.7686326  90.8965872  42.8507373  77.8396326
  91.3245872  42.2767373  78.6716326  91.6565872  44.0587373  77.6456326
  90.8315872  45.2187373  77.8296326  90.9785872  45.5967373  78.8526326
  91.0745872  46.3087373  76.8856326  90.9745872  46.3017373  75.5156326
  90.6815872  45.4147373  74.9716326  91.2735872  47.4377373  74.9406326
  91.6005872  48.2677373  76.0256326  92.0245872  49.6437373  76.0846326
  92.2455872  50.4117373  75.1596326  92.1935872  50.1157373  77.3706326
  92.5695872  51.0467373  77.4786326  92.0075872  49.3557373  78.4796326
  92.1945872  49.9027373  79.6426326  92.5515872  50.8537373  79.7066326
  92.1385872  49.3007373  80.4396326  91.6135872  48.0777373  78.4756326
  91.4415872  47.5887373  77.2146326  89.4645872  43.2617373  78.1986326
  88.7555872  42.6387373  77.6546326  89.3925872  44.6937373  77.6896326
  89.0535872  44.6987373  76.6466326  88.7035872  45.2847373  78.2936326
  89.2355872  43.1807373  79.5996326  87.7445872  43.1487373  80.1956326
  87.7435872  42.3517373  81.4456326  86.8295872  42.4397373  79.2626326
  87.3875872  44.6937373  80.4306326  87.9145872  45.3647373  81.5646326
  88.9895872  45.1837373  81.6186326  87.4565872  44.9547373  82.4646326
  87.6985872  46.8807373  81.5576326  88.1725872  47.2887373  82.4596326
  88.3265872  47.4557373  80.3986326  87.5075872  48.5097373  79.8856326
  87.6645872  49.3987373  80.5156326  87.7675872  48.8427373  78.4756326
  87.7115872  47.8277373  77.5806326  87.3945872  46.8367373  77.9096326
  88.0955872  48.1077373  76.2606326  88.0835872  47.3217373  75.5236326
  88.5115872  49.3927373  75.9556326  88.9065872  49.7077373  74.7606326
  89.3005872  50.6387373  74.6526326  89.1775872  48.9627373  74.1456326
  88.5095872  50.3797373  76.8426326  88.1725872  50.1507373  78.1716326
  88.2265872  51.0727373  78.9626326  86.2305872  47.3527373  81.5296326
  85.5375872  46.5167373  81.6556326  86.0815872  47.9657373  80.1376326
  85.7985872  47.1807373  79.4246326  85.3175872  48.7527373  80.1206326
  86.0215872  48.3547373  82.5166326  85.7205872  47.9427373  84.0426326
  86.5915872  48.8097373  84.8826326  86.0715872  46.5397373  84.3446326
  84.1705872  48.3737373  84.2466326  83.0685872  47.9197373  83.4136326
  83.2485872  48.2317373  82.3756326  82.1415872  48.3937373  83.7476326
  82.8895872  46.3817373  83.4286326  82.3175872  45.9627373  84.6856326
  81.7615872  44.6357373  84.5456326  81.4575872  44.5027373  83.0276326
  80.4245872  44.2167373  82.8056326  82.1085872  43.7347373  82.5886326
  80.5955872  44.4807373  85.4496326  80.3625872  43.2687373  86.0976326
  81.0605872  42.2837373  85.9976326  79.2745872  43.1987373  86.9026326
  78.4685872  44.2137373  87.2906326  77.4615872  43.9737373  87.9346326
  78.9465872  45.6587373  86.9406326  79.9325872  46.1937373  88.0056326
  79.4375872  46.2787373  88.9796326  80.7935872  45.5237373  88.1326326
  80.3145872  47.1857373  87.7376326  77.8625872  46.5967373  86.9326326
  77.2625872  46.3237373  87.6606326  79.6325872  45.6257373  85.5566326
  80.1905872  46.5597373  85.4716326  78.6205872  45.6067373  84.4156326
  78.0995872  44.3967373  84.1036326  77.4125872  44.1517373  82.9286326
  77.2805872  45.2547373  82.0946326  76.8745872  44.9107373  80.7286326
  78.0175872  44.6687373  79.8936326  76.0115872  45.9527373  79.9796326
  76.0105872  46.9417373  80.4456326  74.9645872  45.6297373  79.9376326
  76.2875872  43.9857373  80.7406326  77.7245872  46.5117373  82.3766326
  78.3835872  46.7237373  83.5896326  78.8735872  48.1277373  83.9266326
  78.7025872  48.3687373  84.9826326  79.9355872  48.2587373  83.6986326
  78.3255872  48.8847373  83.3486326  77.6375872  47.3307373  81.6646326
  77.0035872  43.0267373  82.6966326  79.0655872  42.2977373  87.2886326
  82.5205872  43.8907373  84.8366326  83.8335872  45.8577373  83.2326326
  81.8095872  45.8797373  82.4516326  80.9425872  46.5437373  82.5406326
  82.2735872  45.8467373  81.0876326  81.2685872  45.5297373  79.8686326
  81.9235872  45.8497373  78.5846326  81.0315872  44.0667373  79.7766326
  80.0375872  46.5217373  80.2016326  78.9895872  46.8487373  79.2536326
  79.4385872  47.2857373  78.3526326  78.3485872  47.6247373  79.6836326
  78.1205872  45.6307373  78.8246326  78.5715872  45.1727373  77.9366326
  76.6385872  46.0327373  78.5836326  76.5695872  47.0577373  78.2086326
  75.9245872  45.1417373  77.7056326  76.3225872  45.0207373  76.1716326
  74.9275872  45.0057373  75.6786326  76.9555872  43.6857373  76.1856326
  77.2115872  46.3337373  75.9776326  77.3955872  46.9557373  74.7256326
  76.5015872  46.8397373  74.1106326  78.2465872  46.5067373  74.2116326
  77.6615872  48.4477373  74.9666326  78.5165872  48.5617373  75.6446326
  77.9215872  49.0787373  73.6996326  76.8305872  49.9467373  73.3356326
  77.1225872  50.9797373  73.5796326  76.4295872  49.8527373  71.9256326
  76.6185872  48.7157373  71.1696326  77.0185872  47.8287373  71.6396326
  76.3385872  48.7217373  69.8386326  76.5875872  47.4697373  69.0186326
  76.9865872  46.6477373  69.6256326  75.6515872  47.1377373  68.5516326
  77.2985872  47.6887373  68.2136326  75.8315872  49.9327373  69.1936326
  75.6035872  50.0847373  68.0076326  75.6385872  50.9987373  70.0406326
  75.2885872  51.8487373  69.6226326  75.8915872  51.0327373  71.3906326
  75.6565872  52.0577373  72.0066326  76.4375872  49.1717373  75.5466326
  75.8465872  48.5107373  76.1846326  75.6785872  49.5407373  74.2756326
  75.1215872  48.6797373  73.8856326  74.9845872  50.3717373  74.4536326
  76.8155872  50.3567373  76.2316326  76.3865872  50.6037373  77.7546326
  77.0955872  51.7377373  78.3966326  76.5315872  49.4177373  78.6356326
  74.8155872  50.9117373  77.6036326  74.3005872  52.2157373  77.8276326
  74.9575872  52.9477373  77.3546326  74.2715872  52.4197373  78.8986326
  72.9035872  52.3957373  77.2276326  72.5385872  53.3997373  77.4726326
  73.0235872  52.2717373  75.8026326  71.9405872  51.4827373  75.3096326
  71.0555872  52.1287373  75.2586326  72.1395872  50.9077373  73.9786326
  72.3655872  49.6137373  73.5706326  72.4145872  48.7837373  74.2616326
  72.5355872  49.4757373  72.2796326  72.3615872  50.7807373  71.7876326
  72.3775872  51.3217373  70.4516326  72.5665872  50.7547373  69.3866326
  72.1605872  52.6807373  70.3986326  72.0985872  53.1067373  69.4866326
  71.9705872  53.4517373  71.4896326  71.7785872  54.7247373  71.3066326
  71.7015872  55.0997373  70.3676326  71.6045872  55.2867373  72.1186326
  71.9705872  53.0117373  72.7516326  72.1475872  51.6567373  72.8286326
  71.8385872  51.3717373  77.6636326  72.1375872  50.8397373  78.5676326
  71.7545872  50.4517373  76.4406326  72.5715872  49.7197373  76.4546326
  70.7895872  49.9317373  76.3806326  70.6075872  52.0557373  77.8446326
  69.4805872  51.5667373  78.8746326  69.9205872  51.4427373  80.2926326
  68.8965872  50.2607373  78.4736326  68.4045872  52.7317373  78.6336326
  68.6475872  54.0887373  78.9896326  69.7215872  54.2777373  78.9946326
  68.2635872  54.2687373  79.9946326  68.0055872  55.0957373  78.0076326
  68.1835872  56.1057373  78.3976326  68.6275872  54.9657373  76.7066326
  67.6815872  54.4857373  75.7276326  67.3385872  55.3347373  75.1186326
  68.1525872  53.4297373  74.8326326  68.5425872  52.1577373  75.1646326
  68.5835872  51.8177373  76.1886326  68.8695872  51.4067373  74.1496326
  68.6645872  52.2477373  73.0466326  68.8385872  52.0267373  71.6356326
  69.2705872  51.0507373  71.0536326  68.4525872  53.0927373  70.8516326
  68.4805872  52.9527373  69.8526326  67.9795872  54.2557373  71.3526326
  67.5425872  55.1447373  70.5036326  67.4875872  54.9067373  69.5166326
  67.0035872  55.8967373  70.8996326  67.8485872  54.5367373  72.6566326
  68.2055872  53.4827373  73.4566326  66.4955872  54.9187373  77.7666326
  66.0145872  54.4537373  78.6306326  66.5075872  53.9677373  76.5746326
  66.6695872  52.9437373  76.9226326  65.5725872  53.9727373  76.0176326
  65.8745872  56.1697373  77.4636326  64.3265872  56.2697373  77.0276326
  63.7445872  57.5227373  77.5646326  63.5195872  55.1457373  77.5656326
  64.4105872  56.2967373  75.4226326  64.9655872  57.4187373  74.7426326
  66.0545872  57.3587373  74.7826326  64.6625872  58.3307373  75.2586326
  64.5285872  57.5637373  73.2736326  64.8945872  58.5347373  72.9146326
  65.0785872  56.5257373  72.4406326  64.0485872  55.6517373  71.9436326
  63.8945872  55.8547373  70.8726326  64.3645872  54.2357373  72.1286326
  64.5935872  53.5687373  73.3056326  64.4425872  54.0487373  74.2616326
  65.0235872  52.3397373  73.1706326  65.0845872  52.1937373  71.7706326
  65.5075872  51.1777373  70.8756326  66.0495872  50.0227373  71.2076326
  66.4005872  49.4387373  70.4546326  66.2605872  49.8357373  72.1696326
  65.4295872  51.3547373  69.5476326  64.9675872  52.5037373  69.0926326
  64.9095872  52.5957373  68.0156326  64.5685872  53.5597373  69.7936326
  64.6575872  53.3347373  71.1356326  63.0095872  57.5187373  73.0726326
  62.4965872  57.7817373  74.0006326  62.7715872  56.0527373  72.7136326
  62.6465872  55.4677373  73.6316326  61.8725872  55.9257373  72.1006326
  62.6505872  58.4207373  72.0326326  61.1275872  58.8497373  71.7646326
  61.0385872  60.2917373  71.4156326  60.3415872  58.7387373  73.0206326
  60.7065872  57.8467373  70.5906326  61.2245872  58.0547373  69.2876326
  62.3045872  58.2047373  69.3486326  60.7765872  58.9547373  68.8646326
  60.9705872  56.8757373  68.3486326  61.3705872  57.1407373  67.3626326
  61.6715872  55.7117373  68.8306326  60.8315872  54.5747373  68.6316326
  60.8215872  54.3267373  67.5586326  61.1625872  53.3807373  69.4226326
  60.9705872  53.2817373  70.7846326  60.5425872  54.1077373  71.3306326
  61.3315872  52.1517373  71.4456326  61.1235872  52.0697373  72.9476326
  60.6995872  52.9937373  73.3586326  60.4445872  51.2387373  73.1806326
  62.0785872  51.8627373  73.4476326  61.9285872  51.0277373  70.7256326
  62.3315872  49.9947373  71.2236326  62.0635872  51.2087373  69.3666326
  62.4355872  50.4347373  68.8326326  61.7425872  52.3467373  68.6646326
  61.9875872  52.3927373  67.4706326  59.4875872  56.4697373  68.1986326
  58.8295872  57.2037373  68.6676326  59.4555872  55.1537373  68.9786326
  59.3515872  55.3707373  70.0486326  58.6495872  54.4857373  68.6716326
  59.1635872  56.3207373  66.8156326  57.7495872  55.7437373  66.3036326
  57.1925872  56.5437373  65.1866326  56.6885872  55.6957373  67.3406326
  58.1565872  54.2817373  65.8016326  58.8945872  54.1117373  64.5936326
  59.9435872  54.3497373  64.7756326  58.5165872  54.7997373  63.8356326
  58.8165872  52.6947373  64.0106326  59.3345872  52.6897373  63.0416326
  59.4635872  51.7727373  64.9026326  58.5295872  50.8097373  65.4106326
  58.6615872  49.8697373  64.8536326  58.6715872  50.5457373  66.8376326
  58.5465872  51.4157373  67.8896326  58.2945872  52.4567373  67.7356326
  58.7645872  50.8797373  69.0636326  59.0805872  49.5437373  68.7566326
  59.4315872  48.4147373  69.5846326  59.5295872  48.3417373  70.7996326
  59.6695872  47.2597373  68.8666326  60.0195872  46.4617373  69.3756326
  59.5675872  47.1747373  67.5206326  59.8305872  46.0407373  66.9456326
  60.1775872  45.2527373  67.4866326  59.8045872  46.0387373  65.9456326
  59.2035872  48.1767373  66.7146326  58.9995872  49.3387373  67.3966326
  57.3835872  52.1827373  63.8096326  56.6865872  53.0197373  63.7286326
  57.1385872  51.3937373  65.0946326  56.7915872  52.0707373  65.8836326
  56.3855872  50.6077373  64.9626326  57.3175872  51.3777373  62.6406326
  55.9235872  50.8257373  62.0716326  55.8505872  50.9477373  60.5926326
  54.7735872  51.6097373  62.5886326  55.9515872  49.2947373  62.5486326
  56.7935872  48.3717373  61.8716326  57.8375872  48.6337373  62.0556326
  56.6085872  48.4467373  60.7986326  56.5685872  46.9137373  62.2876326
  57.1265872  46.2707373  61.5966326  57.0685872  46.6857373  63.6136326
  56.1525872  45.8867373  64.3736326  56.3855872  44.8217373  64.2186326
  56.1575872  46.2227373  65.8066326  55.8155872  47.4767373  66.2646326
  55.5285872  48.2377373  65.5516326  55.8765872  47.7677373  67.5876326
  55.4715872  49.1527373  68.0646326  54.5775872  49.0817373  68.6986326
  56.2645872  49.5957373  68.6766326  55.2555872  49.8297373  67.2306326
  56.3525872  46.7667373  68.5406326  56.5075872  46.9427373  69.7336326
  56.6805872  45.5427373  68.0006326  57.0655872  44.8547373  68.6326326
  56.6395872  45.2127373  66.6626326  57.0255872  44.1087373  66.3226326
  55.0925872  46.4887373  62.2526326  54.4695872  47.3147373  61.9026326
  54.7835872  46.1887373  63.7216326  54.2945872  47.0647373  64.1596326
  54.1045872  45.3387373  63.8306326  54.9265872  45.3657373  61.3996326
  53.4665872  44.8907373  60.9116326  53.5985872  44.2967373  59.5536326
  52.5485872  46.0397373  60.7116326  53.0555872  43.8527373  62.0636326
  53.7475872  42.6197373  62.1816326  54.8195872  42.8057373  62.1066326
  53.4495872  41.9667373  61.3616326  53.4985872  41.9047373  63.5136326
  54.0765872  40.9757373  63.5296326  53.9375872  42.7427373  64.5996326
  52.9425872  42.7347373  65.6276326  53.0625872  41.8147373  66.2206326
  52.9595872  43.9037373  66.5226326  52.4945872  45.1547373  66.1676326
  52.1195872  45.3227373  65.1686326  52.5195872  46.1767373  67.0616326
  52.0065872  47.5447373  66.6446326  51.1785872  47.8457373  67.2986326
  52.8015872  48.2927373  66.7546326  51.6555872  47.5537373  65.6056326
  53.0435872  45.9697373  68.4106326  53.1135872  46.8027373  69.2966326
  53.5345872  44.7097373  68.6506326  53.8935872  44.5237373  69.5746326
  53.5475872  43.6517373  67.7766326  54.0575872  42.6077373  68.1486326
  52.0235872  41.5627373  63.7766326  51.4315872  41.6657373  62.8626326
  51.6345872  42.6117373  64.8136326  51.3715872  43.5387373  64.2936326
  50.7825872  42.2947373  65.4256326  51.9025872  40.2577373  64.3236326
  50.5565872  39.4067373  64.1366326  50.5625872  38.4967373  62.9696326
  49.3365872  40.2427373  64.0526326  50.5585872  38.6217373  65.5296326
  51.3255872  37.4517373  65.7036326  52.3795872  37.6647373  65.5326326
  51.0035872  36.7367373  64.9556326  51.1485872  36.8157373  67.0896326
  51.5755872  35.8107373  67.0336326  51.8255872  37.5597373  68.1236326
  50.8905872  38.3107373  68.9266326  50.9085872  37.9167373  69.9526326
  51.1235872  39.7567373  68.9986326  50.9735872  40.6947373  68.0056326
  50.8085872  40.4257373  66.9736326  50.9825872  41.9307373  68.4206326
  51.2505872  41.8097373  69.7926326  51.3825872  42.7997373  70.8296326
  51.2705872  44.0097373  70.7616326  51.6385872  42.2667373  72.0746326
  51.7155872  42.9107373  72.8466326  51.7465872  40.9427373  72.3186326
  51.9505872  40.5837373  73.5556326  52.0275872  41.2857373  74.2876326
  51.9945872  39.6057373  73.7486326  51.6145872  39.9757373  71.3936326
  51.3695872  40.4807373  70.1446326  49.6905872  36.7057373  67.5456326
  49.0205872  36.6507373  66.6856326  49.5025872  38.0177373  68.3106326
  49.1845872  38.8017373  67.6136326  48.7295872  37.9497373  69.0816326
  49.5625872  35.5507373  68.3556326  48.1505872  35.0517373  68.9216326
  48.2595872  33.5947373  69.1666326  47.0315872  35.2477373  67.9626326
  48.0315872  35.9077373  70.2616326  48.9015872  35.6677373  71.3536326
  49.9365872  35.7227373  71.0206326  48.7105872  34.6707373  71.7546326
  48.7045872  36.6907373  72.4716326  49.3355872  36.3957373  73.3166326
  49.1035872  38.0117373  72.0616326  48.2205872  38.9517373  72.6866326
  48.4775872  39.0547373  73.7526326  48.1685872  40.2827373  72.0936326
  47.9875872  40.6337373  70.7796326  47.8925872  39.8957373  69.9956326
  47.9505872  41.9227373  70.5606326  48.0995872  42.4577373  71.8566326
  48.1355872  43.7587373  72.4166326  48.0445872  44.8777373  71.7256326
  48.1365872  45.7587373  72.2146326  47.9335872  44.8267373  70.7316326
  48.2875872  43.9487373  73.7416326  48.4235872  42.8727373  74.5046326
  48.5475872  43.0557373  75.5636326  48.4275872  41.5997373  74.1296326
  48.2495872  41.4647373  72.7866326  47.2475872  36.7977373  72.9536326
  46.6055872  36.0847373  72.4306326  46.8715872  38.2297373  72.5616326
  46.5095872  38.2477373  71.5256326  46.1005872  38.6587373  73.2116326
  47.1935872  36.5667373  74.3536326  45.7835872  36.4887373  75.1206326
  45.8055872  35.4367373  76.1696326  44.6385872  36.1847373  74.2346326
  45.7235872  37.9587373  75.7506326  46.5455872  38.3147373  76.8516326
  47.5765872  38.4167373  76.5176326  46.4975872  37.5277373  77.6056326
  46.0955872  39.6257373  77.5046326  46.6635872  39.7637373  78.4336326
  46.3355872  40.7477373  76.6346326  45.1435872  41.5417373  76.5306326
  45.1095872  42.2457373  77.3726326  44.9925872  42.2867373  75.2846326
  45.0795872  41.8317373  73.9946326  45.2365872  40.7867373  73.7636326
  44.9965872  42.7687373  73.0876326  44.8455872  43.9457373  73.8386326
  44.7525872  45.3367373  73.4626326  44.7995872  45.8617373  72.3636326
  44.6035872  46.1887373  74.5366326  44.6015872  47.1787373  74.3496326
  44.5315872  45.7767373  75.8196326  44.3865872  46.6867373  76.7376326
  44.4505872  47.6757373  76.5116326  44.3215872  46.3687373  77.6866326
  44.6125872  44.5037373  76.2276326  44.7915872  43.6407373  75.1836326
  44.5925872  39.6347373  77.8246326  44.1805872  38.6247373  77.7666326
  44.0235872  40.5067373  76.7026326  43.8895872  39.9097373  75.7916326
  43.0645872  40.9667373  76.9686326  44.3725872  40.1787373  79.1196326
  42.9075872  40.1787373  79.7736326  42.9455872  39.6617373  81.1676326
  41.9925872  39.2827373  79.0356326  42.4935872  41.7147373  79.6116326
  43.0755872  42.7177373  80.4256326  44.1305872  42.8337373  80.1726326
  42.9985872  42.4197373  81.4726326  42.3645872  44.0657373  80.2506326
  42.7685872  44.7607373  80.9956326  42.5905872  44.5917373  78.9246326
  41.3425872  45.0077373  78.3456326  41.1095872  46.0247373  78.7036326
  41.2915872  44.9587373  76.8716326  41.3375872  43.7847373  76.1486326
  41.4535872  42.8457373  76.6716326  41.2735872  43.8077373  74.7906326
  41.3205872  42.4987373  74.0226326  40.3935872  42.3637373  73.4516326
  42.1485872  42.5167373  73.3016326  41.4555872  41.6347373  74.6846326
  41.1835872  45.0787373  74.0706326  41.1085872  45.2187373  72.8616326
  41.2075872  46.1997373  74.8696326  41.2255872  47.0977373  74.4066326
  41.2555872  46.2187373  76.2446326  41.2585872  47.2987373  76.8046326
  40.8395872  43.9617373  80.4366326  40.5735872  43.0037373  80.8906326
  40.3375872  44.0337373  78.9956326  40.3825872  43.0317373  78.5536326
  39.3065872  44.3907373  78.9356326  40.3505872  45.0407373  81.2226326
  38.9295872  44.9437373  81.9716326  38.9715872  45.8127373  83.1716326
  38.6325872  43.5837373  82.4856326  37.8985872  45.4327373  80.8476326
  37.3005872  46.7207373  80.8856326  36.8075872  46.8607373  81.8496326
  36.5365872  46.7477373  80.1126326  38.2595872  47.9017373  80.6466326
  38.8915872  48.0447373  81.5306326  39.0625872  47.6957373  79.4646326
  38.5385872  48.4277373  78.3316326  39.2635872  49.2147373  78.0666326
  38.2455872  47.6277373  77.1266326  37.8855872  46.3317373  77.3236326
  37.7915872  45.9397373  78.3376326  37.6695872  45.5397373  76.1886326
  37.3975872  44.5037373  76.3046326  37.8345872  46.1227373  74.9436326
  37.7145872  45.4197373  73.8586326  37.9555872  45.8937373  72.9956326
  37.5155872  44.4357373  73.8966326  38.1915872  47.3907373  74.7746326
  38.4095872  48.2257373  75.8636326  38.7245872  49.3857373  75.6626326
  37.4255872  49.1597373  80.3756326  36.4565872  49.0677373  80.8706326
  37.2455872  49.0847373  78.8576326  36.3715872  48.4647373  78.6246326
  37.0915872  50.0737373  78.4116326  38.0605872  50.3617373  80.7916326
  37.1665872  51.6067373  81.2756326  37.8655872  52.7117373  81.9766326
  36.0835872  51.1547373  82.1966326  36.5485872  52.1327373  79.8976326
  37.2605872  53.0557373  79.0856326  38.2515872  52.6567373  78.8576326
  37.3825872  53.9917373  79.6326326  36.5375872  53.3477373  77.7656326
  36.9745872  54.2507373  77.3206326  36.6905872  52.2437373  76.8536326
  35.4135872  51.9397373  76.2786326  35.2105872  52.6607373  75.4716326
  35.2615872  50.6007373  75.7216326  34.9155872  49.4197373  76.3356326
  34.6875872  49.3587373  77.3886326  34.8955872  48.3777373  75.5456326
  35.2135872  48.9437373  74.2976326  35.3355872  48.4537373  72.9786326
  35.1665872  47.1947373  72.6296326  35.2375872  46.9527373  71.6506326
  34.9405872  46.5397373  73.3516326  35.6425872  49.2647373  71.9496326
  35.8305872  50.5487373  72.2186326  36.0785872  51.1777373  71.3756326
  35.7495872  51.1567373  73.3916326  35.4355872  50.2897373  74.3966326
  35.0215872  53.5557373  77.9306326  34.7665872  53.7677373  78.9696326
  34.4595872  52.2157373  77.4546326  34.5565872  51.4617373  78.2456326
  33.4105872  52.2837373  77.1406326  34.5745872  54.5777373  77.0596326
  33.2705872  55.4487373  77.3716326  33.3455872  56.2437373  78.6206326
  32.1125872  54.5877373  77.7186326  33.1165872  56.2197373  75.9796326
  34.1705872  57.0057373  75.4396326  35.1365872  56.6517373  75.8036326
  34.0475872  58.0417373  75.7566326  34.1925872  56.9297373  73.9046326
  34.9635872  57.6197373  73.5406326  34.4935872  55.5857373  73.4546326
  33.3885872  55.0137373  72.7146326  33.6075872  55.0757373  71.6396326
  33.0455872  53.6227373  73.0446326  32.7295872  53.1077373  74.2766326
  32.7435872  53.7127373  75.1726326  32.4175872  51.8407373  74.2776326
  32.5415872  51.4707373  72.9296326  32.3535872  50.2047373  72.2606326
  32.0585872  49.1137373  72.7156326  32.5425872  50.2667373  70.8966326
  32.4215872  49.4137373  70.3736326  32.8815872  51.3927373  70.2336326
  32.9865872  51.3097373  68.9366326  32.7985872  50.4317373  68.4546326
  33.2325872  52.1357373  68.4356326  33.0915872  52.5887373  70.8086326
  32.9085872  52.5627373  72.1666326  32.8505872  57.3117373  73.2716326
  32.2575872  57.9057373  73.9716326  32.2025872  55.9457373  73.0386326
  31.6785872  55.6267373  73.9476326  31.4725872  55.9707373  72.2276326
  33.0795872  58.0397373  72.0736326  31.9125872  58.9007373  71.3976326
  32.4615872  59.9667373  70.5176326  31.1085872  59.6527373  72.3906326
  31.1045872  57.8127373  70.5406326  31.7135872  57.1987373  69.4146326
  32.7305872  56.8967373  69.6756326  31.7715872  57.9207373  68.5996326
  30.9775872  55.9497373  68.9196326  31.5055872  55.5907373  68.0266326
  31.0155872  54.8907373  69.8896326  29.9085872  54.0227373  69.6326326
  30.1005872  53.4717373  68.6966326  29.5705872  53.0617373  70.6996326
  29.4835872  53.5237373  71.9726326  29.6265872  54.5867373  72.1796326
  29.2415872  52.5767373  72.9806326  29.1985872  52.8907373  74.0106326
  29.1315872  51.2397373  72.6246326  29.0615872  50.2967373  73.5136326
  29.2885872  49.3837373  73.1426326  29.2025872  50.5537373  74.4836326
  29.2235872  50.8197373  71.3696326  29.4515872  51.7117373  70.3366326
  29.5535872  51.2887373  69.2056326  29.4945872  56.1307373  68.5416326
  29.1375872  57.1187373  68.8396326  28.7915872  55.0507373  69.3816326
  28.4485872  55.4927373  70.3246326  27.9285872  54.6067373  68.8746326
  29.3815872  55.9597373  67.1306326  27.9775872  55.9077373  66.3476326
  28.1045872  56.6457373  65.0656326  26.9235872  56.6247373  67.1006326
  27.7375872  54.3357373  66.2056326  28.6675872  53.5347373  65.4956326
  29.6315872  53.5567373  66.0066326  28.7975872  53.9357373  64.4896326
  28.2105872  52.0797373  65.3906326  28.9645872  51.5167373  64.8246326
  28.0705872  51.5097373  66.7026326  26.7835872  50.8947373  66.8516326
  26.8415872  49.8547373  66.4966326  26.2545872  50.8907373  68.2156326
  26.0845872  51.9437373  69.0796326  26.3505872  52.9547373  68.7986326
  25.5865872  51.6167373  70.2466326  25.4325872  50.2187373  70.1506326
  24.9335872  49.2207373  71.0746326  24.5495872  49.3357373  72.2256326
  24.8795872  47.9457373  70.5406326  24.6025872  47.1837373  71.1376326
  25.3025872  47.6277373  69.3006326  25.2335872  46.3767373  68.9376326
  24.9135872  45.6567373  69.5766326  25.6695872  46.1497373  68.0616326
  25.7805872  48.5067373  68.4176326  25.8215872  49.7827373  68.9026326
  26.8475872  51.9197373  64.7066326  26.5875872  52.8197373  64.1446326
  25.8995872  51.7047373  65.8896326  25.6165872  52.6707373  66.3266326
  24.9925872  51.1617373  65.6016326  26.9355872  50.7907373  63.8546326
  25.8925872  50.5277373  62.6746326  26.5365872  49.7917373  61.5556326
  25.4375872  51.7827373  62.0206326  24.7365872  49.7147373  63.4276326
  24.9955872  48.3917373  63.8666326  25.9415872  48.3717373  64.4126326
  25.0955872  47.7437373  62.9956326  23.9195872  47.8177373  64.7906326
  24.1705872  46.7597373  64.9386326  23.9075872  48.4377373  66.0846326
  22.6145872  48.1997373  66.6436326  22.5165872  47.1167373  66.8156326
  22.2725872  48.9047373  67.8886326  22.6805872  50.1887373  68.0256326
  23.2085872  50.6877373  67.2086326  22.4125872  50.8117373  69.2536326
  22.7295872  51.8307373  69.4056326  21.7625872  50.0927373  70.2436326
  21.5425872  50.6077373  71.4146326  21.2065872  49.9917373  72.1476326
  21.9005872  51.5177373  71.6226326  21.3655872  48.8297373  70.0776326
  21.6095872  48.1727373  68.8836326  21.2335872  47.0167373  68.7756326
  22.4595872  47.9027373  64.2986326  22.3865872  48.4867373  63.3776326
  21.7305872  48.6057373  65.4526326  21.7465872  49.6947373  65.3056326
  20.6905872  48.2727373  65.5606326  21.9215872  46.5977373  64.1436326
  21.0135872  46.6527373  63.7366326  89.2367079  42.9098579  87.6197532
  56.2367079  51.9098579  77.6197532  98.2367079  37.9098579  76.6197532
  81.2367079  53.9098579  82.6197532  43.2367079  49.9098579  84.6197532
 101.2367079  53.9098579  67.6197532  42.2367079  42.9098579  67.6197532
  89.2367079  52.9098579  88.6197532  70.2367079  43.9098579  72.6197532
 102.2367079  43.9098579  89.6197532  36.2367079  38.9098579  79.6197532
  91.2367079  38.9098579  68.6197532  64.2367079  49.9098579  81.6197532
 106.2367079  59.9098579  76.6197532  30.2367079  50.9098579  81.6197532
  70.2367079  52.9098579  55.6197532  48.2367079  39.9098579  83.6197532
 105.2367079  35.9098579  86.6197532  32.2367079  60.9098579  63.6197532
  77.2367079  65.9098579  93.6197532 105.2367079  41.9098579  67.6197532
  97.2367079  55.9098579  89.6197532  75.2367079  38.9098579  78.6197532
 122.2858810  95.3972600  98.5007240 122.2052860  94.4827210  98.2298950
 121.8723230  95.8939670  97.7946950 112.8434630  92.4473320  95.0434660
 111.9551330  92.7889290  94.9414540 113.1275820  92.2473640  94.1515490
 110.8067640  95.0478970 100.9274360 111.3783750  94.2801170 100.9278000
 110.8069180  95.3467730 100.0180970 112.0492510  90.4563330 102.7143290
 111.8695350  89.5589080 102.9946050 111.6472590  91.0035200 103.3890240
 120.8891010  92.6579190 100.6155600 121.2655830  91.7851070 100.5029270
 120.7910520  92.9937890  99.7246040 115.0196020  91.0304820  96.0773040
 115.1262770  91.9308550  96.3841800 114.1088380  90.9822790  95.7867690
 112.6679180  92.9523830 101.3225630 113.3489290  93.2162200 101.9413030
 112.3527230  92.1124700 101.6563640 116.8603750  93.9991190 100.4098220
 117.3681970  94.4972160 101.0503240 117.3916990  93.2226390 100.2337580
 115.1439850  88.6389750 104.6761640 115.1458290  89.1562140 103.8707540
 114.3144160  88.1619930 104.6531570 124.9076610  92.0930010 100.3211480
 124.2032180  92.3814900 100.9014590 125.2688770  92.9030120  99.9611040
 114.8255180  90.3499710 102.6832090 115.1671990  91.1941760 102.3885960
 113.8870990  90.4983450 102.7997430 118.5083070  87.8381980  99.0076680
 118.8158050  87.2828870  98.2912180 117.5783770  87.9726440  98.8249670
 120.8963830  95.9030810  95.7436800 119.9693110  95.8368190  95.9725270
 121.0488650  96.8410940  95.6292040 120.8832910  92.1747810  92.7403960
 119.9436580  92.3361770  92.8256420 121.2016170  92.8933490  92.1939950
 124.3687680  93.6435650 103.6637860 123.9558860  94.4689360 103.9177850
 123.6363630  93.0580690 103.4714220 116.5020470  96.4295550  98.5256530
 116.0977470  95.7172800  98.0302430 116.5883590  96.0848790  99.4144570
 115.2149090  93.2038760 102.3055570 115.7663680  93.3134100 101.5308820
 115.7292600  93.5776360 103.0210800 113.2025100  95.3240530  96.0263180
 113.0822700  96.0502620  95.4144450 112.8925990  94.5543440  95.5491090
 115.6688760  88.6675600  99.4086850 115.2256910  89.4485140  99.0771370
 116.2273750  88.9905490 100.1157790 118.7847580  88.2886300  94.2892680
 118.1601760  88.2846170  95.0145990 118.6977700  87.4217260  93.8928650
 117.7064660  89.2122930 101.2676450 118.0036990  90.1185760 101.1868470
 118.2550220  88.7241710 100.6536020 115.4602980  93.7909170  97.1368100
 115.2343900  93.5746340  98.0414720 114.6795510  94.2237630  96.7914070
 122.6900740  93.7972540  95.7358750 122.0909630  94.5208340  95.5522370
 123.2380350  93.7349320  94.9535200 121.2965610  92.4336080  97.7662030
 121.6895180  92.7508280  96.9530720 121.6582460  91.5547960  97.8806550
 110.3329780  89.0236880  99.9892230 110.0442830  89.5939740 100.7017210
 111.0775540  88.5441330 100.3523460 110.5200010  92.9657000  91.1994950
 110.4374680  93.9087760  91.3409940 110.1683070  92.8231910  90.3207300
 121.8820750  95.0241830 101.8612810 121.1501870  95.5328640 102.2102910
 121.4845090  94.2071810 101.5601590 118.3198140  91.6996030 100.2665300
 118.3234200  91.2585980  99.4169840 119.2149260  92.0213360 100.3737120
 114.1700520  91.5822520  99.2259510 113.8300570  92.0597750  99.9826560
 113.4077840  91.1287640  98.8660610 118.3818290  92.7008110  93.2572060
 118.5031110  92.6594590  94.2057880 117.9966800  93.5632260  93.1018790
 122.3446660  90.4775510 101.2735750 122.3619400  90.9284160 102.1177600
 122.0962240  89.5781150 101.4869190 117.3939790  95.0109250  92.6555360
 116.8256690  94.5627500  92.0291270 118.1028790  95.3702030  92.1220510
 118.6206110  95.7597810 102.0130710 118.9876240  95.2856380 102.7592050
 118.4311170  96.6339380 102.3539050 111.4846600  90.5041500  98.1424180
 111.1993520  90.1397170  98.9802800 111.4225460  89.7721960  97.5287320
 116.4105480  94.8006450 104.3314920 116.1062550  95.6798430 104.5565280
 117.3651940  94.8606240 104.3672360 121.1585190  89.3970760  94.8637550
 120.3449800  88.8983930  94.7882860 120.9647140  90.2369010  94.4473900
 123.8733580  93.7690410  93.1599710 124.7613200  94.0807640  92.9851050
 123.8438670  92.8962660  92.7680290 110.9777260  95.6400450  92.1020880
 111.8472110  95.9225250  92.3856800 110.4867580  96.4536320  91.9869690
 114.0423850  87.3711310  96.6951680 113.9138480  87.3629210  97.6436600
 113.2185870  87.7094400  96.3442690 122.5356560  91.6224740 103.9059830
 122.9037380  90.8019950 104.2339400 121.6754760  91.6826630 104.3215480
 117.8702620  92.8567630  96.1305270 117.1618770  93.3253970  96.5718880
 118.1547100  92.1989640  96.7650460 119.4958550  94.2764330 104.1297800
 119.9943800  94.7510150 104.7949650 119.6381500  93.3527850 104.3367830
 121.9018050  89.5818290  97.5701060 121.7785830  89.6004420  96.6210570
 122.8502610  89.6297230  97.6899460 116.0737640  91.1652710  93.5055980
 116.9228170  91.6022860  93.4396170 115.7068910  91.4772970  94.3328040
 113.6675820  94.8510140  92.6624400 113.7479410  93.9037650  92.7741800
 114.5595570  95.1817020  92.7685060 118.4209250  88.9182360 103.8729810
 117.9726550  88.9406620 103.0275360 117.7874450  88.5201380 104.4700110
 115.9006990  93.4883430  90.8992310 115.6996050  92.6250790  91.2605650
 115.7299040  93.4016790  89.9613910 123.3795300  88.2991660  93.4279190
 123.6597590  87.4559560  93.7838610 122.6061030  88.5314770  93.9417940
 114.6989790  90.5884050  90.8870190 115.0015690  90.5951480  89.9789340
 115.4384380  90.2381910  91.3837850 117.9174720  89.5318670  91.8726390
 117.5696720  88.8542660  91.2928840 118.1187490  89.0708180  92.6869780
 111.2580360  96.0606320  98.2690760 110.6029200  95.7917960  97.6250460
 112.0958310  95.9510800  97.8192740 124.2070800  90.8547610  92.4909250
 124.6255680  90.6678590  91.6505910 123.9006860  90.0026660  92.8012180
 112.2956290  96.4458890 102.8094100 112.6629330  96.3586290 103.6890120
 111.7267110  95.6825440 102.7100960 110.4718440  93.2705250  94.2116090
 109.5682520  93.5335450  94.0367750 110.9559060  93.5416420  93.4316050
 113.0145650  92.3270790  92.1210470 113.7237350  91.9054010  91.6357750
 112.2985590  92.3946020  91.4893820 112.6619810  88.3810120  91.1613120
 113.3847940  88.9219060  91.4794340 112.9344330  88.1073540  90.2854660
 112.3512000  87.6316310 101.0635740 112.9988190  87.0813690 100.6230900
 112.7713840  87.8859460 101.8851550 112.1044000  87.7871980 103.8061060
 111.7558820  88.2435800 104.5719240 111.7731700  86.8929110 103.8883490
 122.9951420  87.1986060 103.2942060 122.1211260  87.5321170 103.0914990
 122.8862170  86.7259240 104.1193930 123.9023400  89.4056930 104.6783780
 123.5736760  88.5908690 104.2985510 124.8505700  89.3626740 104.5549470
 120.7426240  88.1155900 102.2334970 119.9598030  88.5901400 102.5131730
 120.4489170  87.2110730 102.1248150 112.0866650  88.4203380  94.7548690
 112.8446010  88.5332260  94.1812720 111.6243820  89.2572580  94.7092120
 118.6280460  90.5342650  97.7451000 117.8154970  90.1599540  97.4046880
 119.1322100  89.7787730  98.0472190 123.1305440  87.1985100  98.9834070
 123.7334810  87.7705310  99.4582590 122.3898430  87.7624540  98.7607970
 114.4591800  88.9467430  93.2950660 114.9884560  88.1597230  93.1658610
 115.0920120  89.6258620  93.5286190 116.6529640  88.6842570  96.3496050
 116.0232380  87.9829880  96.5166180 116.1134780  89.4446700  96.1329210
 122.2858810  95.3972600  79.7263750 122.2052860  94.4827210  79.4555460
 121.8723230  95.8939670  79.0203460 112.8434630  92.4473320  76.2691170
 111.9551330  92.7889290  76.1671050 113.1275820  92.2473640  75.3772000
 110.8067640  95.0478970  82.1530870 111.3783750  94.2801170  82.1534510
 110.8069180  95.3467730  81.2437480 112.0492510  90.4563330  83.9399800
 111.8695350  89.5589080  84.2202560 111.6472590  91.0035200  84.6146750
 120.8891010  92.6579190  81.8412110 121.2655830  91.7851070  81.7285780
 120.7910520  92.9937890  80.9502550 115.0196020  91.0304820  77.3029550
 115.1262770  91.9308550  77.6098310 114.1088380  90.9822790  77.0124200
 112.6679180  92.9523830  82.5482140 113.3489290  93.2162200  83.1669540
 112.3527230  92.1124700  82.8820150 116.8603750  93.9991190  81.6354730
 117.3681970  94.4972160  82.2759750 117.3916990  93.2226390  81.4594090
 115.1439850  88.6389750  85.9018150 115.1458290  89.1562140  85.0964050
 114.3144160  88.1619930  85.8788080 124.9076610  92.0930010  81.5467990
 124.2032180  92.3814900  82.1271100 125.2688770  92.9030120  81.1867550
 114.8255180  90.3499710  83.9088600 115.1671990  91.1941760  83.6142470
 113.8870990  90.4983450  84.0253940 118.5083070  87.8381980  80.2333190
 118.8158050  87.2828870  79.5168690 117.5783770  87.9726440  80.0506180
 120.8963830  95.9030810  76.9693310 119.9693110  95.8368190  77.1981780
 121.0488650  96.8410940  76.8548550 120.8832910  92.1747810  73.9660470
 119.9436580  92.3361770  74.0512930 121.2016170  92.8933490  73.4196460
 124.3687680  93.6435650  84.8894370 123.9558860  94.4689360  85.1434360
 123.6363630  93.0580690  84.6970730 116.5020470  96.4295550  79.7513040
 116.0977470  95.7172800  79.2558940 116.5883590  96.0848790  80.6401080
 115.2149090  93.2038760  83.5312080 115.7663680  93.3134100  82.7565330
 115.7292600  93.5776360  84.2467310 113.2025100  95.3240530  77.2519690
 113.0822700  96.0502620  76.6400960 112.8925990  94.5543440  76.7747600
 115.6688760  88.6675600  80.6343360 115.2256910  89.4485140  80.3027880
 116.2273750  88.9905490  81.3414300 119.9558570  91.5344120  86.2378680
 119.4937940  91.7427140  87.0498620 119.5536680  90.7203470  85.9349350
 124.9563080  92.7553070  87.3675340 124.1056670  92.4558820  87.6884410
 124.7964870  92.9995080  86.4559160 122.0512790  94.2554820  89.4674130
 122.3766200  93.4218570  89.1276360 122.8393120  94.7783340  89.6152460
 118.7847580  88.2886300  75.5149190 118.1601760  88.2846170  76.2402500
 118.6977700  87.4217260  75.1185160 117.7064660  89.2122930  82.4932960
 118.0036990  90.1185760  82.4124980 118.2550220  88.7241710  81.8792530
 115.4602980  93.7909170  78.3624610 115.2343900  93.5746340  79.2671230
 114.6795510  94.2237630  78.0170580 122.6900740  93.7972540  76.9615260
 122.0909630  94.5208340  76.7778880 123.2380350  93.7349320  76.1791710
 117.9002190  94.6894750  89.0284880 117.8045790  93.7489480  88.8785280
 118.7434170  94.9109820  88.6332950 121.2965610  92.4336080  78.9918540
 121.6895180  92.7508280  78.1787230 121.6582460  91.5547960  79.1063060
 113.0312730  91.1008420  87.1818660 112.6376120  91.9483630  87.3891440
 112.3431130  90.4634790  87.3727300 119.6057780  91.1843390  90.2515400
 118.9156100  90.9915590  90.8861490 120.3490080  91.4678030  90.7839700
 110.3329780  89.0236880  81.2148740 110.0442830  89.5939740  81.9273720
 111.0775540  88.5441330  81.5779970 110.5200010  92.9657000  72.4251460
 110.4374680  93.9087760  72.5666450 110.1683070  92.8231910  71.5463810
 121.8820750  95.0241830  83.0869320 121.1501870  95.5328640  83.4359420
 121.4845090  94.2071810  82.7858100 118.3198140  91.6996030  81.4921810
 118.3234200  91.2585980  80.6426350 119.2149260  92.0213360  81.5993630
 114.1700520  91.5822520  80.4516020 113.8300570  92.0597750  81.2083070
 113.4077840  91.1287640  80.0917120 118.3818290  92.7008110  74.4828570
 118.5031110  92.6594590  75.4314390 117.9966800  93.5632260  74.3275300
 122.3446660  90.4775510  82.4992260 122.3619400  90.9284160  83.3434110
 122.0962240  89.5781150  82.7125700 117.3939790  95.0109250  73.8811870
 116.8256690  94.5627500  73.2547780 118.1028790  95.3702030  73.3477020
 118.6206110  95.7597810  83.2387220 118.9876240  95.2856380  83.9848560
 118.4311170  96.6339380  83.5795560 111.4846600  90.5041500  79.3680690
 111.1993520  90.1397170  80.2059310 111.4225460  89.7721960  78.7543830
 116.4105480  94.8006450  85.5571430 116.1062550  95.6798430  85.7821790
 117.3651940  94.8606240  85.5928870 121.1585190  89.3970760  76.0894060
 120.3449800  88.8983930  76.0139370 120.9647140  90.2369010  75.6730410
 123.8733580  93.7690410  74.3856220 124.7613200  94.0807640  74.2107560
 123.8438670  92.8962660  73.9936800 112.4669210  95.6409190  86.7042790
 112.1084150  96.3063040  87.2916130 112.1723770  94.8092740  87.0755410
 115.6682330  96.0993430  89.5882340 115.3682470  96.2450610  88.6910160
 116.4393570  95.5398720  89.4955730 110.9777260  95.6400450  73.3277390
 111.8472110  95.9225250  73.6113310 110.4867580  96.4536320  73.2126200
 114.0423850  87.3711310  77.9208190 113.9138480  87.3629210  78.8693110
 113.2185870  87.7094400  77.5699200 111.0417780  89.1302430  87.3814890
 110.3276300  89.3299350  87.9867500 111.4612820  88.3542000  87.7529690
 122.5356560  91.6224740  85.1316340 122.9037380  90.8019950  85.4595910
 121.6754760  91.6826630  85.5471990 117.8702620  92.8567630  77.3561780
 117.1618770  93.3253970  77.7975390 118.1547100  92.1989640  77.9906970
 119.4958550  94.2764330  85.3554310 119.9943800  94.7510150  86.0206160
 119.6381500  93.3527850  85.5624340 121.9018050  89.5818290  78.7957570
 121.7785830  89.6004420  77.8467080 122.8502610  89.6297230  78.9155970
 116.0737640  91.1652710  74.7312490 116.9228170  91.6022860  74.6652680
 115.7068910  91.4772970  75.5584550 113.6675820  94.8510140  73.8880910
 113.7479410  93.9037650  73.9998310 114.5595570  95.1817020  73.9941570
 111.1946620  96.6725060  89.1237080 111.6985640  96.0932340  89.6953310
 110.4554040  96.9565290  89.6613450 113.2269700  94.8154650  90.0187150
 113.2675040  94.5168520  90.9272380 114.0815200  95.2162260  89.8594670
 115.1675510  93.3946750  87.9861640 114.6371970  92.9037700  87.3584980
 115.8363580  93.8230950  87.4519570 124.5375740  95.2012370  89.7541980
 125.1196510  94.4464690  89.6662460 124.7137510  95.7319810  88.9773460
 115.6547810  90.3609120  88.0658930 115.5604680  89.7429870  87.3409800
 115.0745200  91.0875410  87.8388840 118.4209250  88.9182360  85.0986320
 117.9726550  88.9406620  84.2531870 117.7874450  88.5201380  85.6956620
 121.1632700  95.5452870  87.1036600 121.2828910  94.9494010  87.8431440
 122.0226700  95.5822560  86.6837900 123.5020600  96.0990060  85.6799110
 122.9755820  96.6232680  85.0764250 123.8451940  96.7317450  86.3108840
 115.9006990  93.4883430  72.1248820 115.6996050  92.6250790  72.4862160
 115.7299040  93.4016790  71.1870420 117.9301470  92.0874220  88.3612420
 118.5201160  91.7790070  89.0490240 117.1121710  91.6153970  88.5172320
 122.7494900  91.7040030  88.5945440 122.0610420  91.0421570  88.5295430
 123.4700920  91.2578300  89.0393900 123.3795300  88.2991660  74.6535700
 123.6597590  87.4559560  75.0095120 122.6061030  88.5314770  75.1674450
 114.6989790  90.5884050  72.1126700 115.0015690  90.5951480  71.2045850
 115.4384380  90.2381910  72.6094360 117.9174720  89.5318670  73.0982900
 117.5696720  88.8542660  72.5185350 118.1187490  89.0708180  73.9126290
 111.2580360  96.0606320  79.4947270 110.6029200  95.7917960  78.8506970
 112.0958310  95.9510800  79.0449250 124.2070800  90.8547610  73.7165760
 124.6255680  90.6678590  72.8762420 123.9006860  90.0026660  74.0268690
 112.2956290  96.4458890  84.0350610 112.6629330  96.3586290  84.9146630
 111.7267110  95.6825440  83.9357470 111.8472290  93.3567980  87.9409030
 110.9528340  93.3234740  88.2802740 112.3869840  93.5554770  88.7060280
 110.4718440  93.2705250  75.4372600 109.5682520  93.5335450  75.2624260
 110.9559060  93.5416420  74.6572560 113.0145650  92.3270790  73.3466980
 113.7237350  91.9054010  72.8614260 112.2985590  92.3946020  72.7150330
 112.6619810  88.3810120  72.3869630 113.3847940  88.9219060  72.7050850
 112.9344330  88.1073540  71.5111170 112.3512000  87.6316310  82.2892250
 112.9988190  87.0813690  81.8487410 112.7713840  87.8859460  83.1108060
 112.1044000  87.7871980  85.0317570 111.7558820  88.2435800  85.7975750
 111.7731700  86.8929110  85.1140000 119.6168820  88.9783860  88.5536990
 119.5557710  89.5705690  89.3032400 120.5569200  88.8709820  88.4087250
 122.2543380  88.6353920  88.1929280 122.8683790  88.9533210  87.5310360
 122.7992940  88.1502510  88.8125140 112.7764640  87.3148180  88.3068340
 113.3247630  87.1336230  87.5434450 112.8419950  86.5242290  88.8424650
 122.9951420  87.1986060  84.5198570 122.1211260  87.5321170  84.3171500
 122.8862170  86.7259240  85.3450440 123.9023400  89.4056930  85.9040290
 123.5736760  88.5908690  85.5242020 124.8505700  89.3626740  85.7805980
 120.7426240  88.1155900  83.4591480 119.9598030  88.5901400  83.7388240
 120.4489170  87.2110730  83.3504660 112.0866650  88.4203380  75.9805200
 112.8446010  88.5332260  75.4069230 111.6243820  89.2572580  75.9348630
 118.6280460  90.5342650  78.9707510 117.8154970  90.1599540  78.6303390
 119.1322100  89.7787730  79.2728700 123.1305440  87.1985100  80.2090580
 123.7334810  87.7705310  80.6839100 122.3898430  87.7624540  79.9864480
 114.4591800  88.9467430  74.5207170 114.9884560  88.1597230  74.3915120
 115.0920120  89.6258620  74.7542700 116.6529640  88.6842570  77.5752560
 116.0232380  87.9829880  77.7422690 116.1134780  89.4446700  77.3585720
 116.7785200  87.9626550  90.0105050 116.4969470  88.4660150  89.2465870
 117.1604900  87.1648300  89.6447180 123.3800660  87.3780130  90.5885520
 123.2666110  87.6974740  91.4837040 124.1970400  87.7792640  90.2922800
 122.2858810  95.3972600  60.9520260 122.2052860  94.4827210  60.6811970
 121.8723230  95.8939670  60.2459970 112.8434630  92.4473320  57.4947680
 111.9551330  92.7889290  57.3927560 113.1275820  92.2473640  56.6028510
 110.8067640  95.0478970  63.3787380 111.3783750  94.2801170  63.3791020
 110.8069180  95.3467730  62.4693990 112.0492510  90.4563330  65.1656310
 111.8695350  89.5589080  65.4459070 111.6472590  91.0035200  65.8403260
 120.8891010  92.6579190  63.0668620 121.2655830  91.7851070  62.9542290
 120.7910520  92.9937890  62.1759060 115.0196020  91.0304820  58.5286060
 115.1262770  91.9308550  58.8354820 114.1088380  90.9822790  58.2380710
 112.6679180  92.9523830  63.7738650 113.3489290  93.2162200  64.3926050
 112.3527230  92.1124700  64.1076660 116.8603750  93.9991190  62.8611240
 117.3681970  94.4972160  63.5016260 117.3916990  93.2226390  62.6850600
 115.1439850  88.6389750  67.1274660 115.1458290  89.1562140  66.3220560
 114.3144160  88.1619930  67.1044590 124.9076610  92.0930010  62.7724500
 124.2032180  92.3814900  63.3527610 125.2688770  92.9030120  62.4124060
 114.8255180  90.3499710  65.1345110 115.1671990  91.1941760  64.8398980
 113.8870990  90.4983450  65.2510450 118.5083070  87.8381980  61.4589700
 118.8158050  87.2828870  60.7425200 117.5783770  87.9726440  61.2762690
 120.8963830  95.9030810  58.1949820 119.9693110  95.8368190  58.4238290
 121.0488650  96.8410940  58.0805060 120.8832910  92.1747810  55.1916980
 119.9436580  92.3361770  55.2769440 121.2016170  92.8933490  54.6452970
 124.3687680  93.6435650  66.1150880 123.9558860  94.4689360  66.3690870
 123.6363630  93.0580690  65.9227240 116.5020470  96.4295550  60.9769550
 116.0977470  95.7172800  60.4815450 116.5883590  96.0848790  61.8657590
 115.2149090  93.2038760  64.7568590 115.7663680  93.3134100  63.9821840
 115.7292600  93.5776360  65.4723820 113.2025100  95.3240530  58.4776200
 113.0822700  96.0502620  57.8657470 112.8925990  94.5543440  58.0004110
 115.6688760  88.6675600  61.8599870 115.2256910  89.4485140  61.5284390
 116.2273750  88.9905490  62.5670810 119.9558570  91.5344120  67.4635190
 119.4937940  91.7427140  68.2755130 119.5536680  90.7203470  67.1605860
 124.9563080  92.7553070  68.5931850 124.1056670  92.4558820  68.9140920
 124.7964870  92.9995080  67.6815670 122.0512790  94.2554820  70.6930640
 122.3766200  93.4218570  70.3532870 122.8393120  94.7783340  70.8408970
 118.7847580  88.2886300  56.7405700 118.1601760  88.2846170  57.4659010
 118.6977700  87.4217260  56.3441670 117.7064660  89.2122930  63.7189470
 118.0036990  90.1185760  63.6381490 118.2550220  88.7241710  63.1049040
 115.4602980  93.7909170  59.5881120 115.2343900  93.5746340  60.4927740
 114.6795510  94.2237630  59.2427090 122.6900740  93.7972540  58.1871770
 122.0909630  94.5208340  58.0035390 123.2380350  93.7349320  57.4048220
 117.9002190  94.6894750  70.2541390 117.8045790  93.7489480  70.1041790
 118.7434170  94.9109820  69.8589460 121.2965610  92.4336080  60.2175050
 121.6895180  92.7508280  59.4043740 121.6582460  91.5547960  60.3319570
 113.0312730  91.1008420  68.4075170 112.6376120  91.9483630  68.6147950
 112.3431130  90.4634790  68.5983810 119.6057780  91.1843390  71.4771910
 118.9156100  90.9915590  72.1118000 120.3490080  91.4678030  72.0096210
 110.3329780  89.0236880  62.4405250 110.0442830  89.5939740  63.1530230
 111.0775540  88.5441330  62.8036480 110.5200010  92.9657000  53.6507970
 110.4374680  93.9087760  53.7922960 110.1683070  92.8231910  52.7720320
 121.8820750  95.0241830  64.3125830 121.1501870  95.5328640  64.6615930
 121.4845090  94.2071810  64.0114610 118.3198140  91.6996030  62.7178320
 118.3234200  91.2585980  61.8682860 119.2149260  92.0213360  62.8250140
 114.1700520  91.5822520  61.6772530 113.8300570  92.0597750  62.4339580
 113.4077840  91.1287640  61.3173630 118.3818290  92.7008110  55.7085080
 118.5031110  92.6594590  56.6570900 117.9966800  93.5632260  55.5531810
 122.3446660  90.4775510  63.7248770 122.3619400  90.9284160  64.5690620
 122.0962240  89.5781150  63.9382210 117.3939790  95.0109250  55.1068380
 116.8256690  94.5627500  54.4804290 118.1028790  95.3702030  54.5733530
 118.6206110  95.7597810  64.4643730 118.9876240  95.2856380  65.2105070
 118.4311170  96.6339380  64.8052070 111.4846600  90.5041500  60.5937200
 111.1993520  90.1397170  61.4315820 111.4225460  89.7721960  59.9800340
 116.4105480  94.8006450  66.7827940 116.1062550  95.6798430  67.0078300
 117.3651940  94.8606240  66.8185380 121.1585190  89.3970760  57.3150570
 120.3449800  88.8983930  57.2395880 120.9647140  90.2369010  56.8986920
 123.8733580  93.7690410  55.6112730 124.7613200  94.0807640  55.4364070
 123.8438670  92.8962660  55.2193310 112.4669210  95.6409190  67.9299300
 112.1084150  96.3063040  68.5172640 112.1723770  94.8092740  68.3011920
 115.6682330  96.0993430  70.8138850 115.3682470  96.2450610  69.9166670
 116.4393570  95.5398720  70.7212240 110.9777260  95.6400450  54.5533900
 111.8472110  95.9225250  54.8369820 110.4867580  96.4536320  54.4382710
 114.0423850  87.3711310  59.1464700 113.9138480  87.3629210  60.0949620
 113.2185870  87.7094400  58.7955710 111.0417780  89.1302430  68.6071400
 110.3276300  89.3299350  69.2124010 111.4612820  88.3542000  68.9786200
 122.5356560  91.6224740  66.3572850 122.9037380  90.8019950  66.6852420
 121.6754760  91.6826630  66.7728500 117.8702620  92.8567630  58.5818290
 117.1618770  93.3253970  59.0231900 118.1547100  92.1989640  59.2163480
 119.4958550  94.2764330  66.5810820 119.9943800  94.7510150  67.2462670
 119.6381500  93.3527850  66.7880850 121.9018050  89.5818290  60.0214080
 121.7785830  89.6004420  59.0723590 122.8502610  89.6297230  60.1412480
 116.0737640  91.1652710  55.9569000 116.9228170  91.6022860  55.8909190
 115.7068910  91.4772970  56.7841060 113.6675820  94.8510140  55.1137420
 113.7479410  93.9037650  55.2254820 114.5595570  95.1817020  55.2198080
 111.1946620  96.6725060  70.3493590 111.6985640  96.0932340  70.9209820
 110.4554040  96.9565290  70.8869960 113.2269700  94.8154650  71.2443660
 113.2675040  94.5168520  72.1528890 114.0815200  95.2162260  71.0851180
 115.1675510  93.3946750  69.2118150 114.6371970  92.9037700  68.5841490
 115.8363580  93.8230950  68.6776080 124.5375740  95.2012370  70.9798490
 125.1196510  94.4464690  70.8918970 124.7137510  95.7319810  70.2029970
 115.6547810  90.3609120  69.2915440 115.5604680  89.7429870  68.5666310
 115.0745200  91.0875410  69.0645350 118.4209250  88.9182360  66.3242830
 117.9726550  88.9406620  65.4788380 117.7874450  88.5201380  66.9213130
 121.1632700  95.5452870  68.3293110 121.2828910  94.9494010  69.0687950
 122.0226700  95.5822560  67.9094410 123.5020600  96.0990060  66.9055620
 122.9755820  96.6232680  66.3020760 123.8451940  96.7317450  67.5365350
 115.9006990  93.4883430  53.3505330 115.6996050  92.6250790  53.7118670
 115.7299040  93.4016790  52.4126930 117.9301470  92.0874220  69.5868930
 118.5201160  91.7790070  70.2746750 117.1121710  91.6153970  69.7428830
 122.7494900  91.7040030  69.8201950 122.0610420  91.0421570  69.7551940
 123.4700920  91.2578300  70.2650410 123.3795300  88.2991660  55.8792210
 123.6597590  87.4559560  56.2351630 122.6061030  88.5314770  56.3930960
 114.6989790  90.5884050  53.3383210 115.0015690  90.5951480  52.4302360
 115.4384380  90.2381910  53.8350870 117.9174720  89.5318670  54.3239410
 117.5696720  88.8542660  53.7441860 118.1187490  89.0708180  55.1382800
 111.2580360  96.0606320  60.7203780 110.6029200  95.7917960  60.0763480
 112.0958310  95.9510800  60.2705760 124.2070800  90.8547610  54.9422270
 124.6255680  90.6678590  54.1018930 123.9006860  90.0026660  55.2525200
 112.2956290  96.4458890  65.2607120 112.6629330  96.3586290  66.1403140
 111.7267110  95.6825440  65.1613980 111.8472290  93.3567980  69.1665540
 110.9528340  93.3234740  69.5059250 112.3869840  93.5554770  69.9316790
 110.4718440  93.2705250  56.6629110 109.5682520  93.5335450  56.4880770
 110.9559060  93.5416420  55.8829070 113.0145650  92.3270790  54.5723490
 113.7237350  91.9054010  54.0870770 112.2985590  92.3946020  53.9406840
 112.6619810  88.3810120  53.6126140 113.3847940  88.9219060  53.9307360
 112.9344330  88.1073540  52.7367680 112.3512000  87.6316310  63.5148760
 112.9988190  87.0813690  63.0743920 112.7713840  87.8859460  64.3364570
 112.1044000  87.7871980  66.2574080 111.7558820  88.2435800  67.0232260
 111.7731700  86.8929110  66.3396510 119.6168820  88.9783860  69.7793500
 119.5557710  89.5705690  70.5288910 120.5569200  88.8709820  69.6343760
 122.2543380  88.6353920  69.4185790 122.8683790  88.9533210  68.7566870
 122.7992940  88.1502510  70.0381650 112.7764640  87.3148180  69.5324850
 113.3247630  87.1336230  68.7690960 112.8419950  86.5242290  70.0681160
 122.9951420  87.1986060  65.7455080 122.1211260  87.5321170  65.5428010
 122.8862170  86.7259240  66.5706950 123.9023400  89.4056930  67.1296800
 123.5736760  88.5908690  66.7498530 124.8505700  89.3626740  67.0062490
 120.7426240  88.1155900  64.6847990 119.9598030  88.5901400  64.9644750
 120.4489170  87.2110730  64.5761170 112.0866650  88.4203380  57.2061710
 112.8446010  88.5332260  56.6325740 111.6243820  89.2572580  57.1605140
 118.6280460  90.5342650  60.1964020 117.8154970  90.1599540  59.8559900
 119.1322100  89.7787730  60.4985210 123.1305440  87.1985100  61.4347090
 123.7334810  87.7705310  61.9095610 122.3898430  87.7624540  61.2120990
 114.4591800  88.9467430  55.7463680 114.9884560  88.1597230  55.6171630
 115.0920120  89.6258620  55.9799210 116.6529640  88.6842570  58.8009070
 116.0232380  87.9829880  58.9679200 116.1134780  89.4446700  58.5842230
 116.7785200  87.9626550  71.2361560 116.4969470  88.4660150  70.4722380
 117.1604900  87.1648300  70.8703690 123.3800660  87.3780130  71.8142030
 123.2666110  87.6974740  72.7093550 124.1970400  87.7792640  71.5179310
 122.2858810  95.3972600  42.1776770 122.2052860  94.4827210  41.9068480
 121.8723230  95.8939670  41.4716480 112.8434630  92.4473320  38.7204190
 111.9551330  92.7889290  38.6184070 113.1275820  92.2473640  37.8285020
 110.8067640  95.0478970  44.6043890 111.3783750  94.2801170  44.6047530
 110.8069180  95.3467730  43.6950500 112.0492510  90.4563330  46.3912820
 111.8695350  89.5589080  46.6715580 111.6472590  91.0035200  47.0659770
 120.8891010  92.6579190  44.2925130 121.2655830  91.7851070  44.1798800
 120.7910520  92.9937890  43.4015570 115.0196020  91.0304820  39.7542570
 115.1262770  91.9308550  40.0611330 114.1088380  90.9822790  39.4637220
 112.6679180  92.9523830  44.9995160 113.3489290  93.2162200  45.6182560
 112.3527230  92.1124700  45.3333170 116.8603750  93.9991190  44.0867750
 117.3681970  94.4972160  44.7272770 117.3916990  93.2226390  43.9107110
 115.1439850  88.6389750  48.3531170 115.1458290  89.1562140  47.5477070
 114.3144160  88.1619930  48.3301100 124.9076610  92.0930010  43.9981010
 124.2032180  92.3814900  44.5784120 125.2688770  92.9030120  43.6380570
 114.8255180  90.3499710  46.3601620 115.1671990  91.1941760  46.0655490
 113.8870990  90.4983450  46.4766960 118.5083070  87.8381980  42.6846210
 118.8158050  87.2828870  41.9681710 117.5783770  87.9726440  42.5019200
 120.8963830  95.9030810  39.4206330 119.9693110  95.8368190  39.6494800
 121.0488650  96.8410940  39.3061570 120.8832910  92.1747810  36.4173490
 119.9436580  92.3361770  36.5025950 121.2016170  92.8933490  35.8709480
 124.3687680  93.6435650  47.3407390 123.9558860  94.4689360  47.5947380
 123.6363630  93.0580690  47.1483750 116.5020470  96.4295550  42.2026060
 116.0977470  95.7172800  41.7071960 116.5883590  96.0848790  43.0914100
 115.2149090  93.2038760  45.9825100 115.7663680  93.3134100  45.2078350
 115.7292600  93.5776360  46.6980330 113.2025100  95.3240530  39.7032710
 113.0822700  96.0502620  39.0913980 112.8925990  94.5543440  39.2260620
 115.6688760  88.6675600  43.0856380 115.2256910  89.4485140  42.7540900
 116.2273750  88.9905490  43.7927320 119.9558570  91.5344120  48.6891700
 119.4937940  91.7427140  49.5011640 119.5536680  90.7203470  48.3862370
 124.9563080  92.7553070  49.8188360 124.1056670  92.4558820  50.1397430
 124.7964870  92.9995080  48.9072180 122.0512790  94.2554820  51.9187150
 122.3766200  93.4218570  51.5789380 122.8393120  94.7783340  52.0665480
 118.7847580  88.2886300  37.9662210 118.1601760  88.2846170  38.6915520
 118.6977700  87.4217260  37.5698180 117.7064660  89.2122930  44.9445980
 118.0036990  90.1185760  44.8638000 118.2550220  88.7241710  44.3305550
 115.4602980  93.7909170  40.8137630 115.2343900  93.5746340  41.7184250
 114.6795510  94.2237630  40.4683600 122.6900740  93.7972540  39.4128280
 122.0909630  94.5208340  39.2291900 123.2380350  93.7349320  38.6304730
 117.9002190  94.6894750  51.4797900 117.8045790  93.7489480  51.3298300
 118.7434170  94.9109820  51.0845970 121.2965610  92.4336080  41.4431560
 121.6895180  92.7508280  40.6300250 121.6582460  91.5547960  41.5576080
 113.0312730  91.1008420  49.6331680 112.6376120  91.9483630  49.8404460
 112.3431130  90.4634790  49.8240320 119.6057780  91.1843390  52.7028420
 118.9156100  90.9915590  53.3374510 120.3490080  91.4678030  53.2352720
 110.3329780  89.0236880  43.6661760 110.0442830  89.5939740  44.3786740
 111.0775540  88.5441330  44.0292990 110.5200010  92.9657000  34.8764480
 110.4374680  93.9087760  35.0179470 110.1683070  92.8231910  33.9976830
 121.8820750  95.0241830  45.5382340 121.1501870  95.5328640  45.8872440
 121.4845090  94.2071810  45.2371120 118.3198140  91.6996030  43.9434830
 118.3234200  91.2585980  43.0939370 119.2149260  92.0213360  44.0506650
 114.1700520  91.5822520  42.9029040 113.8300570  92.0597750  43.6596090
 113.4077840  91.1287640  42.5430140 118.3818290  92.7008110  36.9341590
 118.5031110  92.6594590  37.8827410 117.9966800  93.5632260  36.7788320
 122.3446660  90.4775510  44.9505280 122.3619400  90.9284160  45.7947130
 122.0962240  89.5781150  45.1638720 117.3939790  95.0109250  36.3324890
 116.8256690  94.5627500  35.7060800 118.1028790  95.3702030  35.7990040
 118.6206110  95.7597810  45.6900240 118.9876240  95.2856380  46.4361580
 118.4311170  96.6339380  46.0308580 111.4846600  90.5041500  41.8193710
 111.1993520  90.1397170  42.6572330 111.4225460  89.7721960  41.2056850
 116.4105480  94.8006450  48.0084450 116.1062550  95.6798430  48.2334810
 117.3651940  94.8606240  48.0441890 121.1585190  89.3970760  38.5407080
 120.3449800  88.8983930  38.4652390 120.9647140  90.2369010  38.1243430
 123.8733580  93.7690410  36.8369240 124.7613200  94.0807640  36.6620580
 123.8438670  92.8962660  36.4449820 112.4669210  95.6409190  49.1555810
 112.1084150  96.3063040  49.7429150 112.1723770  94.8092740  49.5268430
 115.6682330  96.0993430  52.0395360 115.3682470  96.2450610  51.1423180
 116.4393570  95.5398720  51.9468750 110.9777260  95.6400450  35.7790410
 111.8472110  95.9225250  36.0626330 110.4867580  96.4536320  35.6639220
 114.0423850  87.3711310  40.3721210 113.9138480  87.3629210  41.3206130
 113.2185870  87.7094400  40.0212220 111.0417780  89.1302430  49.8327910
 110.3276300  89.3299350  50.4380520 111.4612820  88.3542000  50.2042710
 122.5356560  91.6224740  47.5829360 122.9037380  90.8019950  47.9108930
 121.6754760  91.6826630  47.9985010 117.8702620  92.8567630  39.8074800
 117.1618770  93.3253970  40.2488410 118.1547100  92.1989640  40.4419990
 119.4958550  94.2764330  47.8067330 119.9943800  94.7510150  48.4719180
 119.6381500  93.3527850  48.0137360 121.9018050  89.5818290  41.2470590
 121.7785830  89.6004420  40.2980100 122.8502610  89.6297230  41.3668990
 116.0737640  91.1652710  37.1825510 116.9228170  91.6022860  37.1165700
 115.7068910  91.4772970  38.0097570 113.6675820  94.8510140  36.3393930
 113.7479410  93.9037650  36.4511330 114.5595570  95.1817020  36.4454590
 111.1946620  96.6725060  51.5750100 111.6985640  96.0932340  52.1466330
 110.4554040  96.9565290  52.1126470 113.2269700  94.8154650  52.4700170
 113.2675040  94.5168520  53.3785400 114.0815200  95.2162260  52.3107690
 115.1675510  93.3946750  50.4374660 114.6371970  92.9037700  49.8098000
 115.8363580  93.8230950  49.9032590 124.5375740  95.2012370  52.2055000
 125.1196510  94.4464690  52.1175480 124.7137510  95.7319810  51.4286480
 115.6547810  90.3609120  50.5171950 115.5604680  89.7429870  49.7922820
 115.0745200  91.0875410  50.2901860 118.4209250  88.9182360  47.5499340
 117.9726550  88.9406620  46.7044890 117.7874450  88.5201380  48.1469640
 121.1632700  95.5452870  49.5549620 121.2828910  94.9494010  50.2944460
 122.0226700  95.5822560  49.1350920 123.5020600  96.0990060  48.1312130
 122.9755820  96.6232680  47.5277270 123.8451940  96.7317450  48.7621860
 115.9006990  93.4883430  34.5761840 115.6996050  92.6250790  34.9375180
 115.7299040  93.4016790  33.6383440 117.9301470  92.0874220  50.8125440
 118.5201160  91.7790070  51.5003260 117.1121710  91.6153970  50.9685340
 122.7494900  91.7040030  51.0458460 122.0610420  91.0421570  50.9808450
 123.4700920  91.2578300  51.4906920 123.3795300  88.2991660  37.1048720
 123.6597590  87.4559560  37.4608140 122.6061030  88.5314770  37.6187470
 114.6989790  90.5884050  34.5639720 115.0015690  90.5951480  33.6558870
 115.4384380  90.2381910  35.0607380 117.9174720  89.5318670  35.5495920
 117.5696720  88.8542660  34.9698370 118.1187490  89.0708180  36.3639310
 111.2580360  96.0606320  41.9460290 110.6029200  95.7917960  41.3019990
 112.0958310  95.9510800  41.4962270 124.2070800  90.8547610  36.1678780
 124.6255680  90.6678590  35.3275440 123.9006860  90.0026660  36.4781710
 112.2956290  96.4458890  46.4863630 112.6629330  96.3586290  47.3659650
 111.7267110  95.6825440  46.3870490 111.8472290  93.3567980  50.3922050
 110.9528340  93.3234740  50.7315760 112.3869840  93.5554770  51.1573300
 110.4718440  93.2705250  37.8885620 109.5682520  93.5335450  37.7137280
 110.9559060  93.5416420  37.1085580 113.0145650  92.3270790  35.7980000
 113.7237350  91.9054010  35.3127280 112.2985590  92.3946020  35.1663350
 112.6619810  88.3810120  34.8382650 113.3847940  88.9219060  35.1563870
 112.9344330  88.1073540  33.9624190 112.3512000  87.6316310  44.7405270
 112.9988190  87.0813690  44.3000430 112.7713840  87.8859460  45.5621080
 112.1044000  87.7871980  47.4830590 111.7558820  88.2435800  48.2488770
 111.7731700  86.8929110  47.5653020 119.6168820  88.9783860  51.0050010
 119.5557710  89.5705690  51.7545420 120.5569200  88.8709820  50.8600270
 122.2543380  88.6353920  50.6442300 122.8683790  88.9533210  49.9823380
 122.7992940  88.1502510  51.2638160 112.7764640  87.3148180  50.7581360
 113.3247630  87.1336230  49.9947470 112.8419950  86.5242290  51.2937670
 122.9951420  87.1986060  46.9711590 122.1211260  87.5321170  46.7684520
 122.8862170  86.7259240  47.7963460 123.9023400  89.4056930  48.3553310
 123.5736760  88.5908690  47.9755040 124.8505700  89.3626740  48.2319000
 120.7426240  88.1155900  45.9104500 119.9598030  88.5901400  46.1901260
 120.4489170  87.2110730  45.8017680 112.0866650  88.4203380  38.4318220
 112.8446010  88.5332260  37.8582250 111.6243820  89.2572580  38.3861650
 118.6280460  90.5342650  41.4220530 117.8154970  90.1599540  41.0816410
 119.1322100  89.7787730  41.7241720 123.1305440  87.1985100  42.6603600
 123.7334810  87.7705310  43.1352120 122.3898430  87.7624540  42.4377500
 114.4591800  88.9467430  36.9720190 114.9884560  88.1597230  36.8428140
 115.0920120  89.6258620  37.2055720 116.6529640  88.6842570  40.0265580
 116.0232380  87.9829880  40.1935710 116.1134780  89.4446700  39.8098740
 116.7785200  87.9626550  52.4618070 116.4969470  88.4660150  51.6978890
 117.1604900  87.1648300  52.0960200 123.3800660  87.3780130  53.0398540
 123.2666110  87.6974740  53.9350060 124.1970400  87.7792640  52.7435820
 122.2858810  95.3972600  23.4033280 122.2052860  94.4827210  23.1324990
 121.8723230  95.8939670  22.6972990 112.8434630  92.4473320  19.9460700
 111.9551330  92.7889290  19.8440580 113.1275820  92.2473640  19.0541530
 110.8067640  95.0478970  25.8300400 111.3783750  94.2801170  25.8304040
 110.8069180  95.3467730  24.9207010 112.0492510  90.4563330  27.6169330
 111.8695350  89.5589080  27.8972090 111.6472590  91.0035200  28.2916280
 120.8891010  92.6579190  25.5181640 121.2655830  91.7851070  25.4055310
 120.7910520  92.9937890  24.6272080 115.0196020  91.0304820  20.9799080
 115.1262770  91.9308550  21.2867840 114.1088380  90.9822790  20.6893730
 112.6679180  92.9523830  26.2251670 113.3489290  93.2162200  26.8439070
 112.3527230  92.1124700  26.5589680 116.8603750  93.9991190  25.3124260
 117.3681970  94.4972160  25.9529280 117.3916990  93.2226390  25.1363620
 115.1439850  88.6389750  29.5787680 115.1458290  89.1562140  28.7733580
 114.3144160  88.1619930  29.5557610 124.9076610  92.0930010  25.2237520
 124.2032180  92.3814900  25.8040630 125.2688770  92.9030120  24.8637080
 114.8255180  90.3499710  27.5858130 115.1671990  91.1941760  27.2912000
 113.8870990  90.4983450  27.7023470 118.5083070  87.8381980  23.9102720
 118.8158050  87.2828870  23.1938220 117.5783770  87.9726440  23.7275710
 120.8963830  95.9030810  20.6462840 119.9693110  95.8368190  20.8751310
 121.0488650  96.8410940  20.5318080 120.8832910  92.1747810  17.6430000
 119.9436580  92.3361770  17.7282460 121.2016170  92.8933490  17.0965990
 124.3687680  93.6435650  28.5663900 123.9558860  94.4689360  28.8203890
 123.6363630  93.0580690  28.3740260 116.5020470  96.4295550  23.4282570
 116.0977470  95.7172800  22.9328470 116.5883590  96.0848790  24.3170610
 115.2149090  93.2038760  27.2081610 115.7663680  93.3134100  26.4334860
 115.7292600  93.5776360  27.9236840 113.2025100  95.3240530  20.9289220
 113.0822700  96.0502620  20.3170490 112.8925990  94.5543440  20.4517130
 115.6688760  88.6675600  24.3112890 115.2256910  89.4485140  23.9797410
 116.2273750  88.9905490  25.0183830 119.9558570  91.5344120  29.9148210
 119.4937940  91.7427140  30.7268150 119.5536680  90.7203470  29.6118880
 124.9563080  92.7553070  31.0444870 124.1056670  92.4558820  31.3653940
 124.7964870  92.9995080  30.1328690 122.0512790  94.2554820  33.1443660
 122.3766200  93.4218570  32.8045890 122.8393120  94.7783340  33.2921990
 118.7847580  88.2886300  19.1918720 118.1601760  88.2846170  19.9172030
 118.6977700  87.4217260  18.7954690 117.7064660  89.2122930  26.1702490
 118.0036990  90.1185760  26.0894510 118.2550220  88.7241710  25.5562060
 115.4602980  93.7909170  22.0394140 115.2343900  93.5746340  22.9440760
 114.6795510  94.2237630  21.6940110 122.6900740  93.7972540  20.6384790
 122.0909630  94.5208340  20.4548410 123.2380350  93.7349320  19.8561240
 117.9002190  94.6894750  32.7054410 117.8045790  93.7489480  32.5554810
 118.7434170  94.9109820  32.3102480 121.2965610  92.4336080  22.6688070
 121.6895180  92.7508280  21.8556760 121.6582460  91.5547960  22.7832590
 113.0312730  91.1008420  30.8588190 112.6376120  91.9483630  31.0660970
 112.3431130  90.4634790  31.0496830 119.6057780  91.1843390  33.9284930
 118.9156100  90.9915590  34.5631020 120.3490080  91.4678030  34.4609230
 110.3329780  89.0236880  24.8918270 110.0442830  89.5939740  25.6043250
 111.0775540  88.5441330  25.2549500 110.5200010  92.9657000  16.1020990
 110.4374680  93.9087760  16.2435980 110.1683070  92.8231910  15.2233340
 121.8820750  95.0241830  26.7638850 121.1501870  95.5328640  27.1128950
 121.4845090  94.2071810  26.4627630 118.3198140  91.6996030  25.1691340
 118.3234200  91.2585980  24.3195880 119.2149260  92.0213360  25.2763160
 114.1700520  91.5822520  24.1285550 113.8300570  92.0597750  24.8852600
 113.4077840  91.1287640  23.7686650 118.3818290  92.7008110  18.1598100
 118.5031110  92.6594590  19.1083920 117.9966800  93.5632260  18.0044830
 122.3446660  90.4775510  26.1761790 122.3619400  90.9284160  27.0203640
 122.0962240  89.5781150  26.3895230 117.3939790  95.0109250  17.5581400
 116.8256690  94.5627500  16.9317310 118.1028790  95.3702030  17.0246550
 118.6206110  95.7597810  26.9156750 118.9876240  95.2856380  27.6618090
 118.4311170  96.6339380  27.2565090 111.4846600  90.5041500  23.0450220
 111.1993520  90.1397170  23.8828840 111.4225460  89.7721960  22.4313360
 116.4105480  94.8006450  29.2340960 116.1062550  95.6798430  29.4591320
 117.3651940  94.8606240  29.2698400 121.1585190  89.3970760  19.7663590
 120.3449800  88.8983930  19.6908900 120.9647140  90.2369010  19.3499940
 123.8733580  93.7690410  18.0625750 124.7613200  94.0807640  17.8877090
 123.8438670  92.8962660  17.6706330 112.4669210  95.6409190  30.3812320
 112.1084150  96.3063040  30.9685660 112.1723770  94.8092740  30.7524940
 115.6682330  96.0993430  33.2651870 115.3682470  96.2450610  32.3679690
 116.4393570  95.5398720  33.1725260 110.9777260  95.6400450  17.0046920
 111.8472110  95.9225250  17.2882840 110.4867580  96.4536320  16.8895730
 114.0423850  87.3711310  21.5977720 113.9138480  87.3629210  22.5462640
 113.2185870  87.7094400  21.2468730 111.0417780  89.1302430  31.0584420
 110.3276300  89.3299350  31.6637030 111.4612820  88.3542000  31.4299220
 122.5356560  91.6224740  28.8085870 122.9037380  90.8019950  29.1365440
 121.6754760  91.6826630  29.2241520 117.8702620  92.8567630  21.0331310
 117.1618770  93.3253970  21.4744920 118.1547100  92.1989640  21.6676500
 119.4958550  94.2764330  29.0323840 119.9943800  94.7510150  29.6975690
 119.6381500  93.3527850  29.2393870 121.9018050  89.5818290  22.4727100
 121.7785830  89.6004420  21.5236610 122.8502610  89.6297230  22.5925500
 116.0737640  91.1652710  18.4082020 116.9228170  91.6022860  18.3422210
 115.7068910  91.4772970  19.2354080 113.6675820  94.8510140  17.5650440
 113.7479410  93.9037650  17.6767840 114.5595570  95.1817020  17.6711100
 111.1946620  96.6725060  32.8006610 111.6985640  96.0932340  33.3722840
 110.4554040  96.9565290  33.3382980 113.2269700  94.8154650  33.6956680
 113.2675040  94.5168520  34.6041910 114.0815200  95.2162260  33.5364200
 115.1675510  93.3946750  31.6631170 114.6371970  92.9037700  31.0354510
 115.8363580  93.8230950  31.1289100 124.5375740  95.2012370  33.4311510
 125.1196510  94.4464690  33.3431990 124.7137510  95.7319810  32.6542990
 115.6547810  90.3609120  31.7428460 115.5604680  89.7429870  31.0179330
 115.0745200  91.0875410  31.5158370 118.4209250  88.9182360  28.7755850
 117.9726550  88.9406620  27.9301400 117.7874450  88.5201380  29.3726150
 121.1632700  95.5452870  30.7806130 121.2828910  94.9494010  31.5200970
 122.0226700  95.5822560  30.3607430 123.5020600  96.0990060  29.3568640
 122.9755820  96.6232680  28.7533780 123.8451940  96.7317450  29.9878370
 115.9006990  93.4883430  15.8018350 115.6996050  92.6250790  16.1631690
 115.7299040  93.4016790  14.8639950 117.9301470  92.0874220  32.0381950
 118.5201160  91.7790070  32.7259770 117.1121710  91.6153970  32.1941850
 122.7494900  91.7040030  32.2714970 122.0610420  91.0421570  32.2064960
 123.4700920  91.2578300  32.7163430 123.3795300  88.2991660  18.3305230
 123.6597590  87.4559560  18.6864650 122.6061030  88.5314770  18.8443980
 114.6989790  90.5884050  15.7896230 115.0015690  90.5951480  14.8815380
 115.4384380  90.2381910  16.2863890 117.9174720  89.5318670  16.7752430
 117.5696720  88.8542660  16.1954880 118.1187490  89.0708180  17.5895820
 111.2580360  96.0606320  23.1716800 110.6029200  95.7917960  22.5276500
 112.0958310  95.9510800  22.7218780 124.2070800  90.8547610  17.3935290
 124.6255680  90.6678590  16.5531950 123.9006860  90.0026660  17.7038220
 112.2956290  96.4458890  27.7120140 112.6629330  96.3586290  28.5916160
 111.7267110  95.6825440  27.6127000 111.8472290  93.3567980  31.6178560
 110.9528340  93.3234740  31.9572270 112.3869840  93.5554770  32.3829810
 110.4718440  93.2705250  19.1142130 109.5682520  93.5335450  18.9393790
 110.9559060  93.5416420  18.3342090 113.0145650  92.3270790  17.0236510
 113.7237350  91.9054010  16.5383790 112.2985590  92.3946020  16.3919860
 112.6619810  88.3810120  16.0639160 113.3847940  88.9219060  16.3820380
 112.9344330  88.1073540  15.1880700 112.3512000  87.6316310  25.9661780
 112.9988190  87.0813690  25.5256940 112.7713840  87.8859460  26.7877590
 112.1044000  87.7871980  28.7087100 111.7558820  88.2435800  29.4745280
 111.7731700  86.8929110  28.7909530 119.6168820  88.9783860  32.2306520
 119.5557710  89.5705690  32.9801930 120.5569200  88.8709820  32.0856780
 122.2543380  88.6353920  31.8698810 122.8683790  88.9533210  31.2079890
 122.7992940  88.1502510  32.4894670 112.7764640  87.3148180  31.9837870
 113.3247630  87.1336230  31.2203980 112.8419950  86.5242290  32.5194180
 122.9951420  87.1986060  28.1968100 122.1211260  87.5321170  27.9941030
 122.8862170  86.7259240  29.0219970 123.9023400  89.4056930  29.5809820
 123.5736760  88.5908690  29.2011550 124.8505700  89.3626740  29.4575510
 120.7426240  88.1155900  27.1361010 119.9598030  88.5901400  27.4157770
 120.4489170  87.2110730  27.0274190 112.0866650  88.4203380  19.6574730
 112.8446010  88.5332260  19.0838760 111.6243820  89.2572580  19.6118160
 118.6280460  90.5342650  22.6477040 117.8154970  90.1599540  22.3072920
 119.1322100  89.7787730  22.9498230 123.1305440  87.1985100  23.8860110
 123.7334810  87.7705310  24.3608630 122.3898430  87.7624540  23.6634010
 114.4591800  88.9467430  18.1976700 114.9884560  88.1597230  18.0684650
 115.0920120  89.6258620  18.4312230 116.6529640  88.6842570  21.2522090
 116.0232380  87.9829880  21.4192220 116.1134780  89.4446700  21.0355250
 116.7785200  87.9626550  33.6874580 116.4969470  88.4660150  32.9235400
 117.1604900  87.1648300  33.3216710 123.3800660  87.3780130  34.2655050
 123.2666110  87.6974740  35.1606570 124.1970400  87.7792640  33.9692330
 122.2858810  95.3972600   4.6289790 122.2052860  94.4827210   4.3581500
 121.8723230  95.8939670   3.9229500 110.8067640  95.0478970   7.0556910
 111.3783750  94.2801170   7.0560550 110.8069180  95.3467730   6.1463520
 112.0492510  90.4563330   8.8425840 111.8695350  89.5589080   9.1228600
 111.6472590  91.0035200   9.5172790 120.8891010  92.6579190   6.7438150
 121.2655830  91.7851070   6.6311820 120.7910520  92.9937890   5.8528590
 115.0196020  91.0304820   2.2055590 115.1262770  91.9308550   2.5124350
 114.1088380  90.9822790   1.9150240 112.6679180  92.9523830   7.4508180
 113.3489290  93.2162200   8.0695580 112.3527230  92.1124700   7.7846190
 116.8603750  93.9991190   6.5380770 117.3681970  94.4972160   7.1785790
 117.3916990  93.2226390   6.3620130 115.1439850  88.6389750  10.8044190
 115.1458290  89.1562140   9.9990090 114.3144160  88.1619930  10.7814120
 124.9076610  92.0930010   6.4494030 124.2032180  92.3814900   7.0297140
 125.2688770  92.9030120   6.0893590 114.8255180  90.3499710   8.8114640
 115.1671990  91.1941760   8.5168510 113.8870990  90.4983450   8.9279980
 118.5083070  87.8381980   5.1359230 118.8158050  87.2828870   4.4194730
 117.5783770  87.9726440   4.9532220 120.8963830  95.9030810   1.8719350
 119.9693110  95.8368190   2.1007820 121.0488650  96.8410940   1.7574590
 124.3687680  93.6435650   9.7920410 123.9558860  94.4689360  10.0460400
 123.6363630  93.0580690   9.5996770 116.5020470  96.4295550   4.6539080
 116.0977470  95.7172800   4.1584980 116.5883590  96.0848790   5.5427120
 115.2149090  93.2038760   8.4338120 115.7663680  93.3134100   7.6591370
 115.7292600  93.5776360   9.1493350 113.2025100  95.3240530   2.1545730
 113.0822700  96.0502620   1.5427000 112.8925990  94.5543440   1.6773640
 115.6688760  88.6675600   5.5369400 115.2256910  89.4485140   5.2053920
 116.2273750  88.9905490   6.2440340 119.9558570  91.5344120  11.1404720
 119.4937940  91.7427140  11.9524660 119.5536680  90.7203470  10.8375390
 124.9563080  92.7553070  12.2701380 124.1056670  92.4558820  12.5910450
 124.7964870  92.9995080  11.3585200 122.0512790  94.2554820  14.3700170
 122.3766200  93.4218570  14.0302400 122.8393120  94.7783340  14.5178500
 117.7064660  89.2122930   7.3959000 118.0036990  90.1185760   7.3151020
 118.2550220  88.7241710   6.7818570 115.4602980  93.7909170   3.2650650
 115.2343900  93.5746340   4.1697270 114.6795510  94.2237630   2.9196620
 117.9002190  94.6894750  13.9310920 117.8045790  93.7489480  13.7811320
 118.7434170  94.9109820  13.5358990 121.2965610  92.4336080   3.8944580
 121.6895180  92.7508280   3.0813270 121.6582460  91.5547960   4.0089100
 113.0312730  91.1008420  12.0844700 112.6376120  91.9483630  12.2917480
 112.3431130  90.4634790  12.2753340 119.6057780  91.1843390  15.1541440
 118.9156100  90.9915590  15.7887530 120.3490080  91.4678030  15.6865740
 110.3329780  89.0236880   6.1174780 110.0442830  89.5939740   6.8299760
 111.0775540  88.5441330   6.4806010 121.8820750  95.0241830   7.9895360
 121.1501870  95.5328640   8.3385460 121.4845090  94.2071810   7.6884140
 118.3198140  91.6996030   6.3947850 118.3234200  91.2585980   5.5452390
 119.2149260  92.0213360   6.5019670 114.1700520  91.5822520   5.3542060
 113.8300570  92.0597750   6.1109110 113.4077840  91.1287640   4.9943160
 122.3446660  90.4775510   7.4018300 122.3619400  90.9284160   8.2460150
 122.0962240  89.5781150   7.6151740 118.6206110  95.7597810   8.1413260
 118.9876240  95.2856380   8.8874600 118.4311170  96.6339380   8.4821600
 111.4846600  90.5041500   4.2706730 111.1993520  90.1397170   5.1085350
 111.4225460  89.7721960   3.6569870 116.4105480  94.8006450  10.4597470
 116.1062550  95.6798430  10.6847830 117.3651940  94.8606240  10.4954910
 112.4669210  95.6409190  11.6068830 112.1084150  96.3063040  12.1942170
 112.1723770  94.8092740  11.9781450 115.6682330  96.0993430  14.4908380
 115.3682470  96.2450610  13.5936200 116.4393570  95.5398720  14.3981770
 114.0423850  87.3711310   2.8234230 113.9138480  87.3629210   3.7719150
 113.2185870  87.7094400   2.4725240 111.0417780  89.1302430  12.2840930
 110.3276300  89.3299350  12.8893540 111.4612820  88.3542000  12.6555730
 122.5356560  91.6224740  10.0342380 122.9037380  90.8019950  10.3621950
 121.6754760  91.6826630  10.4498030 117.8702620  92.8567630   2.2587820
 117.1618770  93.3253970   2.7001430 118.1547100  92.1989640   2.8933010
 119.4958550  94.2764330  10.2580350 119.9943800  94.7510150  10.9232200
 119.6381500  93.3527850  10.4650380 121.9018050  89.5818290   3.6983610
 121.7785830  89.6004420   2.7493120 122.8502610  89.6297230   3.8182010
 111.1946620  96.6725060  14.0263120 111.6985640  96.0932340  14.5979350
 110.4554040  96.9565290  14.5639490 113.2269700  94.8154650  14.9213190
 113.2675040  94.5168520  15.8298420 114.0815200  95.2162260  14.7620710
 115.1675510  93.3946750  12.8887680 114.6371970  92.9037700  12.2611020
 115.8363580  93.8230950  12.3545610 124.5375740  95.2012370  14.6568020
 125.1196510  94.4464690  14.5688500 124.7137510  95.7319810  13.8799500
 115.6547810  90.3609120  12.9684970 115.5604680  89.7429870  12.2435840
 115.0745200  91.0875410  12.7414880 118.4209250  88.9182360  10.0012360
 117.9726550  88.9406620   9.1557910 117.7874450  88.5201380  10.5982660
 121.1632700  95.5452870  12.0062640 121.2828910  94.9494010  12.7457480
 122.0226700  95.5822560  11.5863940 123.5020600  96.0990060  10.5825150
 122.9755820  96.6232680   9.9790290 123.8451940  96.7317450  11.2134880
 117.9301470  92.0874220  13.2638460 118.5201160  91.7790070  13.9516280
 117.1121710  91.6153970  13.4198360 122.7494900  91.7040030  13.4971480
 122.0610420  91.0421570  13.4321470 123.4700920  91.2578300  13.9419940
 111.2580360  96.0606320   4.3973310 110.6029200  95.7917960   3.7533010
 112.0958310  95.9510800   3.9475290 112.2956290  96.4458890   8.9376650
 112.6629330  96.3586290   9.8172670 111.7267110  95.6825440   8.8383510
 111.8472290  93.3567980  12.8435070 110.9528340  93.3234740  13.1828780
 112.3869840  93.5554770  13.6086320 112.3512000  87.6316310   7.1918290
 112.9988190  87.0813690   6.7513450 112.7713840  87.8859460   8.0134100
 112.1044000  87.7871980   9.9343610 111.7558820  88.2435800  10.7001790
 111.7731700  86.8929110  10.0166040 119.6168820  88.9783860  13.4563030
 119.5557710  89.5705690  14.2058440 120.5569200  88.8709820  13.3113290
 122.2543380  88.6353920  13.0955320 122.8683790  88.9533210  12.4336400
 122.7992940  88.1502510  13.7151180 112.7764640  87.3148180  13.2094380
 113.3247630  87.1336230  12.4460490 112.8419950  86.5242290  13.7450690
 122.9951420  87.1986060   9.4224610 122.1211260  87.5321170   9.2197540
 122.8862170  86.7259240  10.2476480 123.9023400  89.4056930  10.8066330
 123.5736760  88.5908690  10.4268060 124.8505700  89.3626740  10.6832020
 120.7426240  88.1155900   8.3617520 119.9598030  88.5901400   8.6414280
 120.4489170  87.2110730   8.2530700 118.6280460  90.5342650   3.8733550
 117.8154970  90.1599540   3.5329430 119.1322100  89.7787730   4.1754740
 123.1305440  87.1985100   5.1116620 123.7334810  87.7705310   5.5865140
 122.3898430  87.7624540   4.8890520 116.6529640  88.6842570   2.4778600
 116.0232380  87.9829880   2.6448730 116.1134780  89.4446700   2.2611760
 116.7785200  87.9626550  14.9131090 116.4969470  88.4660150  14.1491910
 117.1604900  87.1648300  14.5473220 123.3800660  87.3780130  15.4911560
 123.2666110  87.6974740  16.3863080 124.1970400  87.7792640  15.1948840
 122.2858810  76.6229110  98.5007240 122.2052860  75.7083720  98.2298950
 121.8723230  77.1196180  97.7946950 120.4176850  78.4008130 100.3816510
 119.6418950  77.9208570 100.6715080 121.0689780  77.7213780 100.2072670
 114.4342680  78.7127940 101.2592270 113.6027560  78.4576650 101.6588780
 115.0423660  78.7838710 101.9950190 124.4384280  82.8068320  99.1615640
 123.9765810  82.0355560  99.4902810 125.2509830  82.8334390  99.6668090
 114.4143940  82.7468030 101.4550290 114.7171980  81.8565770 101.2760510
 115.1587530  83.3038250 101.2272540 112.8434630  73.6729830  95.0434660
 111.9551330  74.0145800  94.9414540 113.1275820  73.4730150  94.1515490
 110.8067640  76.2735480 100.9274360 111.3783750  75.5057680 100.9278000
 110.8069180  76.5724240 100.0180970 120.6647590  85.0926330  98.7819630
 120.0459030  85.5483830  98.2114070 121.5199370  85.2477790  98.3809330
 119.8585840  81.0765320 100.3886670 119.7894120  80.1355260 100.2275800
 120.6205700  81.1666730 100.9609240 112.0492510  71.6819840 102.7143290
 111.8695350  70.7845590 102.9946050 111.6472590  72.2291710 103.3890240
 120.8891010  73.8835700 100.6155600 121.2655830  73.0107580 100.5029270
 120.7910520  74.2194400  99.7246040 115.0196020  72.2561330  96.0773040
 115.1262770  73.1565060  96.3841800 114.1088380  72.2079300  95.7867690
 112.6679180  74.1780340 101.3225630 113.3489290  74.4418710 101.9413030
 112.3527230  73.3381210 101.6563640 116.8603750  75.2247700 100.4098220
 117.3681970  75.7228670 101.0503240 117.3916990  74.4482900 100.2337580
 115.1439850  69.8646260 104.6761640 115.1458290  70.3818650 103.8707540
 114.3144160  69.3876440 104.6531570 121.5310940  79.9765570  96.1751540
 120.9128210  80.4415020  95.6114260 122.0434190  80.6693050  96.5921050
 116.3942700  79.5041440 102.8535140 116.0612080  80.1310360 103.4956210
 116.5709380  80.0303320 102.0736810 124.9076610  73.3186520 100.3211480
 124.2032180  73.6071410 100.9014590 125.2688770  74.1286630  99.9611040
 114.8255180  71.5756220 102.6832090 115.1671990  72.4198270 102.3885960
 113.8870990  71.7239960 102.7997430 115.6061800  81.4722240 104.6684320
 116.2235800  82.1473320 104.3868770 114.7454920  81.8810220 104.5771820
 110.8994140  80.6622100  93.5491170 110.5222120  81.1509200  92.8176070
 111.1567210  81.3347380  94.1797700 118.5083070  69.0638490  99.0076680
 118.8158050  68.5085380  98.2912180 117.5783770  69.1982950  98.8249670
 124.0598130  84.7805780 101.2984140 124.0725290  84.3768070 100.4306400
 123.5073350  85.5553070 101.1945570 123.4583570  79.6835620 102.6266750
 123.8752360  79.4695730 101.7920210 124.1823390  79.9408410 103.1975370
 120.8963830  77.1287320  95.7436800 119.9693110  77.0624700  95.9725270
 121.0488650  78.0667450  95.6292040 120.8832910  73.4004320  92.7403960
 119.9436580  73.5618280  92.8256420 121.2016170  74.1190000  92.1939950
 124.9261120  78.6907620  96.2472050 124.3073540  78.3527170  95.5998350
 124.9085570  78.0467380  96.9551240 124.3687680  74.8692160 103.6637860
 123.9558860  75.6945870 103.9177850 123.6363630  74.2837200 103.4714220
 116.5020470  77.6552060  98.5256530 116.0977470  76.9429310  98.0302430
 116.5883590  77.3105300  99.4144570 116.9702170  81.3419620 100.6895740
 116.6730460  80.7365090 100.0103520 117.9201990  81.3796930 100.5785100
 115.2149090  74.4295270 102.3055570 115.7663680  74.5390610 101.5308820
 115.7292600  74.8032870 103.0210800 125.0587780  84.9151490 104.3518840
 124.5818340  85.7223680 104.1591450 124.3749570  84.2629820 104.5045050
 123.1025820  77.9294430  93.2544800 123.5419100  77.0916860  93.1082620
 123.8154240  78.5623830  93.3408940 121.2121200  82.8690500  97.2226040
 121.6517110  83.6114830  96.8081430 121.1508090  83.1117070  98.1465000
 113.2025100  76.5497040  96.0263180 113.0822700  77.2759130  95.4144450
 112.8925990  75.7799950  95.5491090 110.8410470  79.7212180 101.8331820
 110.9190890  79.8560950 100.8887540 111.4552150  79.0128070 102.0259940
 112.0858100  81.4212370  98.2438000 111.6786180  81.5626960  97.3891600
 112.9771110  81.1372530  98.0409210 123.8791380  85.8559620  94.5789050
 123.7192520  85.5662560  95.4770880 123.7138090  85.0799750  94.0434280
 116.3579760  85.6358150  96.3560670 116.1822240  84.7193690  96.1428470
 115.5035500  85.9945440  96.5958470 123.5817510  83.3647180  93.1387050
 122.8882670  83.3624470  92.4789330 124.3240370  82.9406500  92.7081220
 123.1467440  84.9909890  97.2135540 123.6024390  84.2099270  97.5274160
 123.4859960  85.7016710  97.7576720 115.6688760  69.8932110  99.4086850
 115.2256910  70.6741650  99.0771370 116.2273750  70.2162000 100.1157790
 118.7847580  69.5142810  94.2892680 118.1601760  69.5102680  95.0145990
 118.6977700  68.6473770  93.8928650 117.7064660  70.4379440 101.2676450
 118.0036990  71.3442270 101.1868470 118.2550220  69.9498220 100.6536020
 115.4602980  75.0165680  97.1368100 115.2343900  74.8002850  98.0414720
 114.6795510  75.4494140  96.7914070 122.6900740  75.0229050  95.7358750
 122.0909630  75.7464850  95.5522370 123.2380350  74.9605830  94.9535200
 121.2965610  73.6592590  97.7662030 121.6895180  73.9764790  96.9530720
 121.6582460  72.7804470  97.8806550 110.3329780  70.2493390  99.9892230
 110.0442830  70.8196250 100.7017210 111.0775540  69.7697840 100.3523460
 110.5200010  74.1913510  91.1994950 110.4374680  75.1344270  91.3409940
 110.1683070  74.0488420  90.3207300 121.8820750  76.2498340 101.8612810
 121.1501870  76.7585150 102.2102910 121.4845090  75.4328320 101.5601590
 118.3198140  72.9252540 100.2665300 118.3234200  72.4842490  99.4169840
 119.2149260  73.2469870 100.3737120 114.1700520  72.8079030  99.2259510
 113.8300570  73.2854260  99.9826560 113.4077840  72.3544150  98.8660610
 118.3818290  73.9264620  93.2572060 118.5031110  73.8851100  94.2057880
 117.9966800  74.7888770  93.1018790 122.3446660  71.7032020 101.2735750
 122.3619400  72.1540670 102.1177600 122.0962240  70.8037660 101.4869190
 117.3939790  76.2365760  92.6555360 116.8256690  75.7884010  92.0291270
 118.1028790  76.5958540  92.1220510 118.6206110  76.9854320 102.0130710
 118.9876240  76.5112890 102.7592050 118.4311170  77.8595890 102.3539050
 111.4846600  71.7298010  98.1424180 111.1993520  71.3653680  98.9802800
 111.4225460  70.9978470  97.5287320 116.4105480  76.0262960 104.3314920
 116.1062550  76.9054940 104.5565280 117.3651940  76.0862750 104.3672360
 114.9387270  80.2323950  94.9281770 114.1649530  79.6921570  94.7680490
 115.6681900  79.7130560  94.5899530 121.1585190  70.6227270  94.8637550
 120.3449800  70.1240440  94.7882860 120.9647140  71.4625520  94.4473900
 123.8733580  74.9946920  93.1599710 124.7613200  75.3064150  92.9851050
 123.8438670  74.1219170  92.7680290 114.9824670  79.9004330  98.5660580
 115.5003340  79.0972590  98.5117470 114.5308690  79.8383470  99.4077410
 119.8694170  81.1670610  93.8387880 120.2109870  81.9112840  93.3431200
 119.0406880  81.4801730  94.2012710 122.7521580  80.4886450  99.2033390
 123.1045400  79.8914580  98.5434760 121.8683910  80.1630680  99.3741640
 118.8384860  81.2484140  96.6103800 119.5255990  81.7953350  96.9911390
 118.0517280  81.7924870  96.6453410 110.9777260  76.8656960  92.1020880
 111.8472110  77.1481760  92.3856800 110.4867580  77.6792830  91.9869690
 118.1412070  78.2530170  96.2229160 118.5974850  79.0635420  96.4489350
 117.7900280  77.9353310  97.0547650 120.4444680  83.7636510 103.4521460
 121.0886900  83.9695890 104.1294880 120.8074120  83.0024910 102.9992310
 114.0423850  68.5967820  96.6951680 113.9138480  68.5885720  97.6436600
 113.2185870  68.9350910  96.3442690 121.7176760  81.7668860 102.1698910
 122.3598990  81.0662020 102.2831080 122.2426110  82.5467300 101.9895800
 111.3448510  86.0784340  92.6682510 111.7046150  86.6773680  92.0139780
 111.2040850  86.6244230  93.4417540 117.3617130  83.4615540  93.4856180
 117.3527230  84.1945230  92.8700690 116.4415490  83.2147120  93.5783140
 112.9623770  78.6830430  94.2302940 112.3551720  79.4229330  94.2398240
 113.4373120  78.7729790  93.4041140 122.5356560  72.8481250 103.9059830
 122.9037380  72.0276460 104.2339400 121.6754760  72.9083140 104.3215480
 120.3476730  83.5243780  92.1481370 120.4488710  83.3207770  91.2183350
 119.4478470  83.2702060  92.3529150 117.8702620  74.0824140  96.1305270
 117.1618770  74.5510480  96.5718880 118.1547100  73.4246150  96.7650460
 119.4958550  75.5020840 104.1297800 119.9943800  75.9766660 104.7949650
 119.6381500  74.5784360 104.3367830 121.9018050  70.8074800  97.5701060
 121.7785830  70.8260930  96.6210570 122.8502610  70.8553740  97.6899460
 118.9894840  86.0430100  96.8429040 119.2436340  86.0051490  95.9208410
 118.0407320  85.9163430  96.8357290 116.0737640  72.3909220  93.5055980
 116.9228170  72.8279370  93.4396170 115.7068910  72.7029480  94.3328040
 114.9729060  78.6441580  91.9791510 115.7392330  78.5322940  92.5416940
 115.0503750  77.9479550  91.3268280 113.6675820  76.0766650  92.6624400
 113.7479410  75.1294160  92.7741800 114.5595570  76.4073530  92.7685060
 114.4690530  86.2262040  99.7658940 115.2053010  85.6777500 100.0367510
 114.8531450  87.0918050  99.6264930 111.3536010  82.2935610  95.6400450
 110.4275790  82.5356750  95.6305860 111.8192440  83.1209870  95.5185200
 117.5792840  85.3992350  91.5884510 118.3721450  85.6881180  91.1366300
 117.0597190  84.9684520  90.9096990 118.0970240  80.6195760  91.4526860
 117.9920880  80.0048110  92.1788240 117.9294460  80.0961650  90.6689870
 121.3372970  79.6815790  92.0568850 120.7883070  80.1285090  92.7011590
 121.9592230  79.1765040  92.5806520 117.0048090  78.6406710  93.9534150
 117.4264510  78.4746580  94.7965540 117.1298930  77.8306940  93.4589290
 119.5175730  77.6644320  91.2011250 120.0381390  76.9493340  90.8352400
 120.1644130  78.3030190  91.5011760 118.4209250  70.1438870 103.8729810
 117.9726550  70.1663130 103.0275360 117.7874450  69.7457890 104.4700110
 118.8268800  79.0393200 104.4942250 119.2456910  79.8825930 104.3218490
 117.9077430  79.1765240 104.2649030 115.9006990  74.7139940  90.8992310
 115.6996050  73.8507300  91.2605650 115.7299040  74.6273300  89.9613910
 123.3795300  69.5248170  93.4279190 123.6597590  68.6816070  93.7838610
 122.6061030  69.7571280  93.9417940 114.6989790  71.8140560  90.8870190
 115.0015690  71.8207990  89.9789340 115.4384380  71.4638420  91.3837850
 117.9174720  70.7575180  91.8726390 117.5696720  70.0799170  91.2928840
 118.1187490  70.2964690  92.6869780 120.0823760  85.7455930  93.4912990
 120.9774550  86.0840900  93.5131750 120.1141390  85.0235340  92.8637270
 113.7219920  81.1182980  91.7199990 114.1594790  81.6612650  92.3757570
 114.2067650  80.2929930  91.7296330 110.9365720  83.9072010  99.1720250
 111.2668730  83.0393070  98.9398890 111.3656720  84.1130530 100.0025210
 115.5327640  82.2381020  96.8322220 115.2323180  82.1145990  97.7326130
 115.4265130  81.3789610  96.4237950 111.4255930  84.7742600 101.9101880
 110.9886920  84.9543400 102.7426030 111.9933610  85.5317220 101.7683600
 111.2580360  77.2862830  98.2690760 110.6029200  77.0174470  97.6250460
 112.0958310  77.1767310  97.8192740 124.2070800  72.0804120  92.4909250
 124.6255680  71.8935100  91.6505910 123.9006860  71.2283170  92.8012180
 112.2956290  77.6715400 102.8094100 112.6629330  77.5842800 103.6890120
 111.7267110  76.9081950 102.7100960 110.4718440  74.4961760  94.2116090
 109.5682520  74.7591960  94.0367750 110.9559060  74.7672930  93.4316050
 113.0145650  73.5527300  92.1210470 113.7237350  73.1310520  91.6357750
 112.2985590  73.6202530  91.4893820 112.6619810  69.6066630  91.1613120
 113.3847940  70.1475570  91.4794340 112.9344330  69.3330050  90.2854660
 112.3512000  68.8572820 101.0635740 112.9988190  68.3070200 100.6230900
 112.7713840  69.1115970 101.8851550 112.1044000  69.0128490 103.8061060
 111.7558820  69.4692310 104.5719240 111.7731700  68.1185620 103.8883490
 117.4114400  83.7407680 103.5723970 117.1705760  84.0082240 102.6854490
 118.3517040  83.9113410 103.6274830 122.9951420  68.4242570 103.2942060
 122.1211260  68.7577680 103.0914990 122.8862170  67.9515750 104.1193930
 123.9023400  70.6313440 104.6783780 123.5736760  69.8165200 104.2985510
 124.8505700  70.5883250 104.5549470 113.1808630  82.4968720 104.0420070
 112.4542690  81.8774010 103.9746020 113.2417780  82.8909330 103.1718150
 116.7853730  84.7113720 100.8269480 117.3018750  84.1001080 100.3017740
 117.4351110  85.2142500 101.3180490 119.5249230  85.6022210 101.6538460
 119.8127040  85.3476510 100.7771470 120.0372450  85.0499570 102.2444030
 120.7426240  69.3412410 102.2334970 119.9598030  69.8157910 102.5131730
 120.4489170  68.4367240 102.1248150 111.4638630  85.8143110  97.2516830
 111.2960670  85.1813790  97.9498720 110.5973140  86.0202510  96.9011020
 112.0866650  69.6459890  94.7548690 112.8446010  69.7588770  94.1812720
 111.6243820  70.4829090  94.7092120 118.6280460  71.7599160  97.7451000
 117.8154970  71.3856050  97.4046880 119.1322100  71.0044240  98.0472190
 123.1305440  68.4241610  98.9834070 123.7334810  68.9961820  99.4582590
 122.3898430  68.9881050  98.7607970 113.0701330  84.5076340  94.6966970
 112.5448950  84.8884370  93.9928930 112.9945910  85.1327110  95.4176680
 114.4591800  70.1723940  93.2950660 114.9884560  69.3853740  93.1658610
 115.0920120  70.8515130  93.5286190 116.6529640  69.9099080  96.3496050
 116.0232380  69.2086390  96.5166180 116.1134780  70.6703210  96.1329210
 115.6694300  86.4558720  93.5716220 116.4013120  86.1718000  93.0240110
 115.9287970  86.2172000  94.4615600 114.8309090  82.5723450  93.5762550
 114.2017970  83.0408550  94.1248380 114.9456920  81.7272670  94.0108740
 122.2858810  76.6229110  79.7263750 122.2052860  75.7083720  79.4555460
 121.8723230  77.1196180  79.0203460 120.4176850  78.4008130  81.6073020
 119.6418950  77.9208570  81.8971590 121.0689780  77.7213780  81.4329180
 114.4342680  78.7127940  82.4848780 113.6027560  78.4576650  82.8845290
 115.0423660  78.7838710  83.2206700 124.4384280  82.8068320  80.3872150
 123.9765810  82.0355560  80.7159320 125.2509830  82.8334390  80.8924600
 114.4143940  82.7468030  82.6806800 114.7171980  81.8565770  82.5017020
 115.1587530  83.3038250  82.4529050 112.8434630  73.6729830  76.2691170
 111.9551330  74.0145800  76.1671050 113.1275820  73.4730150  75.3772000
 110.8067640  76.2735480  82.1530870 111.3783750  75.5057680  82.1534510
 110.8069180  76.5724240  81.2437480 120.6647590  85.0926330  80.0076140
 120.0459030  85.5483830  79.4370580 121.5199370  85.2477790  79.6065840
 119.8585840  81.0765320  81.6143180 119.7894120  80.1355260  81.4532310
 120.6205700  81.1666730  82.1865750 112.0492510  71.6819840  83.9399800
 111.8695350  70.7845590  84.2202560 111.6472590  72.2291710  84.6146750
 120.8891010  73.8835700  81.8412110 121.2655830  73.0107580  81.7285780
 120.7910520  74.2194400  80.9502550 115.0196020  72.2561330  77.3029550
 115.1262770  73.1565060  77.6098310 114.1088380  72.2079300  77.0124200
 112.6679180  74.1780340  82.5482140 113.3489290  74.4418710  83.1669540
 112.3527230  73.3381210  82.8820150 116.8603750  75.2247700  81.6354730
 117.3681970  75.7228670  82.2759750 117.3916990  74.4482900  81.4594090
 115.1439850  69.8646260  85.9018150 115.1458290  70.3818650  85.0964050
 114.3144160  69.3876440  85.8788080 121.5310940  79.9765570  77.4008050
 120.9128210  80.4415020  76.8370770 122.0434190  80.6693050  77.8177560
 116.3942700  79.5041440  84.0791650 116.0612080  80.1310360  84.7212720
 116.5709380  80.0303320  83.2993320 124.9076610  73.3186520  81.5467990
 124.2032180  73.6071410  82.1271100 125.2688770  74.1286630  81.1867550
 114.8255180  71.5756220  83.9088600 115.1671990  72.4198270  83.6142470
 113.8870990  71.7239960  84.0253940 115.6061800  81.4722240  85.8940830
 116.2235800  82.1473320  85.6125280 114.7454920  81.8810220  85.8028330
 110.8994140  80.6622100  74.7747680 110.5222120  81.1509200  74.0432580
 111.1567210  81.3347380  75.4054210 118.5083070  69.0638490  80.2333190
 118.8158050  68.5085380  79.5168690 117.5783770  69.1982950  80.0506180
 124.0598130  84.7805780  82.5240650 124.0725290  84.3768070  81.6562910
 123.5073350  85.5553070  82.4202080 123.4583570  79.6835620  83.8523260
 123.8752360  79.4695730  83.0176720 124.1823390  79.9408410  84.4231880
 120.8963830  77.1287320  76.9693310 119.9693110  77.0624700  77.1981780
 121.0488650  78.0667450  76.8548550 120.8832910  73.4004320  73.9660470
 119.9436580  73.5618280  74.0512930 121.2016170  74.1190000  73.4196460
 124.9261120  78.6907620  77.4728560 124.3073540  78.3527170  76.8254860
 124.9085570  78.0467380  78.1807750 124.3687680  74.8692160  84.8894370
 123.9558860  75.6945870  85.1434360 123.6363630  74.2837200  84.6970730
 116.5020470  77.6552060  79.7513040 116.0977470  76.9429310  79.2558940
 116.5883590  77.3105300  80.6401080 116.9702170  81.3419620  81.9152250
 116.6730460  80.7365090  81.2360030 117.9201990  81.3796930  81.8041610
 115.2149090  74.4295270  83.5312080 115.7663680  74.5390610  82.7565330
 115.7292600  74.8032870  84.2467310 125.0587780  84.9151490  85.5775350
 124.5818340  85.7223680  85.3847960 124.3749570  84.2629820  85.7301560
 116.0620600  81.0801310  88.5660050 115.1649130  81.3041280  88.8133450
 116.0873470  81.2036250  87.6171450 123.1025820  77.9294430  74.4801310
 123.5419100  77.0916860  74.3339130 123.8154240  78.5623830  74.5665450
 114.8891820  77.9514630  87.1417420 114.7499590  78.8237430  87.5104820
 114.0073180  77.6087440  86.9965360 121.2121200  82.8690500  78.4482550
 121.6517110  83.6114830  78.0337940 121.1508090  83.1117070  79.3721510
 116.6872170  83.8936330  89.3502570 116.6587600  84.2979280  88.4831000
 116.5237140  82.9646690  89.1874170 113.2025100  76.5497040  77.2519690
 113.0822700  77.2759130  76.6400960 112.8925990  75.7799950  76.7747600
 110.8410470  79.7212180  83.0588330 110.9190890  79.8560950  82.1144050
 111.4552150  79.0128070  83.2516450 112.0858100  81.4212370  79.4694510
 111.6786180  81.5626960  78.6148110 112.9771110  81.1372530  79.2665720
 121.9036980  85.5704280  86.3761560 122.4181650  85.4812290  87.1783990
 121.0606060  85.9163980  86.6689470 123.8791380  85.8559620  75.8045560
 123.7192520  85.5662560  76.7027390 123.7138090  85.0799750  75.2690790
 116.3579760  85.6358150  77.5817180 116.1822240  84.7193690  77.3684980
 115.5035500  85.9945440  77.8214980 123.5817510  83.3647180  74.3643560
 122.8882670  83.3624470  73.7045840 124.3240370  82.9406500  73.9337730
 123.1467440  84.9909890  78.4392050 123.6024390  84.2099270  78.7530670
 123.4859960  85.7016710  78.9833230 110.8969990  80.7626350  85.5982790
 111.0601030  80.2931710  84.7802160 111.3622440  80.2549910  86.2631630
 115.6688760  69.8932110  80.6343360 115.2256910  70.6741650  80.3027880
 116.2273750  70.2162000  81.3414300 119.9558570  72.7600630  86.2378680
 119.4937940  72.9683650  87.0498620 119.5536680  71.9459980  85.9349350
 124.9563080  73.9809580  87.3675340 124.1056670  73.6815330  87.6884410
 124.7964870  74.2251590  86.4559160 122.0512790  75.4811330  89.4674130
 122.3766200  74.6475080  89.1276360 122.8393120  76.0039850  89.6152460
 118.7847580  69.5142810  75.5149190 118.1601760  69.5102680  76.2402500
 118.6977700  68.6473770  75.1185160 117.7064660  70.4379440  82.4932960
 118.0036990  71.3442270  82.4124980 118.2550220  69.9498220  81.8792530
 115.4602980  75.0165680  78.3624610 115.2343900  74.8002850  79.2671230
 114.6795510  75.4494140  78.0170580 122.6900740  75.0229050  76.9615260
 122.0909630  75.7464850  76.7778880 123.2380350  74.9605830  76.1791710
 117.9002190  75.9151260  89.0284880 117.8045790  74.9745990  88.8785280
 118.7434170  76.1366330  88.6332950 121.2965610  73.6592590  78.9918540
 121.6895180  73.9764790  78.1787230 121.6582460  72.7804470  79.1063060
 113.0312730  72.3264930  87.1818660 112.6376120  73.1740140  87.3891440
 112.3431130  71.6891300  87.3727300 119.6057780  72.4099900  90.2515400
 118.9156100  72.2172100  90.8861490 120.3490080  72.6934540  90.7839700
 110.3329780  70.2493390  81.2148740 110.0442830  70.8196250  81.9273720
 111.0775540  69.7697840  81.5779970 110.5200010  74.1913510  72.4251460
 110.4374680  75.1344270  72.5666450 110.1683070  74.0488420  71.5463810
 121.8820750  76.2498340  83.0869320 121.1501870  76.7585150  83.4359420
 121.4845090  75.4328320  82.7858100 118.3198140  72.9252540  81.4921810
 118.3234200  72.4842490  80.6426350 119.2149260  73.2469870  81.5993630
 114.1700520  72.8079030  80.4516020 113.8300570  73.2854260  81.2083070
 113.4077840  72.3544150  80.0917120 118.3818290  73.9264620  74.4828570
 118.5031110  73.8851100  75.4314390 117.9966800  74.7888770  74.3275300
 122.3446660  71.7032020  82.4992260 122.3619400  72.1540670  83.3434110
 122.0962240  70.8037660  82.7125700 117.3939790  76.2365760  73.8811870
 116.8256690  75.7884010  73.2547780 118.1028790  76.5958540  73.3477020
 112.4708970  80.1377780  87.7578600 112.0863760  79.4971450  88.3561560
 112.7821160  80.8413900  88.3273330 118.6206110  76.9854320  83.2387220
 118.9876240  76.5112890  83.9848560 118.4311170  77.8595890  83.5795560
 111.4846600  71.7298010  79.3680690 111.1993520  71.3653680  80.2059310
 111.4225460  70.9978470  78.7543830 116.4105480  76.0262960  85.5571430
 116.1062550  76.9054940  85.7821790 117.3651940  76.0862750  85.5928870
 114.9387270  80.2323950  76.1538280 114.1649530  79.6921570  75.9937000
 115.6681900  79.7130560  75.8156040 121.1585190  70.6227270  76.0894060
 120.3449800  70.1240440  76.0139370 120.9647140  71.4625520  75.6730410
 121.0794050  79.2998370  87.8333670 121.0131360  78.3794040  87.5791260
 120.4499190  79.3973810  88.5478310 123.8733580  74.9946920  74.3856220
 124.7613200  75.3064150  74.2107560 123.8438670  74.1219170  73.9936800
 114.9824670  79.9004330  79.7917090 115.5003340  79.0972590  79.7373980
 114.5308690  79.8383470  80.6333920 119.8694170  81.1670610  75.0644390
 120.2109870  81.9112840  74.5687710 119.0406880  81.4801730  75.4269220
 112.4669210  76.8665700  86.7042790 112.1084150  77.5319550  87.2916130
 112.1723770  76.0349250  87.0755410 115.6682330  77.3249940  89.5882340
 115.3682470  77.4707120  88.6910160 116.4393570  76.7655230  89.4955730
 121.0110780  82.1218940  87.5837470 121.0255320  81.1899900  87.3656380
 120.3035880  82.2078700  88.2227240 122.7521580  80.4886450  80.4289900
 123.1045400  79.8914580  79.7691270 121.8683910  80.1630680  80.5998150
 118.8384860  81.2484140  77.8360310 119.5255990  81.7953350  78.2167900
 118.0517280  81.7924870  77.8709920 110.9777260  76.8656960  73.3277390
 111.8472110  77.1481760  73.6113310 110.4867580  77.6792830  73.2126200
 118.1412070  78.2530170  77.4485670 118.5974850  79.0635420  77.6745860
 117.7900280  77.9353310  78.2804160 120.4444680  83.7636510  84.6777970
 121.0886900  83.9695890  85.3551390 120.8074120  83.0024910  84.2248820
 114.0423850  68.5967820  77.9208190 113.9138480  68.5885720  78.8693110
 113.2185870  68.9350910  77.5699200 121.7176760  81.7668860  83.3955420
 122.3598990  81.0662020  83.5087590 122.2426110  82.5467300  83.2152310
 123.4914380  82.5663760  86.5991480 123.8270620  83.1530450  87.2769400
 122.5714720  82.4356470  86.8289270 111.3448510  86.0784340  73.8939020
 111.7046150  86.6773680  73.2396290 111.2040850  86.6244230  74.6674050
 111.0417780  70.3558940  87.3814890 110.3276300  70.5555860  87.9867500
 111.4612820  69.5798510  87.7529690 111.3290370  84.3439200  88.3681420
 111.4381490  83.4033940  88.2276810 110.6770930  84.6093950  87.7195150
 119.3202960  82.6155090  89.7679540 118.9999830  81.8964330  90.3125230
 118.6461320  83.2910160  89.8415600 117.3617130  83.4615540  74.7112690
 117.3527230  84.1945230  74.0957200 116.4415490  83.2147120  74.8039650
 112.9623770  78.6830430  75.4559450 112.3551720  79.4229330  75.4654750
 113.4373120  78.7729790  74.6297650 122.5356560  72.8481250  85.1316340
 122.9037380  72.0276460  85.4595910 121.6754760  72.9083140  85.5471990
 120.3476730  83.5243780  73.3737880 120.4488710  83.3207770  72.4439860
 119.4478470  83.2702060  73.5785660 117.8702620  74.0824140  77.3561780
 117.1618770  74.5510480  77.7975390 118.1547100  73.4246150  77.9906970
 119.4958550  75.5020840  85.3554310 119.9943800  75.9766660  86.0206160
 119.6381500  74.5784360  85.5624340 121.9018050  70.8074800  78.7957570
 121.7785830  70.8260930  77.8467080 122.8502610  70.8553740  78.9155970
 118.9894840  86.0430100  78.0685550 119.2436340  86.0051490  77.1464920
 118.0407320  85.9163430  78.0613800 116.0737640  72.3909220  74.7312490
 116.9228170  72.8279370  74.6652680 115.7068910  72.7029480  75.5584550
 114.9729060  78.6441580  73.2048020 115.7392330  78.5322940  73.7673450
 115.0503750  77.9479550  72.5524790 113.6675820  76.0766650  73.8880910
 113.7479410  75.1294160  73.9998310 114.5595570  76.4073530  73.9941570
 114.4690530  86.2262040  80.9915450 115.2053010  85.6777500  81.2624020
 114.8531450  87.0918050  80.8521440 111.3536010  82.2935610  76.8656960
 110.4275790  82.5356750  76.8562370 111.8192440  83.1209870  76.7441710
 113.4748810  85.4108110  90.1801030 114.2761540  85.7320160  90.5936430
 112.9600630  85.0503690  90.9020940 117.5792840  85.3992350  72.8141020
 118.3721450  85.6881180  72.3622810 117.0597190  84.9684520  72.1353500
 122.3113440  81.5187980  90.1276440 121.7051600  81.5419580  89.3872190
 122.0067550  80.7871020  90.6643690 123.7413810  85.2468270  88.7385850
 124.6935560  85.1626290  88.6886090 123.5942030  85.9109980  89.4119640
 111.1946620  77.8981570  89.1237080 111.6985640  77.3188850  89.6953310
 110.4554040  78.1821800  89.6613450 118.0970240  80.6195760  72.6783370
 117.9920880  80.0048110  73.4044750 117.9294460  80.0961650  71.8946380
 118.2484560  79.3052560  88.6572600 117.4830230  79.8737560  88.5727270
 118.4300520  79.0128770  87.7640830 121.3372970  79.6815790  73.2825360
 120.7883070  80.1285090  73.9268100 121.9592230  79.1765040  73.8063030
 113.2269700  76.0411160  90.0187150 113.2675040  75.7425030  90.9272380
 114.0815200  76.4418770  89.8594670 117.0048090  78.6406710  75.1790660
 117.4264510  78.4746580  76.0222050 117.1298930  77.8306940  74.6845800
 115.1675510  74.6203260  87.9861640 114.6371970  74.1294210  87.3584980
 115.8363580  75.0487460  87.4519570 119.5175730  77.6644320  72.4267760
 120.0381390  76.9493340  72.0608910 120.1644130  78.3030190  72.7268270
 124.0653570  79.0872720  87.7502830 124.4794590  79.2417800  88.5993250
 123.1304570  79.2127940  87.9128610 124.5375740  76.4268880  89.7541980
 125.1196510  75.6721200  89.6662460 124.7137510  76.9576320  88.9773460
 115.6547810  71.5865630  88.0658930 115.5604680  70.9686380  87.3409800
 115.0745200  72.3131920  87.8388840 118.4209250  70.1438870  85.0986320
 117.9726550  70.1663130  84.2531870 117.7874450  69.7457890  85.6956620
 118.8268800  79.0393200  85.7198760 119.2456910  79.8825930  85.5475000
 117.9077430  79.1765240  85.4905540 121.1632700  76.7709380  87.1036600
 121.2828910  76.1750520  87.8431440 122.0226700  76.8079070  86.6837900
 123.5020600  77.3246570  85.6799110 122.9755820  77.8489190  85.0764250
 123.8451940  77.9573960  86.3108840 115.9006990  74.7139940  72.1248820
 115.6996050  73.8507300  72.4862160 115.7299040  74.6273300  71.1870420
 116.6776220  85.3446210  86.8356490 116.1397310  86.0692270  86.5165190
 116.9310180  84.8676550  86.0453830 117.9301470  73.3130730  88.3612420
 118.5201160  73.0046580  89.0490240 117.1121710  72.8410480  88.5172320
 122.7494900  72.9296540  88.5945440 122.0610420  72.2678080  88.5295430
 123.4700920  72.4834810  89.0393900 123.3795300  69.5248170  74.6535700
 123.6597590  68.6816070  75.0095120 122.6061030  69.7571280  75.1674450
 114.6989790  71.8140560  72.1126700 115.0015690  71.8207990  71.2045850
 115.4384380  71.4638420  72.6094360 119.5338430  86.5797420  87.0943140
 119.4597130  87.4832560  87.4015510 118.6317270  86.2609320  87.0665210
 117.9174720  70.7575180  73.0982900 117.5696720  70.0799170  72.5185350
 118.1187490  70.2964690  73.9126290 120.0823760  85.7455930  74.7169500
 120.9774550  86.0840900  74.7388260 120.1141390  85.0235340  74.0893780
 113.7219920  81.1182980  72.9456500 114.1594790  81.6612650  73.6014080
 114.2067650  80.2929930  72.9552840 110.9365720  83.9072010  80.3976760
 111.2668730  83.0393070  80.1655400 111.3656720  84.1130530  81.2281720
 115.5327640  82.2381020  78.0578730 115.2323180  82.1145990  78.9582640
 115.4265130  81.3789610  77.6494460 111.4255930  84.7742600  83.1358390
 110.9886920  84.9543400  83.9682540 111.9933610  85.5317220  82.9940110
 111.2580360  77.2862830  79.4947270 110.6029200  77.0174470  78.8506970
 112.0958310  77.1767310  79.0449250 124.2070800  72.0804120  73.7165760
 124.6255680  71.8935100  72.8762420 123.9006860  71.2283170  74.0268690
 112.2956290  77.6715400  84.0350610 112.6629330  77.5842800  84.9146630
 111.7267110  76.9081950  83.9357470 111.8472290  74.5824490  87.9409030
 110.9528340  74.5491250  88.2802740 112.3869840  74.7811280  88.7060280
 110.4718440  74.4961760  75.4372600 109.5682520  74.7591960  75.2624260
 110.9559060  74.7672930  74.6572560 113.0145650  73.5527300  73.3466980
 113.7237350  73.1310520  72.8614260 112.2985590  73.6202530  72.7150330
 112.6619810  69.6066630  72.3869630 113.3847940  70.1475570  72.7050850
 112.9344330  69.3330050  71.5111170 112.3512000  68.8572820  82.2892250
 112.9988190  68.3070200  81.8487410 112.7713840  69.1115970  83.1108060
 112.1044000  69.0128490  85.0317570 111.7558820  69.4692310  85.7975750
 111.7731700  68.1185620  85.1140000 113.7108370  82.1848090  89.1970760
 113.6678000  81.8141000  90.0785220 113.8419380  83.1225660  89.3372580
 117.4114400  83.7407680  84.7980480 117.1705760  84.0082240  83.9111000
 118.3517040  83.9113410  84.8531340 119.6168820  70.2040370  88.5536990
 119.5557710  70.7962200  89.3032400 120.5569200  70.0966330  88.4087250
 122.2543380  69.8610430  88.1929280 122.8683790  70.1789720  87.5310360
 122.7992940  69.3759020  88.8125140 112.7764640  68.5404690  88.3068340
 113.3247630  68.3592740  87.5434450 112.8419950  67.7498800  88.8424650
 113.5496400  85.1310340  86.3168540 112.9556720  84.9995040  87.0558580
 113.5420240  84.2948480  85.8510640 122.9951420  68.4242570  84.5198570
 122.1211260  68.7577680  84.3171500 122.8862170  67.9515750  85.3450440
 123.9023400  70.6313440  85.9040290 123.5736760  69.8165200  85.5242020
 124.8505700  70.5883250  85.7805980 113.1808630  82.4968720  85.2676580
 112.4542690  81.8774010  85.2002530 113.2417780  82.8909330  84.3974660
 116.7853730  84.7113720  82.0525990 117.3018750  84.1001080  81.5274250
 117.4351110  85.2142500  82.5437000 119.5249230  85.6022210  82.8794970
 119.8127040  85.3476510  82.0027980 120.0372450  85.0499570  83.4700540
 120.7426240  69.3412410  83.4591480 119.9598030  69.8157910  83.7388240
 120.4489170  68.4367240  83.3504660 111.4638630  85.8143110  78.4773340
 111.2960670  85.1813790  79.1755230 110.5973140  86.0202510  78.1267530
 112.0866650  69.6459890  75.9805200 112.8446010  69.7588770  75.4069230
 111.6243820  70.4829090  75.9348630 118.6280460  71.7599160  78.9707510
 117.8154970  71.3856050  78.6303390 119.1322100  71.0044240  79.2728700
 123.1305440  68.4241610  80.2090580 123.7334810  68.9961820  80.6839100
 122.3898430  68.9881050  79.9864480 113.0701330  84.5076340  75.9223480
 112.5448950  84.8884370  75.2185440 112.9945910  85.1327110  76.6433190
 114.4591800  70.1723940  74.5207170 114.9884560  69.3853740  74.3915120
 115.0920120  70.8515130  74.7542700 116.6529640  69.9099080  77.5752560
 116.0232380  69.2086390  77.7422690 116.1134780  70.6703210  77.3585720
 119.5921590  86.5238310  90.2463170 120.5188900  86.2882580  90.2899130
 119.5772020  87.3510310  89.7649200 116.7785200  69.1883060  90.0105050
 116.4969470  69.6916660  89.2465870 117.1604900  68.3904810  89.6447180
 115.6694300  86.4558720  74.7972730 116.4013120  86.1718000  74.2496620
 115.9287970  86.2172000  75.6872110 114.8309090  82.5723450  74.8019060
 114.2017970  83.0408550  75.3504890 114.9456920  81.7272670  75.2365250
 123.3800660  68.6036640  90.5885520 123.2666110  68.9231250  91.4837040
 124.1970400  69.0049150  90.2922800 122.2858810  76.6229110  60.9520260
 122.2052860  75.7083720  60.6811970 121.8723230  77.1196180  60.2459970
 120.4176850  78.4008130  62.8329530 119.6418950  77.9208570  63.1228100
 121.0689780  77.7213780  62.6585690 114.4342680  78.7127940  63.7105290
 113.6027560  78.4576650  64.1101800 115.0423660  78.7838710  64.4463210
 124.4384280  82.8068320  61.6128660 123.9765810  82.0355560  61.9415830
 125.2509830  82.8334390  62.1181110 114.4143940  82.7468030  63.9063310
 114.7171980  81.8565770  63.7273530 115.1587530  83.3038250  63.6785560
 112.8434630  73.6729830  57.4947680 111.9551330  74.0145800  57.3927560
 113.1275820  73.4730150  56.6028510 110.8067640  76.2735480  63.3787380
 111.3783750  75.5057680  63.3791020 110.8069180  76.5724240  62.4693990
 120.6647590  85.0926330  61.2332650 120.0459030  85.5483830  60.6627090
 121.5199370  85.2477790  60.8322350 119.8585840  81.0765320  62.8399690
 119.7894120  80.1355260  62.6788820 120.6205700  81.1666730  63.4122260
 112.0492510  71.6819840  65.1656310 111.8695350  70.7845590  65.4459070
 111.6472590  72.2291710  65.8403260 120.8891010  73.8835700  63.0668620
 121.2655830  73.0107580  62.9542290 120.7910520  74.2194400  62.1759060
 115.0196020  72.2561330  58.5286060 115.1262770  73.1565060  58.8354820
 114.1088380  72.2079300  58.2380710 112.6679180  74.1780340  63.7738650
 113.3489290  74.4418710  64.3926050 112.3527230  73.3381210  64.1076660
 116.8603750  75.2247700  62.8611240 117.3681970  75.7228670  63.5016260
 117.3916990  74.4482900  62.6850600 115.1439850  69.8646260  67.1274660
 115.1458290  70.3818650  66.3220560 114.3144160  69.3876440  67.1044590
 121.5310940  79.9765570  58.6264560 120.9128210  80.4415020  58.0627280
 122.0434190  80.6693050  59.0434070 116.3942700  79.5041440  65.3048160
 116.0612080  80.1310360  65.9469230 116.5709380  80.0303320  64.5249830
 124.9076610  73.3186520  62.7724500 124.2032180  73.6071410  63.3527610
 125.2688770  74.1286630  62.4124060 114.8255180  71.5756220  65.1345110
 115.1671990  72.4198270  64.8398980 113.8870990  71.7239960  65.2510450
 115.6061800  81.4722240  67.1197340 116.2235800  82.1473320  66.8381790
 114.7454920  81.8810220  67.0284840 110.8994140  80.6622100  56.0004190
 110.5222120  81.1509200  55.2689090 111.1567210  81.3347380  56.6310720
 118.5083070  69.0638490  61.4589700 118.8158050  68.5085380  60.7425200
 117.5783770  69.1982950  61.2762690 124.0598130  84.7805780  63.7497160
 124.0725290  84.3768070  62.8819420 123.5073350  85.5553070  63.6458590
 123.4583570  79.6835620  65.0779770 123.8752360  79.4695730  64.2433230
 124.1823390  79.9408410  65.6488390 120.8963830  77.1287320  58.1949820
 119.9693110  77.0624700  58.4238290 121.0488650  78.0667450  58.0805060
 120.8832910  73.4004320  55.1916980 119.9436580  73.5618280  55.2769440
 121.2016170  74.1190000  54.6452970 124.9261120  78.6907620  58.6985070
 124.3073540  78.3527170  58.0511370 124.9085570  78.0467380  59.4064260
 124.3687680  74.8692160  66.1150880 123.9558860  75.6945870  66.3690870
 123.6363630  74.2837200  65.9227240 116.5020470  77.6552060  60.9769550
 116.0977470  76.9429310  60.4815450 116.5883590  77.3105300  61.8657590
 116.9702170  81.3419620  63.1408760 116.6730460  80.7365090  62.4616540
 117.9201990  81.3796930  63.0298120 115.2149090  74.4295270  64.7568590
 115.7663680  74.5390610  63.9821840 115.7292600  74.8032870  65.4723820
 125.0587780  84.9151490  66.8031860 124.5818340  85.7223680  66.6104470
 124.3749570  84.2629820  66.9558070 116.0620600  81.0801310  69.7916560
 115.1649130  81.3041280  70.0389960 116.0873470  81.2036250  68.8427960
 123.1025820  77.9294430  55.7057820 123.5419100  77.0916860  55.5595640
 123.8154240  78.5623830  55.7921960 114.8891820  77.9514630  68.3673930
 114.7499590  78.8237430  68.7361330 114.0073180  77.6087440  68.2221870
 121.2121200  82.8690500  59.6739060 121.6517110  83.6114830  59.2594450
 121.1508090  83.1117070  60.5978020 116.6872170  83.8936330  70.5759080
 116.6587600  84.2979280  69.7087510 116.5237140  82.9646690  70.4130680
 113.2025100  76.5497040  58.4776200 113.0822700  77.2759130  57.8657470
 112.8925990  75.7799950  58.0004110 110.8410470  79.7212180  64.2844840
 110.9190890  79.8560950  63.3400560 111.4552150  79.0128070  64.4772960
 112.0858100  81.4212370  60.6951020 111.6786180  81.5626960  59.8404620
 112.9771110  81.1372530  60.4922230 121.9036980  85.5704280  67.6018070
 122.4181650  85.4812290  68.4040500 121.0606060  85.9163980  67.8945980
 123.8791380  85.8559620  57.0302070 123.7192520  85.5662560  57.9283900
 123.7138090  85.0799750  56.4947300 116.3579760  85.6358150  58.8073690
 116.1822240  84.7193690  58.5941490 115.5035500  85.9945440  59.0471490
 123.5817510  83.3647180  55.5900070 122.8882670  83.3624470  54.9302350
 124.3240370  82.9406500  55.1594240 123.1467440  84.9909890  59.6648560
 123.6024390  84.2099270  59.9787180 123.4859960  85.7016710  60.2089740
 110.8969990  80.7626350  66.8239300 111.0601030  80.2931710  66.0058670
 111.3622440  80.2549910  67.4888140 115.6688760  69.8932110  61.8599870
 115.2256910  70.6741650  61.5284390 116.2273750  70.2162000  62.5670810
 119.9558570  72.7600630  67.4635190 119.4937940  72.9683650  68.2755130
 119.5536680  71.9459980  67.1605860 124.9563080  73.9809580  68.5931850
 124.1056670  73.6815330  68.9140920 124.7964870  74.2251590  67.6815670
 122.0512790  75.4811330  70.6930640 122.3766200  74.6475080  70.3532870
 122.8393120  76.0039850  70.8408970 118.7847580  69.5142810  56.7405700
 118.1601760  69.5102680  57.4659010 118.6977700  68.6473770  56.3441670
 117.7064660  70.4379440  63.7189470 118.0036990  71.3442270  63.6381490
 118.2550220  69.9498220  63.1049040 115.4602980  75.0165680  59.5881120
 115.2343900  74.8002850  60.4927740 114.6795510  75.4494140  59.2427090
 122.6900740  75.0229050  58.1871770 122.0909630  75.7464850  58.0035390
 123.2380350  74.9605830  57.4048220 117.9002190  75.9151260  70.2541390
 117.8045790  74.9745990  70.1041790 118.7434170  76.1366330  69.8589460
 121.2965610  73.6592590  60.2175050 121.6895180  73.9764790  59.4043740
 121.6582460  72.7804470  60.3319570 113.0312730  72.3264930  68.4075170
 112.6376120  73.1740140  68.6147950 112.3431130  71.6891300  68.5983810
 119.6057780  72.4099900  71.4771910 118.9156100  72.2172100  72.1118000
 120.3490080  72.6934540  72.0096210 110.3329780  70.2493390  62.4405250
 110.0442830  70.8196250  63.1530230 111.0775540  69.7697840  62.8036480
 110.5200010  74.1913510  53.6507970 110.4374680  75.1344270  53.7922960
 110.1683070  74.0488420  52.7720320 121.8820750  76.2498340  64.3125830
 121.1501870  76.7585150  64.6615930 121.4845090  75.4328320  64.0114610
 118.3198140  72.9252540  62.7178320 118.3234200  72.4842490  61.8682860
 119.2149260  73.2469870  62.8250140 114.1700520  72.8079030  61.6772530
 113.8300570  73.2854260  62.4339580 113.4077840  72.3544150  61.3173630
 118.3818290  73.9264620  55.7085080 118.5031110  73.8851100  56.6570900
 117.9966800  74.7888770  55.5531810 122.3446660  71.7032020  63.7248770
 122.3619400  72.1540670  64.5690620 122.0962240  70.8037660  63.9382210
 117.3939790  76.2365760  55.1068380 116.8256690  75.7884010  54.4804290
 118.1028790  76.5958540  54.5733530 112.4708970  80.1377780  68.9835110
 112.0863760  79.4971450  69.5818070 112.7821160  80.8413900  69.5529840
 118.6206110  76.9854320  64.4643730 118.9876240  76.5112890  65.2105070
 118.4311170  77.8595890  64.8052070 111.4846600  71.7298010  60.5937200
 111.1993520  71.3653680  61.4315820 111.4225460  70.9978470  59.9800340
 116.4105480  76.0262960  66.7827940 116.1062550  76.9054940  67.0078300
 117.3651940  76.0862750  66.8185380 114.9387270  80.2323950  57.3794790
 114.1649530  79.6921570  57.2193510 115.6681900  79.7130560  57.0412550
 121.1585190  70.6227270  57.3150570 120.3449800  70.1240440  57.2395880
 120.9647140  71.4625520  56.8986920 121.0794050  79.2998370  69.0590180
 121.0131360  78.3794040  68.8047770 120.4499190  79.3973810  69.7734820
 123.8733580  74.9946920  55.6112730 124.7613200  75.3064150  55.4364070
 123.8438670  74.1219170  55.2193310 114.9824670  79.9004330  61.0173600
 115.5003340  79.0972590  60.9630490 114.5308690  79.8383470  61.8590430
 119.8694170  81.1670610  56.2900900 120.2109870  81.9112840  55.7944220
 119.0406880  81.4801730  56.6525730 112.4669210  76.8665700  67.9299300
 112.1084150  77.5319550  68.5172640 112.1723770  76.0349250  68.3011920
 115.6682330  77.3249940  70.8138850 115.3682470  77.4707120  69.9166670
 116.4393570  76.7655230  70.7212240 121.0110780  82.1218940  68.8093980
 121.0255320  81.1899900  68.5912890 120.3035880  82.2078700  69.4483750
 122.7521580  80.4886450  61.6546410 123.1045400  79.8914580  60.9947780
 121.8683910  80.1630680  61.8254660 118.8384860  81.2484140  59.0616820
 119.5255990  81.7953350  59.4424410 118.0517280  81.7924870  59.0966430
 110.9777260  76.8656960  54.5533900 111.8472110  77.1481760  54.8369820
 110.4867580  77.6792830  54.4382710 118.1412070  78.2530170  58.6742180
 118.5974850  79.0635420  58.9002370 117.7900280  77.9353310  59.5060670
 120.4444680  83.7636510  65.9034480 121.0886900  83.9695890  66.5807900
 120.8074120  83.0024910  65.4505330 114.0423850  68.5967820  59.1464700
 113.9138480  68.5885720  60.0949620 113.2185870  68.9350910  58.7955710
 121.7176760  81.7668860  64.6211930 122.3598990  81.0662020  64.7344100
 122.2426110  82.5467300  64.4408820 123.4914380  82.5663760  67.8247990
 123.8270620  83.1530450  68.5025910 122.5714720  82.4356470  68.0545780
 111.3448510  86.0784340  55.1195530 111.7046150  86.6773680  54.4652800
 111.2040850  86.6244230  55.8930560 111.0417780  70.3558940  68.6071400
 110.3276300  70.5555860  69.2124010 111.4612820  69.5798510  68.9786200
 111.3290370  84.3439200  69.5937930 111.4381490  83.4033940  69.4533320
 110.6770930  84.6093950  68.9451660 119.3202960  82.6155090  70.9936050
 118.9999830  81.8964330  71.5381740 118.6461320  83.2910160  71.0672110
 117.3617130  83.4615540  55.9369200 117.3527230  84.1945230  55.3213710
 116.4415490  83.2147120  56.0296160 112.9623770  78.6830430  56.6815960
 112.3551720  79.4229330  56.6911260 113.4373120  78.7729790  55.8554160
 122.5356560  72.8481250  66.3572850 122.9037380  72.0276460  66.6852420
 121.6754760  72.9083140  66.7728500 120.3476730  83.5243780  54.5994390
 120.4488710  83.3207770  53.6696370 119.4478470  83.2702060  54.8042170
 117.8702620  74.0824140  58.5818290 117.1618770  74.5510480  59.0231900
 118.1547100  73.4246150  59.2163480 119.4958550  75.5020840  66.5810820
 119.9943800  75.9766660  67.2462670 119.6381500  74.5784360  66.7880850
 121.9018050  70.8074800  60.0214080 121.7785830  70.8260930  59.0723590
 122.8502610  70.8553740  60.1412480 118.9894840  86.0430100  59.2942060
 119.2436340  86.0051490  58.3721430 118.0407320  85.9163430  59.2870310
 116.0737640  72.3909220  55.9569000 116.9228170  72.8279370  55.8909190
 115.7068910  72.7029480  56.7841060 114.9729060  78.6441580  54.4304530
 115.7392330  78.5322940  54.9929960 115.0503750  77.9479550  53.7781300
 113.6675820  76.0766650  55.1137420 113.7479410  75.1294160  55.2254820
 114.5595570  76.4073530  55.2198080 114.4690530  86.2262040  62.2171960
 115.2053010  85.6777500  62.4880530 114.8531450  87.0918050  62.0777950
 111.3536010  82.2935610  58.0913470 110.4275790  82.5356750  58.0818880
 111.8192440  83.1209870  57.9698220 113.4748810  85.4108110  71.4057540
 114.2761540  85.7320160  71.8192940 112.9600630  85.0503690  72.1277450
 117.5792840  85.3992350  54.0397530 118.3721450  85.6881180  53.5879320
 117.0597190  84.9684520  53.3610010 122.3113440  81.5187980  71.3532950
 121.7051600  81.5419580  70.6128700 122.0067550  80.7871020  71.8900200
 123.7413810  85.2468270  69.9642360 124.6935560  85.1626290  69.9142600
 123.5942030  85.9109980  70.6376150 111.1946620  77.8981570  70.3493590
 111.6985640  77.3188850  70.9209820 110.4554040  78.1821800  70.8869960
 118.0970240  80.6195760  53.9039880 117.9920880  80.0048110  54.6301260
 117.9294460  80.0961650  53.1202890 118.2484560  79.3052560  69.8829110
 117.4830230  79.8737560  69.7983780 118.4300520  79.0128770  68.9897340
 121.3372970  79.6815790  54.5081870 120.7883070  80.1285090  55.1524610
 121.9592230  79.1765040  55.0319540 113.2269700  76.0411160  71.2443660
 113.2675040  75.7425030  72.1528890 114.0815200  76.4418770  71.0851180
 117.0048090  78.6406710  56.4047170 117.4264510  78.4746580  57.2478560
 117.1298930  77.8306940  55.9102310 115.1675510  74.6203260  69.2118150
 114.6371970  74.1294210  68.5841490 115.8363580  75.0487460  68.6776080
 119.5175730  77.6644320  53.6524270 120.0381390  76.9493340  53.2865420
 120.1644130  78.3030190  53.9524780 124.0653570  79.0872720  68.9759340
 124.4794590  79.2417800  69.8249760 123.1304570  79.2127940  69.1385120
 124.5375740  76.4268880  70.9798490 125.1196510  75.6721200  70.8918970
 124.7137510  76.9576320  70.2029970 115.6547810  71.5865630  69.2915440
 115.5604680  70.9686380  68.5666310 115.0745200  72.3131920  69.0645350
 118.4209250  70.1438870  66.3242830 117.9726550  70.1663130  65.4788380
 117.7874450  69.7457890  66.9213130 118.8268800  79.0393200  66.9455270
 119.2456910  79.8825930  66.7731510 117.9077430  79.1765240  66.7162050
 121.1632700  76.7709380  68.3293110 121.2828910  76.1750520  69.0687950
 122.0226700  76.8079070  67.9094410 123.5020600  77.3246570  66.9055620
 122.9755820  77.8489190  66.3020760 123.8451940  77.9573960  67.5365350
 115.9006990  74.7139940  53.3505330 115.6996050  73.8507300  53.7118670
 115.7299040  74.6273300  52.4126930 116.6776220  85.3446210  68.0613000
 116.1397310  86.0692270  67.7421700 116.9310180  84.8676550  67.2710340
 117.9301470  73.3130730  69.5868930 118.5201160  73.0046580  70.2746750
 117.1121710  72.8410480  69.7428830 122.7494900  72.9296540  69.8201950
 122.0610420  72.2678080  69.7551940 123.4700920  72.4834810  70.2650410
 123.3795300  69.5248170  55.8792210 123.6597590  68.6816070  56.2351630
 122.6061030  69.7571280  56.3930960 114.6989790  71.8140560  53.3383210
 115.0015690  71.8207990  52.4302360 115.4384380  71.4638420  53.8350870
 119.5338430  86.5797420  68.3199650 119.4597130  87.4832560  68.6272020
 118.6317270  86.2609320  68.2921720 117.9174720  70.7575180  54.3239410
 117.5696720  70.0799170  53.7441860 118.1187490  70.2964690  55.1382800
 120.0823760  85.7455930  55.9426010 120.9774550  86.0840900  55.9644770
 120.1141390  85.0235340  55.3150290 113.7219920  81.1182980  54.1713010
 114.1594790  81.6612650  54.8270590 114.2067650  80.2929930  54.1809350
 110.9365720  83.9072010  61.6233270 111.2668730  83.0393070  61.3911910
 111.3656720  84.1130530  62.4538230 115.5327640  82.2381020  59.2835240
 115.2323180  82.1145990  60.1839150 115.4265130  81.3789610  58.8750970
 111.4255930  84.7742600  64.3614900 110.9886920  84.9543400  65.1939050
 111.9933610  85.5317220  64.2196620 111.2580360  77.2862830  60.7203780
 110.6029200  77.0174470  60.0763480 112.0958310  77.1767310  60.2705760
 124.2070800  72.0804120  54.9422270 124.6255680  71.8935100  54.1018930
 123.9006860  71.2283170  55.2525200 112.2956290  77.6715400  65.2607120
 112.6629330  77.5842800  66.1403140 111.7267110  76.9081950  65.1613980
 111.8472290  74.5824490  69.1665540 110.9528340  74.5491250  69.5059250
 112.3869840  74.7811280  69.9316790 110.4718440  74.4961760  56.6629110
 109.5682520  74.7591960  56.4880770 110.9559060  74.7672930  55.8829070
 113.0145650  73.5527300  54.5723490 113.7237350  73.1310520  54.0870770
 112.2985590  73.6202530  53.9406840 112.6619810  69.6066630  53.6126140
 113.3847940  70.1475570  53.9307360 112.9344330  69.3330050  52.7367680
 112.3512000  68.8572820  63.5148760 112.9988190  68.3070200  63.0743920
 112.7713840  69.1115970  64.3364570 112.1044000  69.0128490  66.2574080
 111.7558820  69.4692310  67.0232260 111.7731700  68.1185620  66.3396510
 113.7108370  82.1848090  70.4227270 113.6678000  81.8141000  71.3041730
 113.8419380  83.1225660  70.5629090 117.4114400  83.7407680  66.0236990
 117.1705760  84.0082240  65.1367510 118.3517040  83.9113410  66.0787850
 119.6168820  70.2040370  69.7793500 119.5557710  70.7962200  70.5288910
 120.5569200  70.0966330  69.6343760 122.2543380  69.8610430  69.4185790
 122.8683790  70.1789720  68.7566870 122.7992940  69.3759020  70.0381650
 112.7764640  68.5404690  69.5324850 113.3247630  68.3592740  68.7690960
 112.8419950  67.7498800  70.0681160 113.5496400  85.1310340  67.5425050
 112.9556720  84.9995040  68.2815090 113.5420240  84.2948480  67.0767150
 122.9951420  68.4242570  65.7455080 122.1211260  68.7577680  65.5428010
 122.8862170  67.9515750  66.5706950 123.9023400  70.6313440  67.1296800
 123.5736760  69.8165200  66.7498530 124.8505700  70.5883250  67.0062490
 113.1808630  82.4968720  66.4933090 112.4542690  81.8774010  66.4259040
 113.2417780  82.8909330  65.6231170 116.7853730  84.7113720  63.2782500
 117.3018750  84.1001080  62.7530760 117.4351110  85.2142500  63.7693510
 119.5249230  85.6022210  64.1051480 119.8127040  85.3476510  63.2284490
 120.0372450  85.0499570  64.6957050 120.7426240  69.3412410  64.6847990
 119.9598030  69.8157910  64.9644750 120.4489170  68.4367240  64.5761170
 111.4638630  85.8143110  59.7029850 111.2960670  85.1813790  60.4011740
 110.5973140  86.0202510  59.3524040 112.0866650  69.6459890  57.2061710
 112.8446010  69.7588770  56.6325740 111.6243820  70.4829090  57.1605140
 118.6280460  71.7599160  60.1964020 117.8154970  71.3856050  59.8559900
 119.1322100  71.0044240  60.4985210 123.1305440  68.4241610  61.4347090
 123.7334810  68.9961820  61.9095610 122.3898430  68.9881050  61.2120990
 113.0701330  84.5076340  57.1479990 112.5448950  84.8884370  56.4441950
 112.9945910  85.1327110  57.8689700 114.4591800  70.1723940  55.7463680
 114.9884560  69.3853740  55.6171630 115.0920120  70.8515130  55.9799210
 116.6529640  69.9099080  58.8009070 116.0232380  69.2086390  58.9679200
 116.1134780  70.6703210  58.5842230 119.5921590  86.5238310  71.4719680
 120.5188900  86.2882580  71.5155640 119.5772020  87.3510310  70.9905710
 116.7785200  69.1883060  71.2361560 116.4969470  69.6916660  70.4722380
 117.1604900  68.3904810  70.8703690 115.6694300  86.4558720  56.0229240
 116.4013120  86.1718000  55.4753130 115.9287970  86.2172000  56.9128620
 114.8309090  82.5723450  56.0275570 114.2017970  83.0408550  56.5761400
 114.9456920  81.7272670  56.4621760 123.3800660  68.6036640  71.8142030
 123.2666110  68.9231250  72.7093550 124.1970400  69.0049150  71.5179310
 122.2858810  76.6229110  42.1776770 122.2052860  75.7083720  41.9068480
 121.8723230  77.1196180  41.4716480 120.4176850  78.4008130  44.0586040
 119.6418950  77.9208570  44.3484610 121.0689780  77.7213780  43.8842200
 114.4342680  78.7127940  44.9361800 113.6027560  78.4576650  45.3358310
 115.0423660  78.7838710  45.6719720 124.4384280  82.8068320  42.8385170
 123.9765810  82.0355560  43.1672340 125.2509830  82.8334390  43.3437620
 114.4143940  82.7468030  45.1319820 114.7171980  81.8565770  44.9530040
 115.1587530  83.3038250  44.9042070 112.8434630  73.6729830  38.7204190
 111.9551330  74.0145800  38.6184070 113.1275820  73.4730150  37.8285020
 110.8067640  76.2735480  44.6043890 111.3783750  75.5057680  44.6047530
 110.8069180  76.5724240  43.6950500 120.6647590  85.0926330  42.4589160
 120.0459030  85.5483830  41.8883600 121.5199370  85.2477790  42.0578860
 119.8585840  81.0765320  44.0656200 119.7894120  80.1355260  43.9045330
 120.6205700  81.1666730  44.6378770 112.0492510  71.6819840  46.3912820
 111.8695350  70.7845590  46.6715580 111.6472590  72.2291710  47.0659770
 120.8891010  73.8835700  44.2925130 121.2655830  73.0107580  44.1798800
 120.7910520  74.2194400  43.4015570 115.0196020  72.2561330  39.7542570
 115.1262770  73.1565060  40.0611330 114.1088380  72.2079300  39.4637220
 112.6679180  74.1780340  44.9995160 113.3489290  74.4418710  45.6182560
 112.3527230  73.3381210  45.3333170 116.8603750  75.2247700  44.0867750
 117.3681970  75.7228670  44.7272770 117.3916990  74.4482900  43.9107110
 115.1439850  69.8646260  48.3531170 115.1458290  70.3818650  47.5477070
 114.3144160  69.3876440  48.3301100 121.5310940  79.9765570  39.8521070
 120.9128210  80.4415020  39.2883790 122.0434190  80.6693050  40.2690580
 116.3942700  79.5041440  46.5304670 116.0612080  80.1310360  47.1725740
 116.5709380  80.0303320  45.7506340 124.9076610  73.3186520  43.9981010
 124.2032180  73.6071410  44.5784120 125.2688770  74.1286630  43.6380570
 114.8255180  71.5756220  46.3601620 115.1671990  72.4198270  46.0655490
 113.8870990  71.7239960  46.4766960 115.6061800  81.4722240  48.3453850
 116.2235800  82.1473320  48.0638300 114.7454920  81.8810220  48.2541350
 110.8994140  80.6622100  37.2260700 110.5222120  81.1509200  36.4945600
 111.1567210  81.3347380  37.8567230 118.5083070  69.0638490  42.6846210
 118.8158050  68.5085380  41.9681710 117.5783770  69.1982950  42.5019200
 124.0598130  84.7805780  44.9753670 124.0725290  84.3768070  44.1075930
 123.5073350  85.5553070  44.8715100 123.4583570  79.6835620  46.3036280
 123.8752360  79.4695730  45.4689740 124.1823390  79.9408410  46.8744900
 120.8963830  77.1287320  39.4206330 119.9693110  77.0624700  39.6494800
 121.0488650  78.0667450  39.3061570 120.8832910  73.4004320  36.4173490
 119.9436580  73.5618280  36.5025950 121.2016170  74.1190000  35.8709480
 124.9261120  78.6907620  39.9241580 124.3073540  78.3527170  39.2767880
 124.9085570  78.0467380  40.6320770 124.3687680  74.8692160  47.3407390
 123.9558860  75.6945870  47.5947380 123.6363630  74.2837200  47.1483750
 116.5020470  77.6552060  42.2026060 116.0977470  76.9429310  41.7071960
 116.5883590  77.3105300  43.0914100 116.9702170  81.3419620  44.3665270
 116.6730460  80.7365090  43.6873050 117.9201990  81.3796930  44.2554630
 115.2149090  74.4295270  45.9825100 115.7663680  74.5390610  45.2078350
 115.7292600  74.8032870  46.6980330 125.0587780  84.9151490  48.0288370
 124.5818340  85.7223680  47.8360980 124.3749570  84.2629820  48.1814580
 116.0620600  81.0801310  51.0173070 115.1649130  81.3041280  51.2646470
 116.0873470  81.2036250  50.0684470 123.1025820  77.9294430  36.9314330
 123.5419100  77.0916860  36.7852150 123.8154240  78.5623830  37.0178470
 114.8891820  77.9514630  49.5930440 114.7499590  78.8237430  49.9617840
 114.0073180  77.6087440  49.4478380 121.2121200  82.8690500  40.8995570
 121.6517110  83.6114830  40.4850960 121.1508090  83.1117070  41.8234530
 116.6872170  83.8936330  51.8015590 116.6587600  84.2979280  50.9344020
 116.5237140  82.9646690  51.6387190 113.2025100  76.5497040  39.7032710
 113.0822700  77.2759130  39.0913980 112.8925990  75.7799950  39.2260620
 110.8410470  79.7212180  45.5101350 110.9190890  79.8560950  44.5657070
 111.4552150  79.0128070  45.7029470 112.0858100  81.4212370  41.9207530
 111.6786180  81.5626960  41.0661130 112.9771110  81.1372530  41.7178740
 121.9036980  85.5704280  48.8274580 122.4181650  85.4812290  49.6297010
 121.0606060  85.9163980  49.1202490 123.8791380  85.8559620  38.2558580
 123.7192520  85.5662560  39.1540410 123.7138090  85.0799750  37.7203810
 116.3579760  85.6358150  40.0330200 116.1822240  84.7193690  39.8198000
 115.5035500  85.9945440  40.2728000 123.5817510  83.3647180  36.8156580
 122.8882670  83.3624470  36.1558860 124.3240370  82.9406500  36.3850750
 123.1467440  84.9909890  40.8905070 123.6024390  84.2099270  41.2043690
 123.4859960  85.7016710  41.4346250 110.8969990  80.7626350  48.0495810
 111.0601030  80.2931710  47.2315180 111.3622440  80.2549910  48.7144650
 115.6688760  69.8932110  43.0856380 115.2256910  70.6741650  42.7540900
 116.2273750  70.2162000  43.7927320 119.9558570  72.7600630  48.6891700
 119.4937940  72.9683650  49.5011640 119.5536680  71.9459980  48.3862370
 124.9563080  73.9809580  49.8188360 124.1056670  73.6815330  50.1397430
 124.7964870  74.2251590  48.9072180 122.0512790  75.4811330  51.9187150
 122.3766200  74.6475080  51.5789380 122.8393120  76.0039850  52.0665480
 118.7847580  69.5142810  37.9662210 118.1601760  69.5102680  38.6915520
 118.6977700  68.6473770  37.5698180 117.7064660  70.4379440  44.9445980
 118.0036990  71.3442270  44.8638000 118.2550220  69.9498220  44.3305550
 115.4602980  75.0165680  40.8137630 115.2343900  74.8002850  41.7184250
 114.6795510  75.4494140  40.4683600 122.6900740  75.0229050  39.4128280
 122.0909630  75.7464850  39.2291900 123.2380350  74.9605830  38.6304730
 117.9002190  75.9151260  51.4797900 117.8045790  74.9745990  51.3298300
 118.7434170  76.1366330  51.0845970 121.2965610  73.6592590  41.4431560
 121.6895180  73.9764790  40.6300250 121.6582460  72.7804470  41.5576080
 113.0312730  72.3264930  49.6331680 112.6376120  73.1740140  49.8404460
 112.3431130  71.6891300  49.8240320 119.6057780  72.4099900  52.7028420
 118.9156100  72.2172100  53.3374510 120.3490080  72.6934540  53.2352720
 110.3329780  70.2493390  43.6661760 110.0442830  70.8196250  44.3786740
 111.0775540  69.7697840  44.0292990 110.5200010  74.1913510  34.8764480
 110.4374680  75.1344270  35.0179470 110.1683070  74.0488420  33.9976830
 121.8820750  76.2498340  45.5382340 121.1501870  76.7585150  45.8872440
 121.4845090  75.4328320  45.2371120 118.3198140  72.9252540  43.9434830
 118.3234200  72.4842490  43.0939370 119.2149260  73.2469870  44.0506650
 114.1700520  72.8079030  42.9029040 113.8300570  73.2854260  43.6596090
 113.4077840  72.3544150  42.5430140 118.3818290  73.9264620  36.9341590
 118.5031110  73.8851100  37.8827410 117.9966800  74.7888770  36.7788320
 122.3446660  71.7032020  44.9505280 122.3619400  72.1540670  45.7947130
 122.0962240  70.8037660  45.1638720 117.3939790  76.2365760  36.3324890
 116.8256690  75.7884010  35.7060800 118.1028790  76.5958540  35.7990040
 112.4708970  80.1377780  50.2091620 112.0863760  79.4971450  50.8074580
 112.7821160  80.8413900  50.7786350 118.6206110  76.9854320  45.6900240
 118.9876240  76.5112890  46.4361580 118.4311170  77.8595890  46.0308580
 111.4846600  71.7298010  41.8193710 111.1993520  71.3653680  42.6572330
 111.4225460  70.9978470  41.2056850 116.4105480  76.0262960  48.0084450
 116.1062550  76.9054940  48.2334810 117.3651940  76.0862750  48.0441890
 114.9387270  80.2323950  38.6051300 114.1649530  79.6921570  38.4450020
 115.6681900  79.7130560  38.2669060 121.1585190  70.6227270  38.5407080
 120.3449800  70.1240440  38.4652390 120.9647140  71.4625520  38.1243430
 121.0794050  79.2998370  50.2846690 121.0131360  78.3794040  50.0304280
 120.4499190  79.3973810  50.9991330 123.8733580  74.9946920  36.8369240
 124.7613200  75.3064150  36.6620580 123.8438670  74.1219170  36.4449820
 114.9824670  79.9004330  42.2430110 115.5003340  79.0972590  42.1887000
 114.5308690  79.8383470  43.0846940 119.8694170  81.1670610  37.5157410
 120.2109870  81.9112840  37.0200730 119.0406880  81.4801730  37.8782240
 112.4669210  76.8665700  49.1555810 112.1084150  77.5319550  49.7429150
 112.1723770  76.0349250  49.5268430 115.6682330  77.3249940  52.0395360
 115.3682470  77.4707120  51.1423180 116.4393570  76.7655230  51.9468750
 121.0110780  82.1218940  50.0350490 121.0255320  81.1899900  49.8169400
 120.3035880  82.2078700  50.6740260 122.7521580  80.4886450  42.8802920
 123.1045400  79.8914580  42.2204290 121.8683910  80.1630680  43.0511170
 118.8384860  81.2484140  40.2873330 119.5255990  81.7953350  40.6680920
 118.0517280  81.7924870  40.3222940 110.9777260  76.8656960  35.7790410
 111.8472110  77.1481760  36.0626330 110.4867580  77.6792830  35.6639220
 118.1412070  78.2530170  39.8998690 118.5974850  79.0635420  40.1258880
 117.7900280  77.9353310  40.7317180 120.4444680  83.7636510  47.1290990
 121.0886900  83.9695890  47.8064410 120.8074120  83.0024910  46.6761840
 114.0423850  68.5967820  40.3721210 113.9138480  68.5885720  41.3206130
 113.2185870  68.9350910  40.0212220 121.7176760  81.7668860  45.8468440
 122.3598990  81.0662020  45.9600610 122.2426110  82.5467300  45.6665330
 123.4914380  82.5663760  49.0504500 123.8270620  83.1530450  49.7282420
 122.5714720  82.4356470  49.2802290 111.3448510  86.0784340  36.3452040
 111.7046150  86.6773680  35.6909310 111.2040850  86.6244230  37.1187070
 111.0417780  70.3558940  49.8327910 110.3276300  70.5555860  50.4380520
 111.4612820  69.5798510  50.2042710 111.3290370  84.3439200  50.8194440
 111.4381490  83.4033940  50.6789830 110.6770930  84.6093950  50.1708170
 119.3202960  82.6155090  52.2192560 118.9999830  81.8964330  52.7638250
 118.6461320  83.2910160  52.2928620 117.3617130  83.4615540  37.1625710
 117.3527230  84.1945230  36.5470220 116.4415490  83.2147120  37.2552670
 112.9623770  78.6830430  37.9072470 112.3551720  79.4229330  37.9167770
 113.4373120  78.7729790  37.0810670 122.5356560  72.8481250  47.5829360
 122.9037380  72.0276460  47.9108930 121.6754760  72.9083140  47.9985010
 120.3476730  83.5243780  35.8250900 120.4488710  83.3207770  34.8952880
 119.4478470  83.2702060  36.0298680 117.8702620  74.0824140  39.8074800
 117.1618770  74.5510480  40.2488410 118.1547100  73.4246150  40.4419990
 119.4958550  75.5020840  47.8067330 119.9943800  75.9766660  48.4719180
 119.6381500  74.5784360  48.0137360 121.9018050  70.8074800  41.2470590
 121.7785830  70.8260930  40.2980100 122.8502610  70.8553740  41.3668990
 118.9894840  86.0430100  40.5198570 119.2436340  86.0051490  39.5977940
 118.0407320  85.9163430  40.5126820 116.0737640  72.3909220  37.1825510
 116.9228170  72.8279370  37.1165700 115.7068910  72.7029480  38.0097570
 114.9729060  78.6441580  35.6561040 115.7392330  78.5322940  36.2186470
 115.0503750  77.9479550  35.0037810 113.6675820  76.0766650  36.3393930
 113.7479410  75.1294160  36.4511330 114.5595570  76.4073530  36.4454590
 114.4690530  86.2262040  43.4428470 115.2053010  85.6777500  43.7137040
 114.8531450  87.0918050  43.3034460 111.3536010  82.2935610  39.3169980
 110.4275790  82.5356750  39.3075390 111.8192440  83.1209870  39.1954730
 113.4748810  85.4108110  52.6314050 114.2761540  85.7320160  53.0449450
 112.9600630  85.0503690  53.3533960 117.5792840  85.3992350  35.2654040
 118.3721450  85.6881180  34.8135830 117.0597190  84.9684520  34.5866520
 122.3113440  81.5187980  52.5789460 121.7051600  81.5419580  51.8385210
 122.0067550  80.7871020  53.1156710 123.7413810  85.2468270  51.1898870
 124.6935560  85.1626290  51.1399110 123.5942030  85.9109980  51.8632660
 111.1946620  77.8981570  51.5750100 111.6985640  77.3188850  52.1466330
 110.4554040  78.1821800  52.1126470 118.0970240  80.6195760  35.1296390
 117.9920880  80.0048110  35.8557770 117.9294460  80.0961650  34.3459400
 118.2484560  79.3052560  51.1085620 117.4830230  79.8737560  51.0240290
 118.4300520  79.0128770  50.2153850 121.3372970  79.6815790  35.7338380
 120.7883070  80.1285090  36.3781120 121.9592230  79.1765040  36.2576050
 113.2269700  76.0411160  52.4700170 113.2675040  75.7425030  53.3785400
 114.0815200  76.4418770  52.3107690 117.0048090  78.6406710  37.6303680
 117.4264510  78.4746580  38.4735070 117.1298930  77.8306940  37.1358820
 115.1675510  74.6203260  50.4374660 114.6371970  74.1294210  49.8098000
 115.8363580  75.0487460  49.9032590 119.5175730  77.6644320  34.8780780
 120.0381390  76.9493340  34.5121930 120.1644130  78.3030190  35.1781290
 124.0653570  79.0872720  50.2015850 124.4794590  79.2417800  51.0506270
 123.1304570  79.2127940  50.3641630 124.5375740  76.4268880  52.2055000
 125.1196510  75.6721200  52.1175480 124.7137510  76.9576320  51.4286480
 115.6547810  71.5865630  50.5171950 115.5604680  70.9686380  49.7922820
 115.0745200  72.3131920  50.2901860 118.4209250  70.1438870  47.5499340
 117.9726550  70.1663130  46.7044890 117.7874450  69.7457890  48.1469640
 118.8268800  79.0393200  48.1711780 119.2456910  79.8825930  47.9988020
 117.9077430  79.1765240  47.9418560 121.1632700  76.7709380  49.5549620
 121.2828910  76.1750520  50.2944460 122.0226700  76.8079070  49.1350920
 123.5020600  77.3246570  48.1312130 122.9755820  77.8489190  47.5277270
 123.8451940  77.9573960  48.7621860 115.9006990  74.7139940  34.5761840
 115.6996050  73.8507300  34.9375180 115.7299040  74.6273300  33.6383440
 116.6776220  85.3446210  49.2869510 116.1397310  86.0692270  48.9678210
 116.9310180  84.8676550  48.4966850 117.9301470  73.3130730  50.8125440
 118.5201160  73.0046580  51.5003260 117.1121710  72.8410480  50.9685340
 122.7494900  72.9296540  51.0458460 122.0610420  72.2678080  50.9808450
 123.4700920  72.4834810  51.4906920 123.3795300  69.5248170  37.1048720
 123.6597590  68.6816070  37.4608140 122.6061030  69.7571280  37.6187470
 114.6989790  71.8140560  34.5639720 115.0015690  71.8207990  33.6558870
 115.4384380  71.4638420  35.0607380 119.5338430  86.5797420  49.5456160
 119.4597130  87.4832560  49.8528530 118.6317270  86.2609320  49.5178230
 117.9174720  70.7575180  35.5495920 117.5696720  70.0799170  34.9698370
 118.1187490  70.2964690  36.3639310 120.0823760  85.7455930  37.1682520
 120.9774550  86.0840900  37.1901280 120.1141390  85.0235340  36.5406800
 113.7219920  81.1182980  35.3969520 114.1594790  81.6612650  36.0527100
 114.2067650  80.2929930  35.4065860 110.9365720  83.9072010  42.8489780
 111.2668730  83.0393070  42.6168420 111.3656720  84.1130530  43.6794740
 115.5327640  82.2381020  40.5091750 115.2323180  82.1145990  41.4095660
 115.4265130  81.3789610  40.1007480 111.4255930  84.7742600  45.5871410
 110.9886920  84.9543400  46.4195560 111.9933610  85.5317220  45.4453130
 111.2580360  77.2862830  41.9460290 110.6029200  77.0174470  41.3019990
 112.0958310  77.1767310  41.4962270 124.2070800  72.0804120  36.1678780
 124.6255680  71.8935100  35.3275440 123.9006860  71.2283170  36.4781710
 112.2956290  77.6715400  46.4863630 112.6629330  77.5842800  47.3659650
 111.7267110  76.9081950  46.3870490 111.8472290  74.5824490  50.3922050
 110.9528340  74.5491250  50.7315760 112.3869840  74.7811280  51.1573300
 110.4718440  74.4961760  37.8885620 109.5682520  74.7591960  37.7137280
 110.9559060  74.7672930  37.1085580 113.0145650  73.5527300  35.7980000
 113.7237350  73.1310520  35.3127280 112.2985590  73.6202530  35.1663350
 112.6619810  69.6066630  34.8382650 113.3847940  70.1475570  35.1563870
 112.9344330  69.3330050  33.9624190 112.3512000  68.8572820  44.7405270
 112.9988190  68.3070200  44.3000430 112.7713840  69.1115970  45.5621080
 112.1044000  69.0128490  47.4830590 111.7558820  69.4692310  48.2488770
 111.7731700  68.1185620  47.5653020 113.7108370  82.1848090  51.6483780
 113.6678000  81.8141000  52.5298240 113.8419380  83.1225660  51.7885600
 117.4114400  83.7407680  47.2493500 117.1705760  84.0082240  46.3624020
 118.3517040  83.9113410  47.3044360 119.6168820  70.2040370  51.0050010
 119.5557710  70.7962200  51.7545420 120.5569200  70.0966330  50.8600270
 122.2543380  69.8610430  50.6442300 122.8683790  70.1789720  49.9823380
 122.7992940  69.3759020  51.2638160 112.7764640  68.5404690  50.7581360
 113.3247630  68.3592740  49.9947470 112.8419950  67.7498800  51.2937670
 113.5496400  85.1310340  48.7681560 112.9556720  84.9995040  49.5071600
 113.5420240  84.2948480  48.3023660 122.9951420  68.4242570  46.9711590
 122.1211260  68.7577680  46.7684520 122.8862170  67.9515750  47.7963460
 123.9023400  70.6313440  48.3553310 123.5736760  69.8165200  47.9755040
 124.8505700  70.5883250  48.2319000 113.1808630  82.4968720  47.7189600
 112.4542690  81.8774010  47.6515550 113.2417780  82.8909330  46.8487680
 116.7853730  84.7113720  44.5039010 117.3018750  84.1001080  43.9787270
 117.4351110  85.2142500  44.9950020 119.5249230  85.6022210  45.3307990
 119.8127040  85.3476510  44.4541000 120.0372450  85.0499570  45.9213560
 120.7426240  69.3412410  45.9104500 119.9598030  69.8157910  46.1901260
 120.4489170  68.4367240  45.8017680 111.4638630  85.8143110  40.9286360
 111.2960670  85.1813790  41.6268250 110.5973140  86.0202510  40.5780550
 112.0866650  69.6459890  38.4318220 112.8446010  69.7588770  37.8582250
 111.6243820  70.4829090  38.3861650 118.6280460  71.7599160  41.4220530
 117.8154970  71.3856050  41.0816410 119.1322100  71.0044240  41.7241720
 123.1305440  68.4241610  42.6603600 123.7334810  68.9961820  43.1352120
 122.3898430  68.9881050  42.4377500 113.0701330  84.5076340  38.3736500
 112.5448950  84.8884370  37.6698460 112.9945910  85.1327110  39.0946210
 114.4591800  70.1723940  36.9720190 114.9884560  69.3853740  36.8428140
 115.0920120  70.8515130  37.2055720 116.6529640  69.9099080  40.0265580
 116.0232380  69.2086390  40.1935710 116.1134780  70.6703210  39.8098740
 119.5921590  86.5238310  52.6976190 120.5188900  86.2882580  52.7412150
 119.5772020  87.3510310  52.2162220 116.7785200  69.1883060  52.4618070
 116.4969470  69.6916660  51.6978890 117.1604900  68.3904810  52.0960200
 115.6694300  86.4558720  37.2485750 116.4013120  86.1718000  36.7009640
 115.9287970  86.2172000  38.1385130 114.8309090  82.5723450  37.2532080
 114.2017970  83.0408550  37.8017910 114.9456920  81.7272670  37.6878270
 123.3800660  68.6036640  53.0398540 123.2666110  68.9231250  53.9350060
 124.1970400  69.0049150  52.7435820 122.2858810  76.6229110  23.4033280
 122.2052860  75.7083720  23.1324990 121.8723230  77.1196180  22.6972990
 120.4176850  78.4008130  25.2842550 119.6418950  77.9208570  25.5741120
 121.0689780  77.7213780  25.1098710 114.4342680  78.7127940  26.1618310
 113.6027560  78.4576650  26.5614820 115.0423660  78.7838710  26.8976230
 124.4384280  82.8068320  24.0641680 123.9765810  82.0355560  24.3928850
 125.2509830  82.8334390  24.5694130 114.4143940  82.7468030  26.3576330
 114.7171980  81.8565770  26.1786550 115.1587530  83.3038250  26.1298580
 112.8434630  73.6729830  19.9460700 111.9551330  74.0145800  19.8440580
 113.1275820  73.4730150  19.0541530 110.8067640  76.2735480  25.8300400
 111.3783750  75.5057680  25.8304040 110.8069180  76.5724240  24.9207010
 120.6647590  85.0926330  23.6845670 120.0459030  85.5483830  23.1140110
 121.5199370  85.2477790  23.2835370 119.8585840  81.0765320  25.2912710
 119.7894120  80.1355260  25.1301840 120.6205700  81.1666730  25.8635280
 112.0492510  71.6819840  27.6169330 111.8695350  70.7845590  27.8972090
 111.6472590  72.2291710  28.2916280 120.8891010  73.8835700  25.5181640
 121.2655830  73.0107580  25.4055310 120.7910520  74.2194400  24.6272080
 115.0196020  72.2561330  20.9799080 115.1262770  73.1565060  21.2867840
 114.1088380  72.2079300  20.6893730 112.6679180  74.1780340  26.2251670
 113.3489290  74.4418710  26.8439070 112.3527230  73.3381210  26.5589680
 116.8603750  75.2247700  25.3124260 117.3681970  75.7228670  25.9529280
 117.3916990  74.4482900  25.1363620 115.1439850  69.8646260  29.5787680
 115.1458290  70.3818650  28.7733580 114.3144160  69.3876440  29.5557610
 121.5310940  79.9765570  21.0777580 120.9128210  80.4415020  20.5140300
 122.0434190  80.6693050  21.4947090 116.3942700  79.5041440  27.7561180
 116.0612080  80.1310360  28.3982250 116.5709380  80.0303320  26.9762850
 124.9076610  73.3186520  25.2237520 124.2032180  73.6071410  25.8040630
 125.2688770  74.1286630  24.8637080 114.8255180  71.5756220  27.5858130
 115.1671990  72.4198270  27.2912000 113.8870990  71.7239960  27.7023470
 115.6061800  81.4722240  29.5710360 116.2235800  82.1473320  29.2894810
 114.7454920  81.8810220  29.4797860 110.8994140  80.6622100  18.4517210
 110.5222120  81.1509200  17.7202110 111.1567210  81.3347380  19.0823740
 118.5083070  69.0638490  23.9102720 118.8158050  68.5085380  23.1938220
 117.5783770  69.1982950  23.7275710 124.0598130  84.7805780  26.2010180
 124.0725290  84.3768070  25.3332440 123.5073350  85.5553070  26.0971610
 123.4583570  79.6835620  27.5292790 123.8752360  79.4695730  26.6946250
 124.1823390  79.9408410  28.1001410 120.8963830  77.1287320  20.6462840
 119.9693110  77.0624700  20.8751310 121.0488650  78.0667450  20.5318080
 120.8832910  73.4004320  17.6430000 119.9436580  73.5618280  17.7282460
 121.2016170  74.1190000  17.0965990 124.9261120  78.6907620  21.1498090
 124.3073540  78.3527170  20.5024390 124.9085570  78.0467380  21.8577280
 124.3687680  74.8692160  28.5663900 123.9558860  75.6945870  28.8203890
 123.6363630  74.2837200  28.3740260 116.5020470  77.6552060  23.4282570
 116.0977470  76.9429310  22.9328470 116.5883590  77.3105300  24.3170610
 116.9702170  81.3419620  25.5921780 116.6730460  80.7365090  24.9129560
 117.9201990  81.3796930  25.4811140 115.2149090  74.4295270  27.2081610
 115.7663680  74.5390610  26.4334860 115.7292600  74.8032870  27.9236840
 125.0587780  84.9151490  29.2544880 124.5818340  85.7223680  29.0617490
 124.3749570  84.2629820  29.4071090 116.0620600  81.0801310  32.2429580
 115.1649130  81.3041280  32.4902980 116.0873470  81.2036250  31.2940980
 123.1025820  77.9294430  18.1570840 123.5419100  77.0916860  18.0108660
 123.8154240  78.5623830  18.2434980 114.8891820  77.9514630  30.8186950
 114.7499590  78.8237430  31.1874350 114.0073180  77.6087440  30.6734890
 121.2121200  82.8690500  22.1252080 121.6517110  83.6114830  21.7107470
 121.1508090  83.1117070  23.0491040 116.6872170  83.8936330  33.0272100
 116.6587600  84.2979280  32.1600530 116.5237140  82.9646690  32.8643700
 113.2025100  76.5497040  20.9289220 113.0822700  77.2759130  20.3170490
 112.8925990  75.7799950  20.4517130 110.8410470  79.7212180  26.7357860
 110.9190890  79.8560950  25.7913580 111.4552150  79.0128070  26.9285980
 112.0858100  81.4212370  23.1464040 111.6786180  81.5626960  22.2917640
 112.9771110  81.1372530  22.9435250 121.9036980  85.5704280  30.0531090
 122.4181650  85.4812290  30.8553520 121.0606060  85.9163980  30.3459000
 123.8791380  85.8559620  19.4815090 123.7192520  85.5662560  20.3796920
 123.7138090  85.0799750  18.9460320 116.3579760  85.6358150  21.2586710
 116.1822240  84.7193690  21.0454510 115.5035500  85.9945440  21.4984510
 123.5817510  83.3647180  18.0413090 122.8882670  83.3624470  17.3815370
 124.3240370  82.9406500  17.6107260 123.1467440  84.9909890  22.1161580
 123.6024390  84.2099270  22.4300200 123.4859960  85.7016710  22.6602760
 110.8969990  80.7626350  29.2752320 111.0601030  80.2931710  28.4571690
 111.3622440  80.2549910  29.9401160 115.6688760  69.8932110  24.3112890
 115.2256910  70.6741650  23.9797410 116.2273750  70.2162000  25.0183830
 119.9558570  72.7600630  29.9148210 119.4937940  72.9683650  30.7268150
 119.5536680  71.9459980  29.6118880 124.9563080  73.9809580  31.0444870
 124.1056670  73.6815330  31.3653940 124.7964870  74.2251590  30.1328690
 122.0512790  75.4811330  33.1443660 122.3766200  74.6475080  32.8045890
 122.8393120  76.0039850  33.2921990 118.7847580  69.5142810  19.1918720
 118.1601760  69.5102680  19.9172030 118.6977700  68.6473770  18.7954690
 117.7064660  70.4379440  26.1702490 118.0036990  71.3442270  26.0894510
 118.2550220  69.9498220  25.5562060 115.4602980  75.0165680  22.0394140
 115.2343900  74.8002850  22.9440760 114.6795510  75.4494140  21.6940110
 122.6900740  75.0229050  20.6384790 122.0909630  75.7464850  20.4548410
 123.2380350  74.9605830  19.8561240 117.9002190  75.9151260  32.7054410
 117.8045790  74.9745990  32.5554810 118.7434170  76.1366330  32.3102480
 121.2965610  73.6592590  22.6688070 121.6895180  73.9764790  21.8556760
 121.6582460  72.7804470  22.7832590 113.0312730  72.3264930  30.8588190
 112.6376120  73.1740140  31.0660970 112.3431130  71.6891300  31.0496830
 119.6057780  72.4099900  33.9284930 118.9156100  72.2172100  34.5631020
 120.3490080  72.6934540  34.4609230 110.3329780  70.2493390  24.8918270
 110.0442830  70.8196250  25.6043250 111.0775540  69.7697840  25.2549500
 110.5200010  74.1913510  16.1020990 110.4374680  75.1344270  16.2435980
 110.1683070  74.0488420  15.2233340 121.8820750  76.2498340  26.7638850
 121.1501870  76.7585150  27.1128950 121.4845090  75.4328320  26.4627630
 118.3198140  72.9252540  25.1691340 118.3234200  72.4842490  24.3195880
 119.2149260  73.2469870  25.2763160 114.1700520  72.8079030  24.1285550
 113.8300570  73.2854260  24.8852600 113.4077840  72.3544150  23.7686650
 118.3818290  73.9264620  18.1598100 118.5031110  73.8851100  19.1083920
 117.9966800  74.7888770  18.0044830 122.3446660  71.7032020  26.1761790
 122.3619400  72.1540670  27.0203640 122.0962240  70.8037660  26.3895230
 117.3939790  76.2365760  17.5581400 116.8256690  75.7884010  16.9317310
 118.1028790  76.5958540  17.0246550 112.4708970  80.1377780  31.4348130
 112.0863760  79.4971450  32.0331090 112.7821160  80.8413900  32.0042860
 118.6206110  76.9854320  26.9156750 118.9876240  76.5112890  27.6618090
 118.4311170  77.8595890  27.2565090 111.4846600  71.7298010  23.0450220
 111.1993520  71.3653680  23.8828840 111.4225460  70.9978470  22.4313360
 116.4105480  76.0262960  29.2340960 116.1062550  76.9054940  29.4591320
 117.3651940  76.0862750  29.2698400 114.9387270  80.2323950  19.8307810
 114.1649530  79.6921570  19.6706530 115.6681900  79.7130560  19.4925570
 121.1585190  70.6227270  19.7663590 120.3449800  70.1240440  19.6908900
 120.9647140  71.4625520  19.3499940 121.0794050  79.2998370  31.5103200
 121.0131360  78.3794040  31.2560790 120.4499190  79.3973810  32.2247840
 123.8733580  74.9946920  18.0625750 124.7613200  75.3064150  17.8877090
 123.8438670  74.1219170  17.6706330 114.9824670  79.9004330  23.4686620
 115.5003340  79.0972590  23.4143510 114.5308690  79.8383470  24.3103450
 119.8694170  81.1670610  18.7413920 120.2109870  81.9112840  18.2457240
 119.0406880  81.4801730  19.1038750 112.4669210  76.8665700  30.3812320
 112.1084150  77.5319550  30.9685660 112.1723770  76.0349250  30.7524940
 115.6682330  77.3249940  33.2651870 115.3682470  77.4707120  32.3679690
 116.4393570  76.7655230  33.1725260 121.0110780  82.1218940  31.2607000
 121.0255320  81.1899900  31.0425910 120.3035880  82.2078700  31.8996770
 122.7521580  80.4886450  24.1059430 123.1045400  79.8914580  23.4460800
 121.8683910  80.1630680  24.2767680 118.8384860  81.2484140  21.5129840
 119.5255990  81.7953350  21.8937430 118.0517280  81.7924870  21.5479450
 110.9777260  76.8656960  17.0046920 111.8472110  77.1481760  17.2882840
 110.4867580  77.6792830  16.8895730 118.1412070  78.2530170  21.1255200
 118.5974850  79.0635420  21.3515390 117.7900280  77.9353310  21.9573690
 120.4444680  83.7636510  28.3547500 121.0886900  83.9695890  29.0320920
 120.8074120  83.0024910  27.9018350 114.0423850  68.5967820  21.5977720
 113.9138480  68.5885720  22.5462640 113.2185870  68.9350910  21.2468730
 121.7176760  81.7668860  27.0724950 122.3598990  81.0662020  27.1857120
 122.2426110  82.5467300  26.8921840 123.4914380  82.5663760  30.2761010
 123.8270620  83.1530450  30.9538930 122.5714720  82.4356470  30.5058800
 111.3448510  86.0784340  17.5708550 111.7046150  86.6773680  16.9165820
 111.2040850  86.6244230  18.3443580 111.0417780  70.3558940  31.0584420
 110.3276300  70.5555860  31.6637030 111.4612820  69.5798510  31.4299220
 111.3290370  84.3439200  32.0450950 111.4381490  83.4033940  31.9046340
 110.6770930  84.6093950  31.3964680 119.3202960  82.6155090  33.4449070
 118.9999830  81.8964330  33.9894760 118.6461320  83.2910160  33.5185130
 117.3617130  83.4615540  18.3882220 117.3527230  84.1945230  17.7726730
 116.4415490  83.2147120  18.4809180 112.9623770  78.6830430  19.1328980
 112.3551720  79.4229330  19.1424280 113.4373120  78.7729790  18.3067180
 122.5356560  72.8481250  28.8085870 122.9037380  72.0276460  29.1365440
 121.6754760  72.9083140  29.2241520 120.3476730  83.5243780  17.0507410
 120.4488710  83.3207770  16.1209390 119.4478470  83.2702060  17.2555190
 117.8702620  74.0824140  21.0331310 117.1618770  74.5510480  21.4744920
 118.1547100  73.4246150  21.6676500 119.4958550  75.5020840  29.0323840
 119.9943800  75.9766660  29.6975690 119.6381500  74.5784360  29.2393870
 121.9018050  70.8074800  22.4727100 121.7785830  70.8260930  21.5236610
 122.8502610  70.8553740  22.5925500 118.9894840  86.0430100  21.7455080
 119.2436340  86.0051490  20.8234450 118.0407320  85.9163430  21.7383330
 116.0737640  72.3909220  18.4082020 116.9228170  72.8279370  18.3422210
 115.7068910  72.7029480  19.2354080 114.9729060  78.6441580  16.8817550
 115.7392330  78.5322940  17.4442980 115.0503750  77.9479550  16.2294320
 113.6675820  76.0766650  17.5650440 113.7479410  75.1294160  17.6767840
 114.5595570  76.4073530  17.6711100 114.4690530  86.2262040  24.6684980
 115.2053010  85.6777500  24.9393550 114.8531450  87.0918050  24.5290970
 111.3536010  82.2935610  20.5426490 110.4275790  82.5356750  20.5331900
 111.8192440  83.1209870  20.4211240 113.4748810  85.4108110  33.8570560
 114.2761540  85.7320160  34.2705960 112.9600630  85.0503690  34.5790470
 117.5792840  85.3992350  16.4910550 118.3721450  85.6881180  16.0392340
 117.0597190  84.9684520  15.8123030 122.3113440  81.5187980  33.8045970
 121.7051600  81.5419580  33.0641720 122.0067550  80.7871020  34.3413220
 123.7413810  85.2468270  32.4155380 124.6935560  85.1626290  32.3655620
 123.5942030  85.9109980  33.0889170 111.1946620  77.8981570  32.8006610
 111.6985640  77.3188850  33.3722840 110.4554040  78.1821800  33.3382980
 118.0970240  80.6195760  16.3552900 117.9920880  80.0048110  17.0814280
 117.9294460  80.0961650  15.5715910 118.2484560  79.3052560  32.3342130
 117.4830230  79.8737560  32.2496800 118.4300520  79.0128770  31.4410360
 121.3372970  79.6815790  16.9594890 120.7883070  80.1285090  17.6037630
 121.9592230  79.1765040  17.4832560 113.2269700  76.0411160  33.6956680
 113.2675040  75.7425030  34.6041910 114.0815200  76.4418770  33.5364200
 117.0048090  78.6406710  18.8560190 117.4264510  78.4746580  19.6991580
 117.1298930  77.8306940  18.3615330 115.1675510  74.6203260  31.6631170
 114.6371970  74.1294210  31.0354510 115.8363580  75.0487460  31.1289100
 119.5175730  77.6644320  16.1037290 120.0381390  76.9493340  15.7378440
 120.1644130  78.3030190  16.4037800 124.0653570  79.0872720  31.4272360
 124.4794590  79.2417800  32.2762780 123.1304570  79.2127940  31.5898140
 124.5375740  76.4268880  33.4311510 125.1196510  75.6721200  33.3431990
 124.7137510  76.9576320  32.6542990 115.6547810  71.5865630  31.7428460
 115.5604680  70.9686380  31.0179330 115.0745200  72.3131920  31.5158370
 118.4209250  70.1438870  28.7755850 117.9726550  70.1663130  27.9301400
 117.7874450  69.7457890  29.3726150 118.8268800  79.0393200  29.3968290
 119.2456910  79.8825930  29.2244530 117.9077430  79.1765240  29.1675070
 121.1632700  76.7709380  30.7806130 121.2828910  76.1750520  31.5200970
 122.0226700  76.8079070  30.3607430 123.5020600  77.3246570  29.3568640
 122.9755820  77.8489190  28.7533780 123.8451940  77.9573960  29.9878370
 115.9006990  74.7139940  15.8018350 115.6996050  73.8507300  16.1631690
 115.7299040  74.6273300  14.8639950 116.6776220  85.3446210  30.5126020
 116.1397310  86.0692270  30.1934720 116.9310180  84.8676550  29.7223360
 117.9301470  73.3130730  32.0381950 118.5201160  73.0046580  32.7259770
 117.1121710  72.8410480  32.1941850 122.7494900  72.9296540  32.2714970
 122.0610420  72.2678080  32.2064960 123.4700920  72.4834810  32.7163430
 123.3795300  69.5248170  18.3305230 123.6597590  68.6816070  18.6864650
 122.6061030  69.7571280  18.8443980 114.6989790  71.8140560  15.7896230
 115.0015690  71.8207990  14.8815380 115.4384380  71.4638420  16.2863890
 119.5338430  86.5797420  30.7712670 119.4597130  87.4832560  31.0785040
 118.6317270  86.2609320  30.7434740 117.9174720  70.7575180  16.7752430
 117.5696720  70.0799170  16.1954880 118.1187490  70.2964690  17.5895820
 120.0823760  85.7455930  18.3939030 120.9774550  86.0840900  18.4157790
 120.1141390  85.0235340  17.7663310 113.7219920  81.1182980  16.6226030
 114.1594790  81.6612650  17.2783610 114.2067650  80.2929930  16.6322370
 110.9365720  83.9072010  24.0746290 111.2668730  83.0393070  23.8424930
 111.3656720  84.1130530  24.9051250 115.5327640  82.2381020  21.7348260
 115.2323180  82.1145990  22.6352170 115.4265130  81.3789610  21.3263990
 111.4255930  84.7742600  26.8127920 110.9886920  84.9543400  27.6452070
 111.9933610  85.5317220  26.6709640 111.2580360  77.2862830  23.1716800
 110.6029200  77.0174470  22.5276500 112.0958310  77.1767310  22.7218780
 124.2070800  72.0804120  17.3935290 124.6255680  71.8935100  16.5531950
 123.9006860  71.2283170  17.7038220 112.2956290  77.6715400  27.7120140
 112.6629330  77.5842800  28.5916160 111.7267110  76.9081950  27.6127000
 111.8472290  74.5824490  31.6178560 110.9528340  74.5491250  31.9572270
 112.3869840  74.7811280  32.3829810 110.4718440  74.4961760  19.1142130
 109.5682520  74.7591960  18.9393790 110.9559060  74.7672930  18.3342090
 113.0145650  73.5527300  17.0236510 113.7237350  73.1310520  16.5383790
 112.2985590  73.6202530  16.3919860 112.6619810  69.6066630  16.0639160
 113.3847940  70.1475570  16.3820380 112.9344330  69.3330050  15.1880700
 112.3512000  68.8572820  25.9661780 112.9988190  68.3070200  25.5256940
 112.7713840  69.1115970  26.7877590 112.1044000  69.0128490  28.7087100
 111.7558820  69.4692310  29.4745280 111.7731700  68.1185620  28.7909530
 113.7108370  82.1848090  32.8740290 113.6678000  81.8141000  33.7554750
 113.8419380  83.1225660  33.0142110 117.4114400  83.7407680  28.4750010
 117.1705760  84.0082240  27.5880530 118.3517040  83.9113410  28.5300870
 119.6168820  70.2040370  32.2306520 119.5557710  70.7962200  32.9801930
 120.5569200  70.0966330  32.0856780 122.2543380  69.8610430  31.8698810
 122.8683790  70.1789720  31.2079890 122.7992940  69.3759020  32.4894670
 112.7764640  68.5404690  31.9837870 113.3247630  68.3592740  31.2203980
 112.8419950  67.7498800  32.5194180 113.5496400  85.1310340  29.9938070
 112.9556720  84.9995040  30.7328110 113.5420240  84.2948480  29.5280170
 122.9951420  68.4242570  28.1968100 122.1211260  68.7577680  27.9941030
 122.8862170  67.9515750  29.0219970 123.9023400  70.6313440  29.5809820
 123.5736760  69.8165200  29.2011550 124.8505700  70.5883250  29.4575510
 113.1808630  82.4968720  28.9446110 112.4542690  81.8774010  28.8772060
 113.2417780  82.8909330  28.0744190 116.7853730  84.7113720  25.7295520
 117.3018750  84.1001080  25.2043780 117.4351110  85.2142500  26.2206530
 119.5249230  85.6022210  26.5564500 119.8127040  85.3476510  25.6797510
 120.0372450  85.0499570  27.1470070 120.7426240  69.3412410  27.1361010
 119.9598030  69.8157910  27.4157770 120.4489170  68.4367240  27.0274190
 111.4638630  85.8143110  22.1542870 111.2960670  85.1813790  22.8524760
 110.5973140  86.0202510  21.8037060 112.0866650  69.6459890  19.6574730
 112.8446010  69.7588770  19.0838760 111.6243820  70.4829090  19.6118160
 118.6280460  71.7599160  22.6477040 117.8154970  71.3856050  22.3072920
 119.1322100  71.0044240  22.9498230 123.1305440  68.4241610  23.8860110
 123.7334810  68.9961820  24.3608630 122.3898430  68.9881050  23.6634010
 113.0701330  84.5076340  19.5993010 112.5448950  84.8884370  18.8954970
 112.9945910  85.1327110  20.3202720 114.4591800  70.1723940  18.1976700
 114.9884560  69.3853740  18.0684650 115.0920120  70.8515130  18.4312230
 116.6529640  69.9099080  21.2522090 116.0232380  69.2086390  21.4192220
 116.1134780  70.6703210  21.0355250 119.5921590  86.5238310  33.9232700
 120.5188900  86.2882580  33.9668660 119.5772020  87.3510310  33.4418730
 116.7785200  69.1883060  33.6874580 116.4969470  69.6916660  32.9235400
 117.1604900  68.3904810  33.3216710 115.6694300  86.4558720  18.4742260
 116.4013120  86.1718000  17.9266150 115.9287970  86.2172000  19.3641640
 114.8309090  82.5723450  18.4788590 114.2017970  83.0408550  19.0274420
 114.9456920  81.7272670  18.9134780 123.3800660  68.6036640  34.2655050
 123.2666110  68.9231250  35.1606570 124.1970400  69.0049150  33.9692330
 122.2858810  76.6229110   4.6289790 122.2052860  75.7083720   4.3581500
 121.8723230  77.1196180   3.9229500 120.4176850  78.4008130   6.5099060
 119.6418950  77.9208570   6.7997630 121.0689780  77.7213780   6.3355220
 114.4342680  78.7127940   7.3874820 113.6027560  78.4576650   7.7871330
 115.0423660  78.7838710   8.1232740 124.4384280  82.8068320   5.2898190
 123.9765810  82.0355560   5.6185360 125.2509830  82.8334390   5.7950640
 114.4143940  82.7468030   7.5832840 114.7171980  81.8565770   7.4043060
 115.1587530  83.3038250   7.3555090 110.8067640  76.2735480   7.0556910
 111.3783750  75.5057680   7.0560550 110.8069180  76.5724240   6.1463520
 120.6647590  85.0926330   4.9102180 120.0459030  85.5483830   4.3396620
 121.5199370  85.2477790   4.5091880 119.8585840  81.0765320   6.5169220
 119.7894120  80.1355260   6.3558350 120.6205700  81.1666730   7.0891790
 112.0492510  71.6819840   8.8425840 111.8695350  70.7845590   9.1228600
 111.6472590  72.2291710   9.5172790 120.8891010  73.8835700   6.7438150
 121.2655830  73.0107580   6.6311820 120.7910520  74.2194400   5.8528590
 115.0196020  72.2561330   2.2055590 115.1262770  73.1565060   2.5124350
 114.1088380  72.2079300   1.9150240 112.6679180  74.1780340   7.4508180
 113.3489290  74.4418710   8.0695580 112.3527230  73.3381210   7.7846190
 116.8603750  75.2247700   6.5380770 117.3681970  75.7228670   7.1785790
 117.3916990  74.4482900   6.3620130 115.1439850  69.8646260  10.8044190
 115.1458290  70.3818650   9.9990090 114.3144160  69.3876440  10.7814120
 121.5310940  79.9765570   2.3034090 120.9128210  80.4415020   1.7396810
 122.0434190  80.6693050   2.7203600 116.3942700  79.5041440   8.9817690
 116.0612080  80.1310360   9.6238760 116.5709380  80.0303320   8.2019360
 124.9076610  73.3186520   6.4494030 124.2032180  73.6071410   7.0297140
 125.2688770  74.1286630   6.0893590 114.8255180  71.5756220   8.8114640
 115.1671990  72.4198270   8.5168510 113.8870990  71.7239960   8.9279980
 115.6061800  81.4722240  10.7966870 116.2235800  82.1473320  10.5151320
 114.7454920  81.8810220  10.7054370 118.5083070  69.0638490   5.1359230
 118.8158050  68.5085380   4.4194730 117.5783770  69.1982950   4.9532220
 124.0598130  84.7805780   7.4266690 124.0725290  84.3768070   6.5588950
 123.5073350  85.5553070   7.3228120 123.4583570  79.6835620   8.7549300
 123.8752360  79.4695730   7.9202760 124.1823390  79.9408410   9.3257920
 120.8963830  77.1287320   1.8719350 119.9693110  77.0624700   2.1007820
 121.0488650  78.0667450   1.7574590 124.9261120  78.6907620   2.3754600
 124.3073540  78.3527170   1.7280900 124.9085570  78.0467380   3.0833790
 124.3687680  74.8692160   9.7920410 123.9558860  75.6945870  10.0460400
 123.6363630  74.2837200   9.5996770 116.5020470  77.6552060   4.6539080
 116.0977470  76.9429310   4.1584980 116.5883590  77.3105300   5.5427120
 116.9702170  81.3419620   6.8178290 116.6730460  80.7365090   6.1386070
 117.9201990  81.3796930   6.7067650 115.2149090  74.4295270   8.4338120
 115.7663680  74.5390610   7.6591370 115.7292600  74.8032870   9.1493350
 125.0587780  84.9151490  10.4801390 124.5818340  85.7223680  10.2874000
 124.3749570  84.2629820  10.6327600 116.0620600  81.0801310  13.4686090
 115.1649130  81.3041280  13.7159490 116.0873470  81.2036250  12.5197490
 114.8891820  77.9514630  12.0443460 114.7499590  78.8237430  12.4130860
 114.0073180  77.6087440  11.8991400 121.2121200  82.8690500   3.3508590
 121.6517110  83.6114830   2.9363980 121.1508090  83.1117070   4.2747550
 116.6872170  83.8936330  14.2528610 116.6587600  84.2979280  13.3857040
 116.5237140  82.9646690  14.0900210 113.2025100  76.5497040   2.1545730
 113.0822700  77.2759130   1.5427000 112.8925990  75.7799950   1.6773640
 110.8410470  79.7212180   7.9614370 110.9190890  79.8560950   7.0170090
 111.4552150  79.0128070   8.1542490 112.0858100  81.4212370   4.3720550
 111.6786180  81.5626960   3.5174150 112.9771110  81.1372530   4.1691760
 121.9036980  85.5704280  11.2787600 122.4181650  85.4812290  12.0810030
 121.0606060  85.9163980  11.5715510 116.3579760  85.6358150   2.4843220
 116.1822240  84.7193690   2.2711020 115.5035500  85.9945440   2.7241020
 123.1467440  84.9909890   3.3418090 123.6024390  84.2099270   3.6556710
 123.4859960  85.7016710   3.8859270 110.8969990  80.7626350  10.5008830
 111.0601030  80.2931710   9.6828200 111.3622440  80.2549910  11.1657670
 115.6688760  69.8932110   5.5369400 115.2256910  70.6741650   5.2053920
 116.2273750  70.2162000   6.2440340 119.9558570  72.7600630  11.1404720
 119.4937940  72.9683650  11.9524660 119.5536680  71.9459980  10.8375390
 124.9563080  73.9809580  12.2701380 124.1056670  73.6815330  12.5910450
 124.7964870  74.2251590  11.3585200 122.0512790  75.4811330  14.3700170
 122.3766200  74.6475080  14.0302400 122.8393120  76.0039850  14.5178500
 117.7064660  70.4379440   7.3959000 118.0036990  71.3442270   7.3151020
 118.2550220  69.9498220   6.7818570 115.4602980  75.0165680   3.2650650
 115.2343900  74.8002850   4.1697270 114.6795510  75.4494140   2.9196620
 117.9002190  75.9151260  13.9310920 117.8045790  74.9745990  13.7811320
 118.7434170  76.1366330  13.5358990 121.2965610  73.6592590   3.8944580
 121.6895180  73.9764790   3.0813270 121.6582460  72.7804470   4.0089100
 113.0312730  72.3264930  12.0844700 112.6376120  73.1740140  12.2917480
 112.3431130  71.6891300  12.2753340 119.6057780  72.4099900  15.1541440
 118.9156100  72.2172100  15.7887530 120.3490080  72.6934540  15.6865740
 110.3329780  70.2493390   6.1174780 110.0442830  70.8196250   6.8299760
 111.0775540  69.7697840   6.4806010 121.8820750  76.2498340   7.9895360
 121.1501870  76.7585150   8.3385460 121.4845090  75.4328320   7.6884140
 118.3198140  72.9252540   6.3947850 118.3234200  72.4842490   5.5452390
 119.2149260  73.2469870   6.5019670 114.1700520  72.8079030   5.3542060
 113.8300570  73.2854260   6.1109110 113.4077840  72.3544150   4.9943160
 122.3446660  71.7032020   7.4018300 122.3619400  72.1540670   8.2460150
 122.0962240  70.8037660   7.6151740 112.4708970  80.1377780  12.6604640
 112.0863760  79.4971450  13.2587600 112.7821160  80.8413900  13.2299370
 118.6206110  76.9854320   8.1413260 118.9876240  76.5112890   8.8874600
 118.4311170  77.8595890   8.4821600 111.4846600  71.7298010   4.2706730
 111.1993520  71.3653680   5.1085350 111.4225460  70.9978470   3.6569870
 116.4105480  76.0262960  10.4597470 116.1062550  76.9054940  10.6847830
 117.3651940  76.0862750  10.4954910 121.0794050  79.2998370  12.7359710
 121.0131360  78.3794040  12.4817300 120.4499190  79.3973810  13.4504350
 114.9824670  79.9004330   4.6943130 115.5003340  79.0972590   4.6400020
 114.5308690  79.8383470   5.5359960 112.4669210  76.8665700  11.6068830
 112.1084150  77.5319550  12.1942170 112.1723770  76.0349250  11.9781450
 115.6682330  77.3249940  14.4908380 115.3682470  77.4707120  13.5936200
 116.4393570  76.7655230  14.3981770 121.0110780  82.1218940  12.4863510
 121.0255320  81.1899900  12.2682420 120.3035880  82.2078700  13.1253280
 122.7521580  80.4886450   5.3315940 123.1045400  79.8914580   4.6717310
 121.8683910  80.1630680   5.5024190 118.8384860  81.2484140   2.7386350
 119.5255990  81.7953350   3.1193940 118.0517280  81.7924870   2.7735960
 118.1412070  78.2530170   2.3511710 118.5974850  79.0635420   2.5771900
 117.7900280  77.9353310   3.1830200 120.4444680  83.7636510   9.5804010
 121.0886900  83.9695890  10.2577430 120.8074120  83.0024910   9.1274860
 114.0423850  68.5967820   2.8234230 113.9138480  68.5885720   3.7719150
 113.2185870  68.9350910   2.4725240 121.7176760  81.7668860   8.2981460
 122.3598990  81.0662020   8.4113630 122.2426110  82.5467300   8.1178350
 123.4914380  82.5663760  11.5017520 123.8270620  83.1530450  12.1795440
 122.5714720  82.4356470  11.7315310 111.0417780  70.3558940  12.2840930
 110.3276300  70.5555860  12.8893540 111.4612820  69.5798510  12.6555730
 111.3290370  84.3439200  13.2707460 111.4381490  83.4033940  13.1302850
 110.6770930  84.6093950  12.6221190 119.3202960  82.6155090  14.6705580
 118.9999830  81.8964330  15.2151270 118.6461320  83.2910160  14.7441640
 122.5356560  72.8481250  10.0342380 122.9037380  72.0276460  10.3621950
 121.6754760  72.9083140  10.4498030 117.8702620  74.0824140   2.2587820
 117.1618770  74.5510480   2.7001430 118.1547100  73.4246150   2.8933010
 119.4958550  75.5020840  10.2580350 119.9943800  75.9766660  10.9232200
 119.6381500  74.5784360  10.4650380 121.9018050  70.8074800   3.6983610
 121.7785830  70.8260930   2.7493120 122.8502610  70.8553740   3.8182010
 118.9894840  86.0430100   2.9711590 119.2436340  86.0051490   2.0490960
 118.0407320  85.9163430   2.9639840 114.4690530  86.2262040   5.8941490
 115.2053010  85.6777500   6.1650060 114.8531450  87.0918050   5.7547480
 111.3536010  82.2935610   1.7683000 110.4275790  82.5356750   1.7588410
 111.8192440  83.1209870   1.6467750 113.4748810  85.4108110  15.0827070
 114.2761540  85.7320160  15.4962470 112.9600630  85.0503690  15.8046980
 122.3113440  81.5187980  15.0302480 121.7051600  81.5419580  14.2898230
 122.0067550  80.7871020  15.5669730 123.7413810  85.2468270  13.6411890
 124.6935560  85.1626290  13.5912130 123.5942030  85.9109980  14.3145680
 111.1946620  77.8981570  14.0263120 111.6985640  77.3188850  14.5979350
 110.4554040  78.1821800  14.5639490 118.2484560  79.3052560  13.5598640
 117.4830230  79.8737560  13.4753310 118.4300520  79.0128770  12.6666870
 113.2269700  76.0411160  14.9213190 113.2675040  75.7425030  15.8298420
 114.0815200  76.4418770  14.7620710 115.1675510  74.6203260  12.8887680
 114.6371970  74.1294210  12.2611020 115.8363580  75.0487460  12.3545610
 124.0653570  79.0872720  12.6528870 124.4794590  79.2417800  13.5019290
 123.1304570  79.2127940  12.8154650 124.5375740  76.4268880  14.6568020
 125.1196510  75.6721200  14.5688500 124.7137510  76.9576320  13.8799500
 115.6547810  71.5865630  12.9684970 115.5604680  70.9686380  12.2435840
 115.0745200  72.3131920  12.7414880 118.4209250  70.1438870  10.0012360
 117.9726550  70.1663130   9.1557910 117.7874450  69.7457890  10.5982660
 118.8268800  79.0393200  10.6224800 119.2456910  79.8825930  10.4501040
 117.9077430  79.1765240  10.3931580 121.1632700  76.7709380  12.0062640
 121.2828910  76.1750520  12.7457480 122.0226700  76.8079070  11.5863940
 123.5020600  77.3246570  10.5825150 122.9755820  77.8489190   9.9790290
 123.8451940  77.9573960  11.2134880 116.6776220  85.3446210  11.7382530
 116.1397310  86.0692270  11.4191230 116.9310180  84.8676550  10.9479870
 117.9301470  73.3130730  13.2638460 118.5201160  73.0046580  13.9516280
 117.1121710  72.8410480  13.4198360 122.7494900  72.9296540  13.4971480
 122.0610420  72.2678080  13.4321470 123.4700920  72.4834810  13.9419940
 119.5338430  86.5797420  11.9969180 119.4597130  87.4832560  12.3041550
 118.6317270  86.2609320  11.9691250 110.9365720  83.9072010   5.3002800
 111.2668730  83.0393070   5.0681440 111.3656720  84.1130530   6.1307760
 115.5327640  82.2381020   2.9604770 115.2323180  82.1145990   3.8608680
 115.4265130  81.3789610   2.5520500 111.4255930  84.7742600   8.0384430
 110.9886920  84.9543400   8.8708580 111.9933610  85.5317220   7.8966150
 111.2580360  77.2862830   4.3973310 110.6029200  77.0174470   3.7533010
 112.0958310  77.1767310   3.9475290 112.2956290  77.6715400   8.9376650
 112.6629330  77.5842800   9.8172670 111.7267110  76.9081950   8.8383510
 111.8472290  74.5824490  12.8435070 110.9528340  74.5491250  13.1828780
 112.3869840  74.7811280  13.6086320 112.3512000  68.8572820   7.1918290
 112.9988190  68.3070200   6.7513450 112.7713840  69.1115970   8.0134100
 112.1044000  69.0128490   9.9343610 111.7558820  69.4692310  10.7001790
 111.7731700  68.1185620  10.0166040 113.7108370  82.1848090  14.0996800
 113.6678000  81.8141000  14.9811260 113.8419380  83.1225660  14.2398620
 117.4114400  83.7407680   9.7006520 117.1705760  84.0082240   8.8137040
 118.3517040  83.9113410   9.7557380 119.6168820  70.2040370  13.4563030
 119.5557710  70.7962200  14.2058440 120.5569200  70.0966330  13.3113290
 122.2543380  69.8610430  13.0955320 122.8683790  70.1789720  12.4336400
 122.7992940  69.3759020  13.7151180 112.7764640  68.5404690  13.2094380
 113.3247630  68.3592740  12.4460490 112.8419950  67.7498800  13.7450690
 113.5496400  85.1310340  11.2194580 112.9556720  84.9995040  11.9584620
 113.5420240  84.2948480  10.7536680 122.9951420  68.4242570   9.4224610
 122.1211260  68.7577680   9.2197540 122.8862170  67.9515750  10.2476480
 123.9023400  70.6313440  10.8066330 123.5736760  69.8165200  10.4268060
 124.8505700  70.5883250  10.6832020 113.1808630  82.4968720  10.1702620
 112.4542690  81.8774010  10.1028570 113.2417780  82.8909330   9.3000700
 116.7853730  84.7113720   6.9552030 117.3018750  84.1001080   6.4300290
 117.4351110  85.2142500   7.4463040 119.5249230  85.6022210   7.7821010
 119.8127040  85.3476510   6.9054020 120.0372450  85.0499570   8.3726580
 120.7426240  69.3412410   8.3617520 119.9598030  69.8157910   8.6414280
 120.4489170  68.4367240   8.2530700 111.4638630  85.8143110   3.3799380
 111.2960670  85.1813790   4.0781270 110.5973140  86.0202510   3.0293570
 118.6280460  71.7599160   3.8733550 117.8154970  71.3856050   3.5329430
 119.1322100  71.0044240   4.1754740 123.1305440  68.4241610   5.1116620
 123.7334810  68.9961820   5.5865140 122.3898430  68.9881050   4.8890520
 116.6529640  69.9099080   2.4778600 116.0232380  69.2086390   2.6448730
 116.1134780  70.6703210   2.2611760 119.5921590  86.5238310  15.1489210
 120.5188900  86.2882580  15.1925170 119.5772020  87.3510310  14.6675240
 116.7785200  69.1883060  14.9131090 116.4969470  69.6916660  14.1491910
 117.1604900  68.3904810  14.5473220 123.3800660  68.6036640  15.4911560
 123.2666110  68.9231250  16.3863080 124.1970400  69.0049150  15.1948840
 122.2858810  57.8485620  98.5007240 122.2052860  56.9340230  98.2298950
 121.8723230  58.3452690  97.7946950 120.4176850  59.6264640 100.3816510
 119.6418950  59.1465080 100.6715080 121.0689780  58.9470290 100.2072670
 114.4342680  59.9384450 101.2592270 113.6027560  59.6833160 101.6588780
 115.0423660  60.0095220 101.9950190 124.4384280  64.0324830  99.1615640
 123.9765810  63.2612070  99.4902810 125.2509830  64.0590900  99.6668090
 114.4143940  63.9724540 101.4550290 114.7171980  63.0822280 101.2760510
 115.1587530  64.5294760 101.2272540 112.8434630  54.8986340  95.0434660
 111.9551330  55.2402310  94.9414540 113.1275820  54.6986660  94.1515490
 110.8067640  57.4991990 100.9274360 111.3783750  56.7314190 100.9278000
 110.8069180  57.7980750 100.0180970 120.6647590  66.3182840  98.7819630
 120.0459030  66.7740340  98.2114070 121.5199370  66.4734300  98.3809330
 119.8585840  62.3021830 100.3886670 119.7894120  61.3611770 100.2275800
 120.6205700  62.3923240 100.9609240 112.0492510  52.9076350 102.7143290
 111.8695350  52.0102100 102.9946050 111.6472590  53.4548220 103.3890240
 120.8891010  55.1092210 100.6155600 121.2655830  54.2364090 100.5029270
 120.7910520  55.4450910  99.7246040 115.0196020  53.4817840  96.0773040
 115.1262770  54.3821570  96.3841800 114.1088380  53.4335810  95.7867690
 112.6679180  55.4036850 101.3225630 113.3489290  55.6675220 101.9413030
 112.3527230  54.5637720 101.6563640 116.8603750  56.4504210 100.4098220
 117.3681970  56.9485180 101.0503240 117.3916990  55.6739410 100.2337580
 115.1439850  51.0902770 104.6761640 115.1458290  51.6075160 103.8707540
 114.3144160  50.6132950 104.6531570 121.5310940  61.2022080  96.1751540
 120.9128210  61.6671530  95.6114260 122.0434190  61.8949560  96.5921050
 116.3942700  60.7297950 102.8535140 116.0612080  61.3566870 103.4956210
 116.5709380  61.2559830 102.0736810 124.9076610  54.5443030 100.3211480
 124.2032180  54.8327920 100.9014590 125.2688770  55.3543140  99.9611040
 114.8255180  52.8012730 102.6832090 115.1671990  53.6454780 102.3885960
 113.8870990  52.9496470 102.7997430 115.6061800  62.6978750 104.6684320
 116.2235800  63.3729830 104.3868770 114.7454920  63.1066730 104.5771820
 110.8994140  61.8878610  93.5491170 110.5222120  62.3765710  92.8176070
 111.1567210  62.5603890  94.1797700 118.5083070  50.2895000  99.0076680
 118.8158050  49.7341890  98.2912180 117.5783770  50.4239460  98.8249670
 124.0598130  66.0062290 101.2984140 124.0725290  65.6024580 100.4306400
 123.5073350  66.7809580 101.1945570 123.4583570  60.9092130 102.6266750
 123.8752360  60.6952240 101.7920210 124.1823390  61.1664920 103.1975370
 120.8963830  58.3543830  95.7436800 119.9693110  58.2881210  95.9725270
 121.0488650  59.2923960  95.6292040 120.8832910  54.6260830  92.7403960
 119.9436580  54.7874790  92.8256420 121.2016170  55.3446510  92.1939950
 124.9261120  59.9164130  96.2472050 124.3073540  59.5783680  95.5998350
 124.9085570  59.2723890  96.9551240 124.3687680  56.0948670 103.6637860
 123.9558860  56.9202380 103.9177850 123.6363630  55.5093710 103.4714220
 116.5020470  58.8808570  98.5256530 116.0977470  58.1685820  98.0302430
 116.5883590  58.5361810  99.4144570 116.9702170  62.5676130 100.6895740
 116.6730460  61.9621600 100.0103520 117.9201990  62.6053440 100.5785100
 115.2149090  55.6551780 102.3055570 115.7663680  55.7647120 101.5308820
 115.7292600  56.0289380 103.0210800 125.0587780  66.1408000 104.3518840
 124.5818340  66.9480190 104.1591450 124.3749570  65.4886330 104.5045050
 123.1025820  59.1550940  93.2544800 123.5419100  58.3173370  93.1082620
 123.8154240  59.7880340  93.3408940 121.2121200  64.0947010  97.2226040
 121.6517110  64.8371340  96.8081430 121.1508090  64.3373580  98.1465000
 113.2025100  57.7753550  96.0263180 113.0822700  58.5015640  95.4144450
 112.8925990  57.0056460  95.5491090 110.8410470  60.9468690 101.8331820
 110.9190890  61.0817460 100.8887540 111.4552150  60.2384580 102.0259940
 112.0858100  62.6468880  98.2438000 111.6786180  62.7883470  97.3891600
 112.9771110  62.3629040  98.0409210 123.8791380  67.0816130  94.5789050
 123.7192520  66.7919070  95.4770880 123.7138090  66.3056260  94.0434280
 116.3579760  66.8614660  96.3560670 116.1822240  65.9450200  96.1428470
 115.5035500  67.2201950  96.5958470 123.5817510  64.5903690  93.1387050
 122.8882670  64.5880980  92.4789330 124.3240370  64.1663010  92.7081220
 123.1467440  66.2166400  97.2135540 123.6024390  65.4355780  97.5274160
 123.4859960  66.9273220  97.7576720 115.6688760  51.1188620  99.4086850
 115.2256910  51.8998160  99.0771370 116.2273750  51.4418510 100.1157790
 118.7847580  50.7399320  94.2892680 118.1601760  50.7359190  95.0145990
 118.6977700  49.8730280  93.8928650 117.7064660  51.6635950 101.2676450
 118.0036990  52.5698780 101.1868470 118.2550220  51.1754730 100.6536020
 115.4602980  56.2422190  97.1368100 115.2343900  56.0259360  98.0414720
 114.6795510  56.6750650  96.7914070 122.6900740  56.2485560  95.7358750
 122.0909630  56.9721360  95.5522370 123.2380350  56.1862340  94.9535200
 121.2965610  54.8849100  97.7662030 121.6895180  55.2021300  96.9530720
 121.6582460  54.0060980  97.8806550 110.3329780  51.4749900  99.9892230
 110.0442830  52.0452760 100.7017210 111.0775540  50.9954350 100.3523460
 110.5200010  55.4170020  91.1994950 110.4374680  56.3600780  91.3409940
 110.1683070  55.2744930  90.3207300 121.8820750  57.4754850 101.8612810
 121.1501870  57.9841660 102.2102910 121.4845090  56.6584830 101.5601590
 118.3198140  54.1509050 100.2665300 118.3234200  53.7099000  99.4169840
 119.2149260  54.4726380 100.3737120 114.1700520  54.0335540  99.2259510
 113.8300570  54.5110770  99.9826560 113.4077840  53.5800660  98.8660610
 118.3818290  55.1521130  93.2572060 118.5031110  55.1107610  94.2057880
 117.9966800  56.0145280  93.1018790 122.3446660  52.9288530 101.2735750
 122.3619400  53.3797180 102.1177600 122.0962240  52.0294170 101.4869190
 117.3939790  57.4622270  92.6555360 116.8256690  57.0140520  92.0291270
 118.1028790  57.8215050  92.1220510 118.6206110  58.2110830 102.0130710
 118.9876240  57.7369400 102.7592050 118.4311170  59.0852400 102.3539050
 111.4846600  52.9554520  98.1424180 111.1993520  52.5910190  98.9802800
 111.4225460  52.2234980  97.5287320 116.4105480  57.2519470 104.3314920
 116.1062550  58.1311450 104.5565280 117.3651940  57.3119260 104.3672360
 114.9387270  61.4580460  94.9281770 114.1649530  60.9178080  94.7680490
 115.6681900  60.9387070  94.5899530 121.1585190  51.8483780  94.8637550
 120.3449800  51.3496950  94.7882860 120.9647140  52.6882030  94.4473900
 123.8733580  56.2203430  93.1599710 124.7613200  56.5320660  92.9851050
 123.8438670  55.3475680  92.7680290 114.9824670  61.1260840  98.5660580
 115.5003340  60.3229100  98.5117470 114.5308690  61.0639980  99.4077410
 119.8694170  62.3927120  93.8387880 120.2109870  63.1369350  93.3431200
 119.0406880  62.7058240  94.2012710 122.7521580  61.7142960  99.2033390
 123.1045400  61.1171090  98.5434760 121.8683910  61.3887190  99.3741640
 118.8384860  62.4740650  96.6103800 119.5255990  63.0209860  96.9911390
 118.0517280  63.0181380  96.6453410 110.9777260  58.0913470  92.1020880
 111.8472110  58.3738270  92.3856800 110.4867580  58.9049340  91.9869690
 118.1412070  59.4786680  96.2229160 118.5974850  60.2891930  96.4489350
 117.7900280  59.1609820  97.0547650 120.4444680  64.9893020 103.4521460
 121.0886900  65.1952400 104.1294880 120.8074120  64.2281420 102.9992310
 114.0423850  49.8224330  96.6951680 113.9138480  49.8142230  97.6436600
 113.2185870  50.1607420  96.3442690 121.7176760  62.9925370 102.1698910
 122.3598990  62.2918530 102.2831080 122.2426110  63.7723810 101.9895800
 111.3448510  67.3040850  92.6682510 111.7046150  67.9030190  92.0139780
 111.2040850  67.8500740  93.4417540 117.3617130  64.6872050  93.4856180
 117.3527230  65.4201740  92.8700690 116.4415490  64.4403630  93.5783140
 112.9623770  59.9086940  94.2302940 112.3551720  60.6485840  94.2398240
 113.4373120  59.9986300  93.4041140 122.5356560  54.0737760 103.9059830
 122.9037380  53.2532970 104.2339400 121.6754760  54.1339650 104.3215480
 120.3476730  64.7500290  92.1481370 120.4488710  64.5464280  91.2183350
 119.4478470  64.4958570  92.3529150 117.8702620  55.3080650  96.1305270
 117.1618770  55.7766990  96.5718880 118.1547100  54.6502660  96.7650460
 119.4958550  56.7277350 104.1297800 119.9943800  57.2023170 104.7949650
 119.6381500  55.8040870 104.3367830 121.9018050  52.0331310  97.5701060
 121.7785830  52.0517440  96.6210570 122.8502610  52.0810250  97.6899460
 118.9894840  67.2686610  96.8429040 119.2436340  67.2308000  95.9208410
 118.0407320  67.1419940  96.8357290 116.0737640  53.6165730  93.5055980
 116.9228170  54.0535880  93.4396170 115.7068910  53.9285990  94.3328040
 114.9729060  59.8698090  91.9791510 115.7392330  59.7579450  92.5416940
 115.0503750  59.1736060  91.3268280 113.6675820  57.3023160  92.6624400
 113.7479410  56.3550670  92.7741800 114.5595570  57.6330040  92.7685060
 114.4690530  67.4518550  99.7658940 115.2053010  66.9034010 100.0367510
 114.8531450  68.3174560  99.6264930 111.3536010  63.5192120  95.6400450
 110.4275790  63.7613260  95.6305860 111.8192440  64.3466380  95.5185200
 117.5792840  66.6248860  91.5884510 118.3721450  66.9137690  91.1366300
 117.0597190  66.1941030  90.9096990 118.0970240  61.8452270  91.4526860
 117.9920880  61.2304620  92.1788240 117.9294460  61.3218160  90.6689870
 121.3372970  60.9072300  92.0568850 120.7883070  61.3541600  92.7011590
 121.9592230  60.4021550  92.5806520 117.0048090  59.8663220  93.9534150
 117.4264510  59.7003090  94.7965540 117.1298930  59.0563450  93.4589290
 119.5175730  58.8900830  91.2011250 120.0381390  58.1749850  90.8352400
 120.1644130  59.5286700  91.5011760 118.4209250  51.3695380 103.8729810
 117.9726550  51.3919640 103.0275360 117.7874450  50.9714400 104.4700110
 118.8268800  60.2649710 104.4942250 119.2456910  61.1082440 104.3218490
 117.9077430  60.4021750 104.2649030 115.9006990  55.9396450  90.8992310
 115.6996050  55.0763810  91.2605650 115.7299040  55.8529810  89.9613910
 123.3795300  50.7504680  93.4279190 123.6597590  49.9072580  93.7838610
 122.6061030  50.9827790  93.9417940 114.6989790  53.0397070  90.8870190
 115.0015690  53.0464500  89.9789340 115.4384380  52.6894930  91.3837850
 117.9174720  51.9831690  91.8726390 117.5696720  51.3055680  91.2928840
 118.1187490  51.5221200  92.6869780 120.0823760  66.9712440  93.4912990
 120.9774550  67.3097410  93.5131750 120.1141390  66.2491850  92.8637270
 113.7219920  62.3439490  91.7199990 114.1594790  62.8869160  92.3757570
 114.2067650  61.5186440  91.7296330 110.9365720  65.1328520  99.1720250
 111.2668730  64.2649580  98.9398890 111.3656720  65.3387040 100.0025210
 115.5327640  63.4637530  96.8322220 115.2323180  63.3402500  97.7326130
 115.4265130  62.6046120  96.4237950 111.4255930  65.9999110 101.9101880
 110.9886920  66.1799910 102.7426030 111.9933610  66.7573730 101.7683600
 111.2580360  58.5119340  98.2690760 110.6029200  58.2430980  97.6250460
 112.0958310  58.4023820  97.8192740 124.2070800  53.3060630  92.4909250
 124.6255680  53.1191610  91.6505910 123.9006860  52.4539680  92.8012180
 112.2956290  58.8971910 102.8094100 112.6629330  58.8099310 103.6890120
 111.7267110  58.1338460 102.7100960 110.4718440  55.7218270  94.2116090
 109.5682520  55.9848470  94.0367750 110.9559060  55.9929440  93.4316050
 113.0145650  54.7783810  92.1210470 113.7237350  54.3567030  91.6357750
 112.2985590  54.8459040  91.4893820 112.6619810  50.8323140  91.1613120
 113.3847940  51.3732080  91.4794340 112.9344330  50.5586560  90.2854660
 112.3512000  50.0829330 101.0635740 112.9988190  49.5326710 100.6230900
 112.7713840  50.3372480 101.8851550 112.1044000  50.2385000 103.8061060
 111.7558820  50.6948820 104.5719240 111.7731700  49.3442130 103.8883490
 117.4114400  64.9664190 103.5723970 117.1705760  65.2338750 102.6854490
 118.3517040  65.1369920 103.6274830 122.9951420  49.6499080 103.2942060
 122.1211260  49.9834190 103.0914990 122.8862170  49.1772260 104.1193930
 123.9023400  51.8569950 104.6783780 123.5736760  51.0421710 104.2985510
 124.8505700  51.8139760 104.5549470 113.1808630  63.7225230 104.0420070
 112.4542690  63.1030520 103.9746020 113.2417780  64.1165840 103.1718150
 116.7853730  65.9370230 100.8269480 117.3018750  65.3257590 100.3017740
 117.4351110  66.4399010 101.3180490 119.5249230  66.8278720 101.6538460
 119.8127040  66.5733020 100.7771470 120.0372450  66.2756080 102.2444030
 120.7426240  50.5668920 102.2334970 119.9598030  51.0414420 102.5131730
 120.4489170  49.6623750 102.1248150 111.4638630  67.0399620  97.2516830
 111.2960670  66.4070300  97.9498720 110.5973140  67.2459020  96.9011020
 112.0866650  50.8716400  94.7548690 112.8446010  50.9845280  94.1812720
 111.6243820  51.7085600  94.7092120 118.6280460  52.9855670  97.7451000
 117.8154970  52.6112560  97.4046880 119.1322100  52.2300750  98.0472190
 123.1305440  49.6498120  98.9834070 123.7334810  50.2218330  99.4582590
 122.3898430  50.2137560  98.7607970 113.0701330  65.7332850  94.6966970
 112.5448950  66.1140880  93.9928930 112.9945910  66.3583620  95.4176680
 114.4591800  51.3980450  93.2950660 114.9884560  50.6110250  93.1658610
 115.0920120  52.0771640  93.5286190 116.6529640  51.1355590  96.3496050
 116.0232380  50.4342900  96.5166180 116.1134780  51.8959720  96.1329210
 115.6694300  67.6815230  93.5716220 116.4013120  67.3974510  93.0240110
 115.9287970  67.4428510  94.4615600 114.8309090  63.7979960  93.5762550
 114.2017970  64.2665060  94.1248380 114.9456920  62.9529180  94.0108740
 122.2858810  57.8485620  79.7263750 122.2052860  56.9340230  79.4555460
 121.8723230  58.3452690  79.0203460 120.4176850  59.6264640  81.6073020
 119.6418950  59.1465080  81.8971590 121.0689780  58.9470290  81.4329180
 114.4342680  59.9384450  82.4848780 113.6027560  59.6833160  82.8845290
 115.0423660  60.0095220  83.2206700 124.4384280  64.0324830  80.3872150
 123.9765810  63.2612070  80.7159320 125.2509830  64.0590900  80.8924600
 114.4143940  63.9724540  82.6806800 114.7171980  63.0822280  82.5017020
 115.1587530  64.5294760  82.4529050 120.6647590  66.3182840  80.0076140
 120.0459030  66.7740340  79.4370580 121.5199370  66.4734300  79.6065840
 119.8585840  62.3021830  81.6143180 119.7894120  61.3611770  81.4532310
 120.6205700  62.3923240  82.1865750 120.8891010  55.1092210  81.8412110
 121.2655830  54.2364090  81.7285780 120.7910520  55.4450910  80.9502550
 116.8603750  56.4504210  81.6354730 117.3681970  56.9485180  82.2759750
 117.3916990  55.6739410  81.4594090 115.1439850  51.0902770  85.9018150
 115.1458290  51.6075160  85.0964050 114.3144160  50.6132950  85.8788080
 121.5310940  61.2022080  77.4008050 120.9128210  61.6671530  76.8370770
 122.0434190  61.8949560  77.8177560 116.3942700  60.7297950  84.0791650
 116.0612080  61.3566870  84.7212720 116.5709380  61.2559830  83.2993320
 124.9076610  54.5443030  81.5467990 124.2032180  54.8327920  82.1271100
 125.2688770  55.3543140  81.1867550 115.6061800  62.6978750  85.8940830
 116.2235800  63.3729830  85.6125280 114.7454920  63.1066730  85.8028330
 110.8994140  61.8878610  74.7747680 110.5222120  62.3765710  74.0432580
 111.1567210  62.5603890  75.4054210 118.5083070  50.2895000  80.2333190
 118.8158050  49.7341890  79.5168690 117.5783770  50.4239460  80.0506180
 124.0598130  66.0062290  82.5240650 124.0725290  65.6024580  81.6562910
 123.5073350  66.7809580  82.4202080 123.4583570  60.9092130  83.8523260
 123.8752360  60.6952240  83.0176720 124.1823390  61.1664920  84.4231880
 120.8963830  58.3543830  76.9693310 119.9693110  58.2881210  77.1981780
 121.0488650  59.2923960  76.8548550 120.8832910  54.6260830  73.9660470
 119.9436580  54.7874790  74.0512930 121.2016170  55.3446510  73.4196460
 124.9261120  59.9164130  77.4728560 124.3073540  59.5783680  76.8254860
 124.9085570  59.2723890  78.1807750 124.3687680  56.0948670  84.8894370
 123.9558860  56.9202380  85.1434360 123.6363630  55.5093710  84.6970730
 116.5020470  58.8808570  79.7513040 116.0977470  58.1685820  79.2558940
 116.5883590  58.5361810  80.6401080 116.9702170  62.5676130  81.9152250
 116.6730460  61.9621600  81.2360030 117.9201990  62.6053440  81.8041610
 125.0587780  66.1408000  85.5775350 124.5818340  66.9480190  85.3847960
 124.3749570  65.4886330  85.7301560 116.0620600  62.3057820  88.5660050
 115.1649130  62.5297790  88.8133450 116.0873470  62.4292760  87.6171450
 123.1025820  59.1550940  74.4801310 123.5419100  58.3173370  74.3339130
 123.8154240  59.7880340  74.5665450 114.8891820  59.1771140  87.1417420
 114.7499590  60.0493940  87.5104820 114.0073180  58.8343950  86.9965360
 121.2121200  64.0947010  78.4482550 121.6517110  64.8371340  78.0337940
 121.1508090  64.3373580  79.3721510 116.6872170  65.1192840  89.3502570
 116.6587600  65.5235790  88.4831000 116.5237140  64.1903200  89.1874170
 110.8410470  60.9468690  83.0588330 110.9190890  61.0817460  82.1144050
 111.4552150  60.2384580  83.2516450 112.0858100  62.6468880  79.4694510
 111.6786180  62.7883470  78.6148110 112.9771110  62.3629040  79.2665720
 121.9036980  66.7960790  86.3761560 122.4181650  66.7068800  87.1783990
 121.0606060  67.1420490  86.6689470 123.8791380  67.0816130  75.8045560
 123.7192520  66.7919070  76.7027390 123.7138090  66.3056260  75.2690790
 116.3579760  66.8614660  77.5817180 116.1822240  65.9450200  77.3684980
 115.5035500  67.2201950  77.8214980 123.5817510  64.5903690  74.3643560
 122.8882670  64.5880980  73.7045840 124.3240370  64.1663010  73.9337730
 123.1467440  66.2166400  78.4392050 123.6024390  65.4355780  78.7530670
 123.4859960  66.9273220  78.9833230 110.8969990  61.9882860  85.5982790
 111.0601030  61.5188220  84.7802160 111.3622440  61.4806420  86.2631630
 115.6688760  51.1188620  80.6343360 115.2256910  51.8998160  80.3027880
 116.2273750  51.4418510  81.3414300 119.9558570  53.9857140  86.2378680
 119.4937940  54.1940160  87.0498620 119.5536680  53.1716490  85.9349350
 124.9563080  55.2066090  87.3675340 124.1056670  54.9071840  87.6884410
 124.7964870  55.4508100  86.4559160 122.0512790  56.7067840  89.4674130
 122.3766200  55.8731590  89.1276360 122.8393120  57.2296360  89.6152460
 118.7847580  50.7399320  75.5149190 118.1601760  50.7359190  76.2402500
 118.6977700  49.8730280  75.1185160 117.7064660  51.6635950  82.4932960
 118.0036990  52.5698780  82.4124980 118.2550220  51.1754730  81.8792530
 115.4602980  56.2422190  78.3624610 115.2343900  56.0259360  79.2671230
 114.6795510  56.6750650  78.0170580 122.6900740  56.2485560  76.9615260
 122.0909630  56.9721360  76.7778880 123.2380350  56.1862340  76.1791710
 117.9002190  57.1407770  89.0284880 117.8045790  56.2002500  88.8785280
 118.7434170  57.3622840  88.6332950 121.2965610  54.8849100  78.9918540
 121.6895180  55.2021300  78.1787230 121.6582460  54.0060980  79.1063060
 119.6057780  53.6356410  90.2515400 118.9156100  53.4428610  90.8861490
 120.3490080  53.9191050  90.7839700 121.8820750  57.4754850  83.0869320
 121.1501870  57.9841660  83.4359420 121.4845090  56.6584830  82.7858100
 118.3198140  54.1509050  81.4921810 118.3234200  53.7099000  80.6426350
 119.2149260  54.4726380  81.5993630 118.3818290  55.1521130  74.4828570
 118.5031110  55.1107610  75.4314390 117.9966800  56.0145280  74.3275300
 122.3446660  52.9288530  82.4992260 122.3619400  53.3797180  83.3434110
 122.0962240  52.0294170  82.7125700 117.3939790  57.4622270  73.8811870
 116.8256690  57.0140520  73.2547780 118.1028790  57.8215050  73.3477020
 112.4708970  61.3634290  87.7578600 112.0863760  60.7227960  88.3561560
 112.7821160  62.0670410  88.3273330 118.6206110  58.2110830  83.2387220
 118.9876240  57.7369400  83.9848560 118.4311170  59.0852400  83.5795560
 116.4105480  57.2519470  85.5571430 116.1062550  58.1311450  85.7821790
 117.3651940  57.3119260  85.5928870 114.9387270  61.4580460  76.1538280
 114.1649530  60.9178080  75.9937000 115.6681900  60.9387070  75.8156040
 121.1585190  51.8483780  76.0894060 120.3449800  51.3496950  76.0139370
 120.9647140  52.6882030  75.6730410 121.0794050  60.5254880  87.8333670
 121.0131360  59.6050550  87.5791260 120.4499190  60.6230320  88.5478310
 123.8733580  56.2203430  74.3856220 124.7613200  56.5320660  74.2107560
 123.8438670  55.3475680  73.9936800 114.9824670  61.1260840  79.7917090
 115.5003340  60.3229100  79.7373980 114.5308690  61.0639980  80.6333920
 119.8694170  62.3927120  75.0644390 120.2109870  63.1369350  74.5687710
 119.0406880  62.7058240  75.4269220 112.4669210  58.0922210  86.7042790
 112.1084150  58.7576060  87.2916130 112.1723770  57.2605760  87.0755410
 115.6682330  58.5506450  89.5882340 115.3682470  58.6963630  88.6910160
 116.4393570  57.9911740  89.4955730 121.0110780  63.3475450  87.5837470
 121.0255320  62.4156410  87.3656380 120.3035880  63.4335210  88.2227240
 122.7521580  61.7142960  80.4289900 123.1045400  61.1171090  79.7691270
 121.8683910  61.3887190  80.5998150 118.8384860  62.4740650  77.8360310
 119.5255990  63.0209860  78.2167900 118.0517280  63.0181380  77.8709920
 118.1412070  59.4786680  77.4485670 118.5974850  60.2891930  77.6745860
 117.7900280  59.1609820  78.2804160 120.4444680  64.9893020  84.6777970
 121.0886900  65.1952400  85.3551390 120.8074120  64.2281420  84.2248820
 121.7176760  62.9925370  83.3955420 122.3598990  62.2918530  83.5087590
 122.2426110  63.7723810  83.2152310 123.4914380  63.7920270  86.5991480
 123.8270620  64.3786960  87.2769400 122.5714720  63.6612980  86.8289270
 111.3448510  67.3040850  73.8939020 111.7046150  67.9030190  73.2396290
 111.2040850  67.8500740  74.6674050 111.0417780  51.5815450  87.3814890
 110.3276300  51.7812370  87.9867500 111.4612820  50.8055020  87.7529690
 111.3290370  65.5695710  88.3681420 111.4381490  64.6290450  88.2276810
 110.6770930  65.8350460  87.7195150 119.3202960  63.8411600  89.7679540
 118.9999830  63.1220840  90.3125230 118.6461320  64.5166670  89.8415600
 117.3617130  64.6872050  74.7112690 117.3527230  65.4201740  74.0957200
 116.4415490  64.4403630  74.8039650 112.9623770  59.9086940  75.4559450
 112.3551720  60.6485840  75.4654750 113.4373120  59.9986300  74.6297650
 122.5356560  54.0737760  85.1316340 122.9037380  53.2532970  85.4595910
 121.6754760  54.1339650  85.5471990 120.3476730  64.7500290  73.3737880
 120.4488710  64.5464280  72.4439860 119.4478470  64.4958570  73.5785660
 117.8702620  55.3080650  77.3561780 117.1618770  55.7766990  77.7975390
 118.1547100  54.6502660  77.9906970 119.4958550  56.7277350  85.3554310
 119.9943800  57.2023170  86.0206160 119.6381500  55.8040870  85.5624340
 121.9018050  52.0331310  78.7957570 121.7785830  52.0517440  77.8467080
 122.8502610  52.0810250  78.9155970 118.9894840  67.2686610  78.0685550
 119.2436340  67.2308000  77.1464920 118.0407320  67.1419940  78.0613800
 116.0737640  53.6165730  74.7312490 116.9228170  54.0535880  74.6652680
 115.7068910  53.9285990  75.5584550 114.9729060  59.8698090  73.2048020
 115.7392330  59.7579450  73.7673450 115.0503750  59.1736060  72.5524790
 113.6675820  57.3023160  73.8880910 113.7479410  56.3550670  73.9998310
 114.5595570  57.6330040  73.9941570 114.4690530  67.4518550  80.9915450
 115.2053010  66.9034010  81.2624020 114.8531450  68.3174560  80.8521440
 111.3536010  63.5192120  76.8656960 110.4275790  63.7613260  76.8562370
 111.8192440  64.3466380  76.7441710 113.4748810  66.6364620  90.1801030
 114.2761540  66.9576670  90.5936430 112.9600630  66.2760200  90.9020940
 117.5792840  66.6248860  72.8141020 118.3721450  66.9137690  72.3622810
 117.0597190  66.1941030  72.1353500 122.3113440  62.7444490  90.1276440
 121.7051600  62.7676090  89.3872190 122.0067550  62.0127530  90.6643690
 123.7413810  66.4724780  88.7385850 124.6935560  66.3882800  88.6886090
 123.5942030  67.1366490  89.4119640 111.1946620  59.1238080  89.1237080
 111.6985640  58.5445360  89.6953310 110.4554040  59.4078310  89.6613450
 118.0970240  61.8452270  72.6783370 117.9920880  61.2304620  73.4044750
 117.9294460  61.3218160  71.8946380 118.2484560  60.5309070  88.6572600
 117.4830230  61.0994070  88.5727270 118.4300520  60.2385280  87.7640830
 121.3372970  60.9072300  73.2825360 120.7883070  61.3541600  73.9268100
 121.9592230  60.4021550  73.8063030 113.2269700  57.2667670  90.0187150
 113.2675040  56.9681540  90.9272380 114.0815200  57.6675280  89.8594670
 117.0048090  59.8663220  75.1790660 117.4264510  59.7003090  76.0222050
 117.1298930  59.0563450  74.6845800 115.1675510  55.8459770  87.9861640
 114.6371970  55.3550720  87.3584980 115.8363580  56.2743970  87.4519570
 119.5175730  58.8900830  72.4267760 120.0381390  58.1749850  72.0608910
 120.1644130  59.5286700  72.7268270 124.0653570  60.3129230  87.7502830
 124.4794590  60.4674310  88.5993250 123.1304570  60.4384450  87.9128610
 124.5375740  57.6525390  89.7541980 125.1196510  56.8977710  89.6662460
 124.7137510  58.1832830  88.9773460 115.6547810  52.8122140  88.0658930
 115.5604680  52.1942890  87.3409800 115.0745200  53.5388430  87.8388840
 118.4209250  51.3695380  85.0986320 117.9726550  51.3919640  84.2531870
 117.7874450  50.9714400  85.6956620 118.8268800  60.2649710  85.7198760
 119.2456910  61.1082440  85.5475000 117.9077430  60.4021750  85.4905540
 121.1632700  57.9965890  87.1036600 121.2828910  57.4007030  87.8431440
 122.0226700  58.0335580  86.6837900 123.5020600  58.5503080  85.6799110
 122.9755820  59.0745700  85.0764250 123.8451940  59.1830470  86.3108840
 115.9006990  55.9396450  72.1248820 115.6996050  55.0763810  72.4862160
 115.7299040  55.8529810  71.1870420 116.6776220  66.5702720  86.8356490
 116.1397310  67.2948780  86.5165190 116.9310180  66.0933060  86.0453830
 117.9301470  54.5387240  88.3612420 118.5201160  54.2303090  89.0490240
 117.1121710  54.0666990  88.5172320 122.7494900  54.1553050  88.5945440
 122.0610420  53.4934590  88.5295430 123.4700920  53.7091320  89.0393900
 123.3795300  50.7504680  74.6535700 123.6597590  49.9072580  75.0095120
 122.6061030  50.9827790  75.1674450 114.6989790  53.0397070  72.1126700
 115.0015690  53.0464500  71.2045850 115.4384380  52.6894930  72.6094360
 119.5338430  67.8053930  87.0943140 119.4597130  68.7089070  87.4015510
 118.6317270  67.4865830  87.0665210 117.9174720  51.9831690  73.0982900
 117.5696720  51.3055680  72.5185350 118.1187490  51.5221200  73.9126290
 120.0823760  66.9712440  74.7169500 120.9774550  67.3097410  74.7388260
 120.1141390  66.2491850  74.0893780 113.7219920  62.3439490  72.9456500
 114.1594790  62.8869160  73.6014080 114.2067650  61.5186440  72.9552840
 110.9365720  65.1328520  80.3976760 111.2668730  64.2649580  80.1655400
 111.3656720  65.3387040  81.2281720 115.5327640  63.4637530  78.0578730
 115.2323180  63.3402500  78.9582640 115.4265130  62.6046120  77.6494460
 111.4255930  65.9999110  83.1358390 110.9886920  66.1799910  83.9682540
 111.9933610  66.7573730  82.9940110 124.2070800  53.3060630  73.7165760
 124.6255680  53.1191610  72.8762420 123.9006860  52.4539680  74.0268690
 113.7108370  63.4104600  89.1970760 113.6678000  63.0397510  90.0785220
 113.8419380  64.3482170  89.3372580 117.4114400  64.9664190  84.7980480
 117.1705760  65.2338750  83.9111000 118.3517040  65.1369920  84.8531340
 119.6168820  51.4296880  88.5536990 119.5557710  52.0218710  89.3032400
 120.5569200  51.3222840  88.4087250 122.2543380  51.0866940  88.1929280
 122.8683790  51.4046230  87.5310360 122.7992940  50.6015530  88.8125140
 112.7764640  49.7661200  88.3068340 113.3247630  49.5849250  87.5434450
 112.8419950  48.9755310  88.8424650 113.5496400  66.3566850  86.3168540
 112.9556720  66.2251550  87.0558580 113.5420240  65.5204990  85.8510640
 122.9951420  49.6499080  84.5198570 122.1211260  49.9834190  84.3171500
 122.8862170  49.1772260  85.3450440 123.9023400  51.8569950  85.9040290
 123.5736760  51.0421710  85.5242020 124.8505700  51.8139760  85.7805980
 113.1808630  63.7225230  85.2676580 112.4542690  63.1030520  85.2002530
 113.2417780  64.1165840  84.3974660 116.7853730  65.9370230  82.0525990
 117.3018750  65.3257590  81.5274250 117.4351110  66.4399010  82.5437000
 119.5249230  66.8278720  82.8794970 119.8127040  66.5733020  82.0027980
 120.0372450  66.2756080  83.4700540 120.7426240  50.5668920  83.4591480
 119.9598030  51.0414420  83.7388240 120.4489170  49.6623750  83.3504660
 111.4638630  67.0399620  78.4773340 111.2960670  66.4070300  79.1755230
 110.5973140  67.2459020  78.1267530 118.6280460  52.9855670  78.9707510
 117.8154970  52.6112560  78.6303390 119.1322100  52.2300750  79.2728700
 123.1305440  49.6498120  80.2090580 123.7334810  50.2218330  80.6839100
 122.3898430  50.2137560  79.9864480 113.0701330  65.7332850  75.9223480
 112.5448950  66.1140880  75.2185440 112.9945910  66.3583620  76.6433190
 116.6529640  51.1355590  77.5752560 116.0232380  50.4342900  77.7422690
 116.1134780  51.8959720  77.3585720 119.5921590  67.7494820  90.2463170
 120.5188900  67.5139090  90.2899130 119.5772020  68.5766820  89.7649200
 116.7785200  50.4139570  90.0105050 116.4969470  50.9173170  89.2465870
 117.1604900  49.6161320  89.6447180 115.6694300  67.6815230  74.7972730
 116.4013120  67.3974510  74.2496620 115.9287970  67.4428510  75.6872110
 114.8309090  63.7979960  74.8019060 114.2017970  64.2665060  75.3504890
 114.9456920  62.9529180  75.2365250 123.3800660  49.8293150  90.5885520
 123.2666110  50.1487760  91.4837040 124.1970400  50.2305660  90.2922800
 122.2858810  57.8485620  60.9520260 122.2052860  56.9340230  60.6811970
 121.8723230  58.3452690  60.2459970 120.4176850  59.6264640  62.8329530
 119.6418950  59.1465080  63.1228100 121.0689780  58.9470290  62.6585690
 114.4342680  59.9384450  63.7105290 113.6027560  59.6833160  64.1101800
 115.0423660  60.0095220  64.4463210 124.4384280  64.0324830  61.6128660
 123.9765810  63.2612070  61.9415830 125.2509830  64.0590900  62.1181110
 114.4143940  63.9724540  63.9063310 114.7171980  63.0822280  63.7273530
 115.1587530  64.5294760  63.6785560 112.8434630  54.8986340  57.4947680
 111.9551330  55.2402310  57.3927560 113.1275820  54.6986660  56.6028510
 110.8067640  57.4991990  63.3787380 111.3783750  56.7314190  63.3791020
 110.8069180  57.7980750  62.4693990 120.6647590  66.3182840  61.2332650
 120.0459030  66.7740340  60.6627090 121.5199370  66.4734300  60.8322350
 119.8585840  62.3021830  62.8399690 119.7894120  61.3611770  62.6788820
 120.6205700  62.3923240  63.4122260 112.0492510  52.9076350  65.1656310
 111.8695350  52.0102100  65.4459070 111.6472590  53.4548220  65.8403260
 120.8891010  55.1092210  63.0668620 121.2655830  54.2364090  62.9542290
 120.7910520  55.4450910  62.1759060 115.0196020  53.4817840  58.5286060
 115.1262770  54.3821570  58.8354820 114.1088380  53.4335810  58.2380710
 112.6679180  55.4036850  63.7738650 113.3489290  55.6675220  64.3926050
 112.3527230  54.5637720  64.1076660 116.8603750  56.4504210  62.8611240
 117.3681970  56.9485180  63.5016260 117.3916990  55.6739410  62.6850600
 115.1439850  51.0902770  67.1274660 115.1458290  51.6075160  66.3220560
 114.3144160  50.6132950  67.1044590 121.5310940  61.2022080  58.6264560
 120.9128210  61.6671530  58.0627280 122.0434190  61.8949560  59.0434070
 116.3942700  60.7297950  65.3048160 116.0612080  61.3566870  65.9469230
 116.5709380  61.2559830  64.5249830 124.9076610  54.5443030  62.7724500
 124.2032180  54.8327920  63.3527610 125.2688770  55.3543140  62.4124060
 114.8255180  52.8012730  65.1345110 115.1671990  53.6454780  64.8398980
 113.8870990  52.9496470  65.2510450 115.6061800  62.6978750  67.1197340
 116.2235800  63.3729830  66.8381790 114.7454920  63.1066730  67.0284840
 110.8994140  61.8878610  56.0004190 110.5222120  62.3765710  55.2689090
 111.1567210  62.5603890  56.6310720 118.5083070  50.2895000  61.4589700
 118.8158050  49.7341890  60.7425200 117.5783770  50.4239460  61.2762690
 124.0598130  66.0062290  63.7497160 124.0725290  65.6024580  62.8819420
 123.5073350  66.7809580  63.6458590 123.4583570  60.9092130  65.0779770
 123.8752360  60.6952240  64.2433230 124.1823390  61.1664920  65.6488390
 120.8963830  58.3543830  58.1949820 119.9693110  58.2881210  58.4238290
 121.0488650  59.2923960  58.0805060 120.8832910  54.6260830  55.1916980
 119.9436580  54.7874790  55.2769440 121.2016170  55.3446510  54.6452970
 124.9261120  59.9164130  58.6985070 124.3073540  59.5783680  58.0511370
 124.9085570  59.2723890  59.4064260 124.3687680  56.0948670  66.1150880
 123.9558860  56.9202380  66.3690870 123.6363630  55.5093710  65.9227240
 116.5020470  58.8808570  60.9769550 116.0977470  58.1685820  60.4815450
 116.5883590  58.5361810  61.8657590 116.9702170  62.5676130  63.1408760
 116.6730460  61.9621600  62.4616540 117.9201990  62.6053440  63.0298120
 115.2149090  55.6551780  64.7568590 115.7663680  55.7647120  63.9821840
 115.7292600  56.0289380  65.4723820 125.0587780  66.1408000  66.8031860
 124.5818340  66.9480190  66.6104470 124.3749570  65.4886330  66.9558070
 116.0620600  62.3057820  69.7916560 115.1649130  62.5297790  70.0389960
 116.0873470  62.4292760  68.8427960 123.1025820  59.1550940  55.7057820
 123.5419100  58.3173370  55.5595640 123.8154240  59.7880340  55.7921960
 114.8891820  59.1771140  68.3673930 114.7499590  60.0493940  68.7361330
 114.0073180  58.8343950  68.2221870 121.2121200  64.0947010  59.6739060
 121.6517110  64.8371340  59.2594450 121.1508090  64.3373580  60.5978020
 116.6872170  65.1192840  70.5759080 116.6587600  65.5235790  69.7087510
 116.5237140  64.1903200  70.4130680 113.2025100  57.7753550  58.4776200
 113.0822700  58.5015640  57.8657470 112.8925990  57.0056460  58.0004110
 110.8410470  60.9468690  64.2844840 110.9190890  61.0817460  63.3400560
 111.4552150  60.2384580  64.4772960 112.0858100  62.6468880  60.6951020
 111.6786180  62.7883470  59.8404620 112.9771110  62.3629040  60.4922230
 121.9036980  66.7960790  67.6018070 122.4181650  66.7068800  68.4040500
 121.0606060  67.1420490  67.8945980 123.8791380  67.0816130  57.0302070
 123.7192520  66.7919070  57.9283900 123.7138090  66.3056260  56.4947300
 116.3579760  66.8614660  58.8073690 116.1822240  65.9450200  58.5941490
 115.5035500  67.2201950  59.0471490 123.5817510  64.5903690  55.5900070
 122.8882670  64.5880980  54.9302350 124.3240370  64.1663010  55.1594240
 123.1467440  66.2166400  59.6648560 123.6024390  65.4355780  59.9787180
 123.4859960  66.9273220  60.2089740 110.8969990  61.9882860  66.8239300
 111.0601030  61.5188220  66.0058670 111.3622440  61.4806420  67.4888140
 115.6688760  51.1188620  61.8599870 115.2256910  51.8998160  61.5284390
 116.2273750  51.4418510  62.5670810 119.9558570  53.9857140  67.4635190
 119.4937940  54.1940160  68.2755130 119.5536680  53.1716490  67.1605860
 124.9563080  55.2066090  68.5931850 124.1056670  54.9071840  68.9140920
 124.7964870  55.4508100  67.6815670 122.0512790  56.7067840  70.6930640
 122.3766200  55.8731590  70.3532870 122.8393120  57.2296360  70.8408970
 118.7847580  50.7399320  56.7405700 118.1601760  50.7359190  57.4659010
 118.6977700  49.8730280  56.3441670 117.7064660  51.6635950  63.7189470
 118.0036990  52.5698780  63.6381490 118.2550220  51.1754730  63.1049040
 115.4602980  56.2422190  59.5881120 115.2343900  56.0259360  60.4927740
 114.6795510  56.6750650  59.2427090 122.6900740  56.2485560  58.1871770
 122.0909630  56.9721360  58.0035390 123.2380350  56.1862340  57.4048220
 117.9002190  57.1407770  70.2541390 117.8045790  56.2002500  70.1041790
 118.7434170  57.3622840  69.8589460 121.2965610  54.8849100  60.2175050
 121.6895180  55.2021300  59.4043740 121.6582460  54.0060980  60.3319570
 113.0312730  53.5521440  68.4075170 112.6376120  54.3996650  68.6147950
 112.3431130  52.9147810  68.5983810 119.6057780  53.6356410  71.4771910
 118.9156100  53.4428610  72.1118000 120.3490080  53.9191050  72.0096210
 110.3329780  51.4749900  62.4405250 110.0442830  52.0452760  63.1530230
 111.0775540  50.9954350  62.8036480 110.5200010  55.4170020  53.6507970
 110.4374680  56.3600780  53.7922960 110.1683070  55.2744930  52.7720320
 121.8820750  57.4754850  64.3125830 121.1501870  57.9841660  64.6615930
 121.4845090  56.6584830  64.0114610 118.3198140  54.1509050  62.7178320
 118.3234200  53.7099000  61.8682860 119.2149260  54.4726380  62.8250140
 114.1700520  54.0335540  61.6772530 113.8300570  54.5110770  62.4339580
 113.4077840  53.5800660  61.3173630 118.3818290  55.1521130  55.7085080
 118.5031110  55.1107610  56.6570900 117.9966800  56.0145280  55.5531810
 122.3446660  52.9288530  63.7248770 122.3619400  53.3797180  64.5690620
 122.0962240  52.0294170  63.9382210 117.3939790  57.4622270  55.1068380
 116.8256690  57.0140520  54.4804290 118.1028790  57.8215050  54.5733530
 112.4708970  61.3634290  68.9835110 112.0863760  60.7227960  69.5818070
 112.7821160  62.0670410  69.5529840 118.6206110  58.2110830  64.4643730
 118.9876240  57.7369400  65.2105070 118.4311170  59.0852400  64.8052070
 111.4846600  52.9554520  60.5937200 111.1993520  52.5910190  61.4315820
 111.4225460  52.2234980  59.9800340 116.4105480  57.2519470  66.7827940
 116.1062550  58.1311450  67.0078300 117.3651940  57.3119260  66.8185380
 114.9387270  61.4580460  57.3794790 114.1649530  60.9178080  57.2193510
 115.6681900  60.9387070  57.0412550 121.1585190  51.8483780  57.3150570
 120.3449800  51.3496950  57.2395880 120.9647140  52.6882030  56.8986920
 121.0794050  60.5254880  69.0590180 121.0131360  59.6050550  68.8047770
 120.4499190  60.6230320  69.7734820 123.8733580  56.2203430  55.6112730
 124.7613200  56.5320660  55.4364070 123.8438670  55.3475680  55.2193310
 114.9824670  61.1260840  61.0173600 115.5003340  60.3229100  60.9630490
 114.5308690  61.0639980  61.8590430 119.8694170  62.3927120  56.2900900
 120.2109870  63.1369350  55.7944220 119.0406880  62.7058240  56.6525730
 112.4669210  58.0922210  67.9299300 112.1084150  58.7576060  68.5172640
 112.1723770  57.2605760  68.3011920 115.6682330  58.5506450  70.8138850
 115.3682470  58.6963630  69.9166670 116.4393570  57.9911740  70.7212240
 121.0110780  63.3475450  68.8093980 121.0255320  62.4156410  68.5912890
 120.3035880  63.4335210  69.4483750 122.7521580  61.7142960  61.6546410
 123.1045400  61.1171090  60.9947780 121.8683910  61.3887190  61.8254660
 118.8384860  62.4740650  59.0616820 119.5255990  63.0209860  59.4424410
 118.0517280  63.0181380  59.0966430 110.9777260  58.0913470  54.5533900
 111.8472110  58.3738270  54.8369820 110.4867580  58.9049340  54.4382710
 118.1412070  59.4786680  58.6742180 118.5974850  60.2891930  58.9002370
 117.7900280  59.1609820  59.5060670 120.4444680  64.9893020  65.9034480
 121.0886900  65.1952400  66.5807900 120.8074120  64.2281420  65.4505330
 114.0423850  49.8224330  59.1464700 113.9138480  49.8142230  60.0949620
 113.2185870  50.1607420  58.7955710 121.7176760  62.9925370  64.6211930
 122.3598990  62.2918530  64.7344100 122.2426110  63.7723810  64.4408820
 123.4914380  63.7920270  67.8247990 123.8270620  64.3786960  68.5025910
 122.5714720  63.6612980  68.0545780 111.3448510  67.3040850  55.1195530
 111.7046150  67.9030190  54.4652800 111.2040850  67.8500740  55.8930560
 111.3290370  65.5695710  69.5937930 111.4381490  64.6290450  69.4533320
 110.6770930  65.8350460  68.9451660 119.3202960  63.8411600  70.9936050
 118.9999830  63.1220840  71.5381740 118.6461320  64.5166670  71.0672110
 117.3617130  64.6872050  55.9369200 117.3527230  65.4201740  55.3213710
 116.4415490  64.4403630  56.0296160 112.9623770  59.9086940  56.6815960
 112.3551720  60.6485840  56.6911260 113.4373120  59.9986300  55.8554160
 122.5356560  54.0737760  66.3572850 122.9037380  53.2532970  66.6852420
 121.6754760  54.1339650  66.7728500 120.3476730  64.7500290  54.5994390
 120.4488710  64.5464280  53.6696370 119.4478470  64.4958570  54.8042170
 117.8702620  55.3080650  58.5818290 117.1618770  55.7766990  59.0231900
 118.1547100  54.6502660  59.2163480 119.4958550  56.7277350  66.5810820
 119.9943800  57.2023170  67.2462670 119.6381500  55.8040870  66.7880850
 121.9018050  52.0331310  60.0214080 121.7785830  52.0517440  59.0723590
 122.8502610  52.0810250  60.1412480 118.9894840  67.2686610  59.2942060
 119.2436340  67.2308000  58.3721430 118.0407320  67.1419940  59.2870310
 116.0737640  53.6165730  55.9569000 116.9228170  54.0535880  55.8909190
 115.7068910  53.9285990  56.7841060 114.9729060  59.8698090  54.4304530
 115.7392330  59.7579450  54.9929960 115.0503750  59.1736060  53.7781300
 113.6675820  57.3023160  55.1137420 113.7479410  56.3550670  55.2254820
 114.5595570  57.6330040  55.2198080 114.4690530  67.4518550  62.2171960
 115.2053010  66.9034010  62.4880530 114.8531450  68.3174560  62.0777950
 111.3536010  63.5192120  58.0913470 110.4275790  63.7613260  58.0818880
 111.8192440  64.3466380  57.9698220 113.4748810  66.6364620  71.4057540
 114.2761540  66.9576670  71.8192940 112.9600630  66.2760200  72.1277450
 117.5792840  66.6248860  54.0397530 118.3721450  66.9137690  53.5879320
 117.0597190  66.1941030  53.3610010 122.3113440  62.7444490  71.3532950
 121.7051600  62.7676090  70.6128700 122.0067550  62.0127530  71.8900200
 123.7413810  66.4724780  69.9642360 124.6935560  66.3882800  69.9142600
 123.5942030  67.1366490  70.6376150 111.1946620  59.1238080  70.3493590
 111.6985640  58.5445360  70.9209820 110.4554040  59.4078310  70.8869960
 118.0970240  61.8452270  53.9039880 117.9920880  61.2304620  54.6301260
 117.9294460  61.3218160  53.1202890 118.2484560  60.5309070  69.8829110
 117.4830230  61.0994070  69.7983780 118.4300520  60.2385280  68.9897340
 121.3372970  60.9072300  54.5081870 120.7883070  61.3541600  55.1524610
 121.9592230  60.4021550  55.0319540 113.2269700  57.2667670  71.2443660
 113.2675040  56.9681540  72.1528890 114.0815200  57.6675280  71.0851180
 117.0048090  59.8663220  56.4047170 117.4264510  59.7003090  57.2478560
 117.1298930  59.0563450  55.9102310 115.1675510  55.8459770  69.2118150
 114.6371970  55.3550720  68.5841490 115.8363580  56.2743970  68.6776080
 119.5175730  58.8900830  53.6524270 120.0381390  58.1749850  53.2865420
 120.1644130  59.5286700  53.9524780 124.0653570  60.3129230  68.9759340
 124.4794590  60.4674310  69.8249760 123.1304570  60.4384450  69.1385120
 124.5375740  57.6525390  70.9798490 125.1196510  56.8977710  70.8918970
 124.7137510  58.1832830  70.2029970 115.6547810  52.8122140  69.2915440
 115.5604680  52.1942890  68.5666310 115.0745200  53.5388430  69.0645350
 118.4209250  51.3695380  66.3242830 117.9726550  51.3919640  65.4788380
 117.7874450  50.9714400  66.9213130 118.8268800  60.2649710  66.9455270
 119.2456910  61.1082440  66.7731510 117.9077430  60.4021750  66.7162050
 121.1632700  57.9965890  68.3293110 121.2828910  57.4007030  69.0687950
 122.0226700  58.0335580  67.9094410 123.5020600  58.5503080  66.9055620
 122.9755820  59.0745700  66.3020760 123.8451940  59.1830470  67.5365350
 115.9006990  55.9396450  53.3505330 115.6996050  55.0763810  53.7118670
 115.7299040  55.8529810  52.4126930 116.6776220  66.5702720  68.0613000
 116.1397310  67.2948780  67.7421700 116.9310180  66.0933060  67.2710340
 117.9301470  54.5387240  69.5868930 118.5201160  54.2303090  70.2746750
 117.1121710  54.0666990  69.7428830 122.7494900  54.1553050  69.8201950
 122.0610420  53.4934590  69.7551940 123.4700920  53.7091320  70.2650410
 123.3795300  50.7504680  55.8792210 123.6597590  49.9072580  56.2351630
 122.6061030  50.9827790  56.3930960 114.6989790  53.0397070  53.3383210
 115.0015690  53.0464500  52.4302360 115.4384380  52.6894930  53.8350870
 119.5338430  67.8053930  68.3199650 119.4597130  68.7089070  68.6272020
 118.6317270  67.4865830  68.2921720 117.9174720  51.9831690  54.3239410
 117.5696720  51.3055680  53.7441860 118.1187490  51.5221200  55.1382800
 120.0823760  66.9712440  55.9426010 120.9774550  67.3097410  55.9644770
 120.1141390  66.2491850  55.3150290 113.7219920  62.3439490  54.1713010
 114.1594790  62.8869160  54.8270590 114.2067650  61.5186440  54.1809350
 110.9365720  65.1328520  61.6233270 111.2668730  64.2649580  61.3911910
 111.3656720  65.3387040  62.4538230 115.5327640  63.4637530  59.2835240
 115.2323180  63.3402500  60.1839150 115.4265130  62.6046120  58.8750970
 111.4255930  65.9999110  64.3614900 110.9886920  66.1799910  65.1939050
 111.9933610  66.7573730  64.2196620 111.2580360  58.5119340  60.7203780
 110.6029200  58.2430980  60.0763480 112.0958310  58.4023820  60.2705760
 124.2070800  53.3060630  54.9422270 124.6255680  53.1191610  54.1018930
 123.9006860  52.4539680  55.2525200 112.2956290  58.8971910  65.2607120
 112.6629330  58.8099310  66.1403140 111.7267110  58.1338460  65.1613980
 110.4718440  55.7218270  56.6629110 109.5682520  55.9848470  56.4880770
 110.9559060  55.9929440  55.8829070 113.0145650  54.7783810  54.5723490
 113.7237350  54.3567030  54.0870770 112.2985590  54.8459040  53.9406840
 112.6619810  50.8323140  53.6126140 113.3847940  51.3732080  53.9307360
 112.9344330  50.5586560  52.7367680 112.3512000  50.0829330  63.5148760
 112.9988190  49.5326710  63.0743920 112.7713840  50.3372480  64.3364570
 112.1044000  50.2385000  66.2574080 111.7558820  50.6948820  67.0232260
 111.7731700  49.3442130  66.3396510 113.7108370  63.4104600  70.4227270
 113.6678000  63.0397510  71.3041730 113.8419380  64.3482170  70.5629090
 117.4114400  64.9664190  66.0236990 117.1705760  65.2338750  65.1367510
 118.3517040  65.1369920  66.0787850 119.6168820  51.4296880  69.7793500
 119.5557710  52.0218710  70.5288910 120.5569200  51.3222840  69.6343760
 122.2543380  51.0866940  69.4185790 122.8683790  51.4046230  68.7566870
 122.7992940  50.6015530  70.0381650 112.7764640  49.7661200  69.5324850
 113.3247630  49.5849250  68.7690960 112.8419950  48.9755310  70.0681160
 113.5496400  66.3566850  67.5425050 112.9556720  66.2251550  68.2815090
 113.5420240  65.5204990  67.0767150 122.9951420  49.6499080  65.7455080
 122.1211260  49.9834190  65.5428010 122.8862170  49.1772260  66.5706950
 123.9023400  51.8569950  67.1296800 123.5736760  51.0421710  66.7498530
 124.8505700  51.8139760  67.0062490 113.1808630  63.7225230  66.4933090
 112.4542690  63.1030520  66.4259040 113.2417780  64.1165840  65.6231170
 116.7853730  65.9370230  63.2782500 117.3018750  65.3257590  62.7530760
 117.4351110  66.4399010  63.7693510 119.5249230  66.8278720  64.1051480
 119.8127040  66.5733020  63.2284490 120.0372450  66.2756080  64.6957050
 120.7426240  50.5668920  64.6847990 119.9598030  51.0414420  64.9644750
 120.4489170  49.6623750  64.5761170 111.4638630  67.0399620  59.7029850
 111.2960670  66.4070300  60.4011740 110.5973140  67.2459020  59.3524040
 112.0866650  50.8716400  57.2061710 112.8446010  50.9845280  56.6325740
 111.6243820  51.7085600  57.1605140 118.6280460  52.9855670  60.1964020
 117.8154970  52.6112560  59.8559900 119.1322100  52.2300750  60.4985210
 123.1305440  49.6498120  61.4347090 123.7334810  50.2218330  61.9095610
 122.3898430  50.2137560  61.2120990 113.0701330  65.7332850  57.1479990
 112.5448950  66.1140880  56.4441950 112.9945910  66.3583620  57.8689700
 114.4591800  51.3980450  55.7463680 114.9884560  50.6110250  55.6171630
 115.0920120  52.0771640  55.9799210 116.6529640  51.1355590  58.8009070
 116.0232380  50.4342900  58.9679200 116.1134780  51.8959720  58.5842230
 119.5921590  67.7494820  71.4719680 120.5188900  67.5139090  71.5155640
 119.5772020  68.5766820  70.9905710 116.7785200  50.4139570  71.2361560
 116.4969470  50.9173170  70.4722380 117.1604900  49.6161320  70.8703690
 115.6694300  67.6815230  56.0229240 116.4013120  67.3974510  55.4753130
 115.9287970  67.4428510  56.9128620 114.8309090  63.7979960  56.0275570
 114.2017970  64.2665060  56.5761400 114.9456920  62.9529180  56.4621760
 123.3800660  49.8293150  71.8142030 123.2666110  50.1487760  72.7093550
 124.1970400  50.2305660  71.5179310 122.2858810  57.8485620  42.1776770
 122.2052860  56.9340230  41.9068480 121.8723230  58.3452690  41.4716480
 120.4176850  59.6264640  44.0586040 119.6418950  59.1465080  44.3484610
 121.0689780  58.9470290  43.8842200 114.4342680  59.9384450  44.9361800
 113.6027560  59.6833160  45.3358310 115.0423660  60.0095220  45.6719720
 124.4384280  64.0324830  42.8385170 123.9765810  63.2612070  43.1672340
 125.2509830  64.0590900  43.3437620 114.4143940  63.9724540  45.1319820
 114.7171980  63.0822280  44.9530040 115.1587530  64.5294760  44.9042070
 120.6647590  66.3182840  42.4589160 120.0459030  66.7740340  41.8883600
 121.5199370  66.4734300  42.0578860 119.8585840  62.3021830  44.0656200
 119.7894120  61.3611770  43.9045330 120.6205700  62.3923240  44.6378770
 120.8891010  55.1092210  44.2925130 121.2655830  54.2364090  44.1798800
 120.7910520  55.4450910  43.4015570 115.0196020  53.4817840  39.7542570
 115.1262770  54.3821570  40.0611330 114.1088380  53.4335810  39.4637220
 116.8603750  56.4504210  44.0867750 117.3681970  56.9485180  44.7272770
 117.3916990  55.6739410  43.9107110 115.1439850  51.0902770  48.3531170
 115.1458290  51.6075160  47.5477070 114.3144160  50.6132950  48.3301100
 121.5310940  61.2022080  39.8521070 120.9128210  61.6671530  39.2883790
 122.0434190  61.8949560  40.2690580 116.3942700  60.7297950  46.5304670
 116.0612080  61.3566870  47.1725740 116.5709380  61.2559830  45.7506340
 124.9076610  54.5443030  43.9981010 124.2032180  54.8327920  44.5784120
 125.2688770  55.3543140  43.6380570 114.8255180  52.8012730  46.3601620
 115.1671990  53.6454780  46.0655490 113.8870990  52.9496470  46.4766960
 115.6061800  62.6978750  48.3453850 116.2235800  63.3729830  48.0638300
 114.7454920  63.1066730  48.2541350 110.8994140  61.8878610  37.2260700
 110.5222120  62.3765710  36.4945600 111.1567210  62.5603890  37.8567230
 118.5083070  50.2895000  42.6846210 118.8158050  49.7341890  41.9681710
 117.5783770  50.4239460  42.5019200 124.0598130  66.0062290  44.9753670
 124.0725290  65.6024580  44.1075930 123.5073350  66.7809580  44.8715100
 123.4583570  60.9092130  46.3036280 123.8752360  60.6952240  45.4689740
 124.1823390  61.1664920  46.8744900 120.8963830  58.3543830  39.4206330
 119.9693110  58.2881210  39.6494800 121.0488650  59.2923960  39.3061570
 120.8832910  54.6260830  36.4173490 119.9436580  54.7874790  36.5025950
 121.2016170  55.3446510  35.8709480 124.9261120  59.9164130  39.9241580
 124.3073540  59.5783680  39.2767880 124.9085570  59.2723890  40.6320770
 124.3687680  56.0948670  47.3407390 123.9558860  56.9202380  47.5947380
 123.6363630  55.5093710  47.1483750 116.5020470  58.8808570  42.2026060
 116.0977470  58.1685820  41.7071960 116.5883590  58.5361810  43.0914100
 116.9702170  62.5676130  44.3665270 116.6730460  61.9621600  43.6873050
 117.9201990  62.6053440  44.2554630 115.2149090  55.6551780  45.9825100
 115.7663680  55.7647120  45.2078350 115.7292600  56.0289380  46.6980330
 125.0587780  66.1408000  48.0288370 124.5818340  66.9480190  47.8360980
 124.3749570  65.4886330  48.1814580 116.0620600  62.3057820  51.0173070
 115.1649130  62.5297790  51.2646470 116.0873470  62.4292760  50.0684470
 123.1025820  59.1550940  36.9314330 123.5419100  58.3173370  36.7852150
 123.8154240  59.7880340  37.0178470 114.8891820  59.1771140  49.5930440
 114.7499590  60.0493940  49.9617840 114.0073180  58.8343950  49.4478380
 121.2121200  64.0947010  40.8995570 121.6517110  64.8371340  40.4850960
 121.1508090  64.3373580  41.8234530 116.6872170  65.1192840  51.8015590
 116.6587600  65.5235790  50.9344020 116.5237140  64.1903200  51.6387190
 112.0858100  62.6468880  41.9207530 111.6786180  62.7883470  41.0661130
 112.9771110  62.3629040  41.7178740 121.9036980  66.7960790  48.8274580
 122.4181650  66.7068800  49.6297010 121.0606060  67.1420490  49.1202490
 123.8791380  67.0816130  38.2558580 123.7192520  66.7919070  39.1540410
 123.7138090  66.3056260  37.7203810 116.3579760  66.8614660  40.0330200
 116.1822240  65.9450200  39.8198000 115.5035500  67.2201950  40.2728000
 123.5817510  64.5903690  36.8156580 122.8882670  64.5880980  36.1558860
 124.3240370  64.1663010  36.3850750 123.1467440  66.2166400  40.8905070
 123.6024390  65.4355780  41.2043690 123.4859960  66.9273220  41.4346250
 115.6688760  51.1188620  43.0856380 115.2256910  51.8998160  42.7540900
 116.2273750  51.4418510  43.7927320 119.9558570  53.9857140  48.6891700
 119.4937940  54.1940160  49.5011640 119.5536680  53.1716490  48.3862370
 124.9563080  55.2066090  49.8188360 124.1056670  54.9071840  50.1397430
 124.7964870  55.4508100  48.9072180 122.0512790  56.7067840  51.9187150
 122.3766200  55.8731590  51.5789380 122.8393120  57.2296360  52.0665480
 118.7847580  50.7399320  37.9662210 118.1601760  50.7359190  38.6915520
 118.6977700  49.8730280  37.5698180 117.7064660  51.6635950  44.9445980
 118.0036990  52.5698780  44.8638000 118.2550220  51.1754730  44.3305550
 115.4602980  56.2422190  40.8137630 115.2343900  56.0259360  41.7184250
 114.6795510  56.6750650  40.4683600 122.6900740  56.2485560  39.4128280
 122.0909630  56.9721360  39.2291900 123.2380350  56.1862340  38.6304730
 117.9002190  57.1407770  51.4797900 117.8045790  56.2002500  51.3298300
 118.7434170  57.3622840  51.0845970 121.2965610  54.8849100  41.4431560
 121.6895180  55.2021300  40.6300250 121.6582460  54.0060980  41.5576080
 113.0312730  53.5521440  49.6331680 112.6376120  54.3996650  49.8404460
 112.3431130  52.9147810  49.8240320 119.6057780  53.6356410  52.7028420
 118.9156100  53.4428610  53.3374510 120.3490080  53.9191050  53.2352720
 110.5200010  55.4170020  34.8764480 110.4374680  56.3600780  35.0179470
 110.1683070  55.2744930  33.9976830 121.8820750  57.4754850  45.5382340
 121.1501870  57.9841660  45.8872440 121.4845090  56.6584830  45.2371120
 118.3198140  54.1509050  43.9434830 118.3234200  53.7099000  43.0939370
 119.2149260  54.4726380  44.0506650 118.3818290  55.1521130  36.9341590
 118.5031110  55.1107610  37.8827410 117.9966800  56.0145280  36.7788320
 122.3446660  52.9288530  44.9505280 122.3619400  53.3797180  45.7947130
 122.0962240  52.0294170  45.1638720 117.3939790  57.4622270  36.3324890
 116.8256690  57.0140520  35.7060800 118.1028790  57.8215050  35.7990040
 112.4708970  61.3634290  50.2091620 112.0863760  60.7227960  50.8074580
 112.7821160  62.0670410  50.7786350 118.6206110  58.2110830  45.6900240
 118.9876240  57.7369400  46.4361580 118.4311170  59.0852400  46.0308580
 116.4105480  57.2519470  48.0084450 116.1062550  58.1311450  48.2334810
 117.3651940  57.3119260  48.0441890 114.9387270  61.4580460  38.6051300
 114.1649530  60.9178080  38.4450020 115.6681900  60.9387070  38.2669060
 121.1585190  51.8483780  38.5407080 120.3449800  51.3496950  38.4652390
 120.9647140  52.6882030  38.1243430 121.0794050  60.5254880  50.2846690
 121.0131360  59.6050550  50.0304280 120.4499190  60.6230320  50.9991330
 123.8733580  56.2203430  36.8369240 124.7613200  56.5320660  36.6620580
 123.8438670  55.3475680  36.4449820 114.9824670  61.1260840  42.2430110
 115.5003340  60.3229100  42.1887000 114.5308690  61.0639980  43.0846940
 119.8694170  62.3927120  37.5157410 120.2109870  63.1369350  37.0200730
 119.0406880  62.7058240  37.8782240 112.4669210  58.0922210  49.1555810
 112.1084150  58.7576060  49.7429150 112.1723770  57.2605760  49.5268430
 115.6682330  58.5506450  52.0395360 115.3682470  58.6963630  51.1423180
 116.4393570  57.9911740  51.9468750 121.0110780  63.3475450  50.0350490
 121.0255320  62.4156410  49.8169400 120.3035880  63.4335210  50.6740260
 122.7521580  61.7142960  42.8802920 123.1045400  61.1171090  42.2204290
 121.8683910  61.3887190  43.0511170 118.8384860  62.4740650  40.2873330
 119.5255990  63.0209860  40.6680920 118.0517280  63.0181380  40.3222940
 110.9777260  58.0913470  35.7790410 111.8472110  58.3738270  36.0626330
 110.4867580  58.9049340  35.6639220 118.1412070  59.4786680  39.8998690
 118.5974850  60.2891930  40.1258880 117.7900280  59.1609820  40.7317180
 120.4444680  64.9893020  47.1290990 121.0886900  65.1952400  47.8064410
 120.8074120  64.2281420  46.6761840 114.0423850  49.8224330  40.3721210
 113.9138480  49.8142230  41.3206130 113.2185870  50.1607420  40.0212220
 121.7176760  62.9925370  45.8468440 122.3598990  62.2918530  45.9600610
 122.2426110  63.7723810  45.6665330 123.4914380  63.7920270  49.0504500
 123.8270620  64.3786960  49.7282420 122.5714720  63.6612980  49.2802290
 111.3448510  67.3040850  36.3452040 111.7046150  67.9030190  35.6909310
 111.2040850  67.8500740  37.1187070 111.0417780  51.5815450  49.8327910
 110.3276300  51.7812370  50.4380520 111.4612820  50.8055020  50.2042710
 111.3290370  65.5695710  50.8194440 111.4381490  64.6290450  50.6789830
 110.6770930  65.8350460  50.1708170 119.3202960  63.8411600  52.2192560
 118.9999830  63.1220840  52.7638250 118.6461320  64.5166670  52.2928620
 117.3617130  64.6872050  37.1625710 117.3527230  65.4201740  36.5470220
 116.4415490  64.4403630  37.2552670 112.9623770  59.9086940  37.9072470
 112.3551720  60.6485840  37.9167770 113.4373120  59.9986300  37.0810670
 122.5356560  54.0737760  47.5829360 122.9037380  53.2532970  47.9108930
 121.6754760  54.1339650  47.9985010 120.3476730  64.7500290  35.8250900
 120.4488710  64.5464280  34.8952880 119.4478470  64.4958570  36.0298680
 117.8702620  55.3080650  39.8074800 117.1618770  55.7766990  40.2488410
 118.1547100  54.6502660  40.4419990 119.4958550  56.7277350  47.8067330
 119.9943800  57.2023170  48.4719180 119.6381500  55.8040870  48.0137360
 121.9018050  52.0331310  41.2470590 121.7785830  52.0517440  40.2980100
 122.8502610  52.0810250  41.3668990 118.9894840  67.2686610  40.5198570
 119.2436340  67.2308000  39.5977940 118.0407320  67.1419940  40.5126820
 116.0737640  53.6165730  37.1825510 116.9228170  54.0535880  37.1165700
 115.7068910  53.9285990  38.0097570 114.9729060  59.8698090  35.6561040
 115.7392330  59.7579450  36.2186470 115.0503750  59.1736060  35.0037810
 113.6675820  57.3023160  36.3393930 113.7479410  56.3550670  36.4511330
 114.5595570  57.6330040  36.4454590 114.4690530  67.4518550  43.4428470
 115.2053010  66.9034010  43.7137040 114.8531450  68.3174560  43.3034460
 111.3536010  63.5192120  39.3169980 110.4275790  63.7613260  39.3075390
 111.8192440  64.3466380  39.1954730 113.4748810  66.6364620  52.6314050
 114.2761540  66.9576670  53.0449450 112.9600630  66.2760200  53.3533960
 117.5792840  66.6248860  35.2654040 118.3721450  66.9137690  34.8135830
 117.0597190  66.1941030  34.5866520 122.3113440  62.7444490  52.5789460
 121.7051600  62.7676090  51.8385210 122.0067550  62.0127530  53.1156710
 123.7413810  66.4724780  51.1898870 124.6935560  66.3882800  51.1399110
 123.5942030  67.1366490  51.8632660 111.1946620  59.1238080  51.5750100
 111.6985640  58.5445360  52.1466330 110.4554040  59.4078310  52.1126470
 118.0970240  61.8452270  35.1296390 117.9920880  61.2304620  35.8557770
 117.9294460  61.3218160  34.3459400 118.2484560  60.5309070  51.1085620
 117.4830230  61.0994070  51.0240290 118.4300520  60.2385280  50.2153850
 121.3372970  60.9072300  35.7338380 120.7883070  61.3541600  36.3781120
 121.9592230  60.4021550  36.2576050 113.2269700  57.2667670  52.4700170
 113.2675040  56.9681540  53.3785400 114.0815200  57.6675280  52.3107690
 117.0048090  59.8663220  37.6303680 117.4264510  59.7003090  38.4735070
 117.1298930  59.0563450  37.1358820 115.1675510  55.8459770  50.4374660
 114.6371970  55.3550720  49.8098000 115.8363580  56.2743970  49.9032590
 119.5175730  58.8900830  34.8780780 120.0381390  58.1749850  34.5121930
 120.1644130  59.5286700  35.1781290 124.0653570  60.3129230  50.2015850
 124.4794590  60.4674310  51.0506270 123.1304570  60.4384450  50.3641630
 124.5375740  57.6525390  52.2055000 125.1196510  56.8977710  52.1175480
 124.7137510  58.1832830  51.4286480 115.6547810  52.8122140  50.5171950
 115.5604680  52.1942890  49.7922820 115.0745200  53.5388430  50.2901860
 118.4209250  51.3695380  47.5499340 117.9726550  51.3919640  46.7044890
 117.7874450  50.9714400  48.1469640 118.8268800  60.2649710  48.1711780
 119.2456910  61.1082440  47.9988020 117.9077430  60.4021750  47.9418560
 121.1632700  57.9965890  49.5549620 121.2828910  57.4007030  50.2944460
 122.0226700  58.0335580  49.1350920 123.5020600  58.5503080  48.1312130
 122.9755820  59.0745700  47.5277270 123.8451940  59.1830470  48.7621860
 115.9006990  55.9396450  34.5761840 115.6996050  55.0763810  34.9375180
 115.7299040  55.8529810  33.6383440 116.6776220  66.5702720  49.2869510
 116.1397310  67.2948780  48.9678210 116.9310180  66.0933060  48.4966850
 117.9301470  54.5387240  50.8125440 118.5201160  54.2303090  51.5003260
 117.1121710  54.0666990  50.9685340 122.7494900  54.1553050  51.0458460
 122.0610420  53.4934590  50.9808450 123.4700920  53.7091320  51.4906920
 123.3795300  50.7504680  37.1048720 123.6597590  49.9072580  37.4608140
 122.6061030  50.9827790  37.6187470 114.6989790  53.0397070  34.5639720
 115.0015690  53.0464500  33.6558870 115.4384380  52.6894930  35.0607380
 119.5338430  67.8053930  49.5456160 119.4597130  68.7089070  49.8528530
 118.6317270  67.4865830  49.5178230 117.9174720  51.9831690  35.5495920
 117.5696720  51.3055680  34.9698370 118.1187490  51.5221200  36.3639310
 120.0823760  66.9712440  37.1682520 120.9774550  67.3097410  37.1901280
 120.1141390  66.2491850  36.5406800 113.7219920  62.3439490  35.3969520
 114.1594790  62.8869160  36.0527100 114.2067650  61.5186440  35.4065860
 110.9365720  65.1328520  42.8489780 111.2668730  64.2649580  42.6168420
 111.3656720  65.3387040  43.6794740 115.5327640  63.4637530  40.5091750
 115.2323180  63.3402500  41.4095660 115.4265130  62.6046120  40.1007480
 111.4255930  65.9999110  45.5871410 110.9886920  66.1799910  46.4195560
 111.9933610  66.7573730  45.4453130 124.2070800  53.3060630  36.1678780
 124.6255680  53.1191610  35.3275440 123.9006860  52.4539680  36.4781710
 111.8472290  55.8081000  50.3922050 110.9528340  55.7747760  50.7315760
 112.3869840  56.0067790  51.1573300 113.0145650  54.7783810  35.7980000
 113.7237350  54.3567030  35.3127280 112.2985590  54.8459040  35.1663350
 112.6619810  50.8323140  34.8382650 113.3847940  51.3732080  35.1563870
 112.9344330  50.5586560  33.9624190 112.3512000  50.0829330  44.7405270
 112.9988190  49.5326710  44.3000430 112.7713840  50.3372480  45.5621080
 112.1044000  50.2385000  47.4830590 111.7558820  50.6948820  48.2488770
 111.7731700  49.3442130  47.5653020 113.7108370  63.4104600  51.6483780
 113.6678000  63.0397510  52.5298240 113.8419380  64.3482170  51.7885600
 117.4114400  64.9664190  47.2493500 117.1705760  65.2338750  46.3624020
 118.3517040  65.1369920  47.3044360 119.6168820  51.4296880  51.0050010
 119.5557710  52.0218710  51.7545420 120.5569200  51.3222840  50.8600270
 122.2543380  51.0866940  50.6442300 122.8683790  51.4046230  49.9823380
 122.7992940  50.6015530  51.2638160 112.7764640  49.7661200  50.7581360
 113.3247630  49.5849250  49.9947470 112.8419950  48.9755310  51.2937670
 113.5496400  66.3566850  48.7681560 112.9556720  66.2251550  49.5071600
 113.5420240  65.5204990  48.3023660 122.9951420  49.6499080  46.9711590
 122.1211260  49.9834190  46.7684520 122.8862170  49.1772260  47.7963460
 123.9023400  51.8569950  48.3553310 123.5736760  51.0421710  47.9755040
 124.8505700  51.8139760  48.2319000 113.1808630  63.7225230  47.7189600
 112.4542690  63.1030520  47.6515550 113.2417780  64.1165840  46.8487680
 116.7853730  65.9370230  44.5039010 117.3018750  65.3257590  43.9787270
 117.4351110  66.4399010  44.9950020 119.5249230  66.8278720  45.3307990
 119.8127040  66.5733020  44.4541000 120.0372450  66.2756080  45.9213560
 120.7426240  50.5668920  45.9104500 119.9598030  51.0414420  46.1901260
 120.4489170  49.6623750  45.8017680 111.4638630  67.0399620  40.9286360
 111.2960670  66.4070300  41.6268250 110.5973140  67.2459020  40.5780550
 112.0866650  50.8716400  38.4318220 112.8446010  50.9845280  37.8582250
 111.6243820  51.7085600  38.3861650 118.6280460  52.9855670  41.4220530
 117.8154970  52.6112560  41.0816410 119.1322100  52.2300750  41.7241720
 123.1305440  49.6498120  42.6603600 123.7334810  50.2218330  43.1352120
 122.3898430  50.2137560  42.4377500 113.0701330  65.7332850  38.3736500
 112.5448950  66.1140880  37.6698460 112.9945910  66.3583620  39.0946210
 114.4591800  51.3980450  36.9720190 114.9884560  50.6110250  36.8428140
 115.0920120  52.0771640  37.2055720 116.6529640  51.1355590  40.0265580
 116.0232380  50.4342900  40.1935710 116.1134780  51.8959720  39.8098740
 119.5921590  67.7494820  52.6976190 120.5188900  67.5139090  52.7412150
 119.5772020  68.5766820  52.2162220 116.7785200  50.4139570  52.4618070
 116.4969470  50.9173170  51.6978890 117.1604900  49.6161320  52.0960200
 115.6694300  67.6815230  37.2485750 116.4013120  67.3974510  36.7009640
 115.9287970  67.4428510  38.1385130 114.8309090  63.7979960  37.2532080
 114.2017970  64.2665060  37.8017910 114.9456920  62.9529180  37.6878270
 123.3800660  49.8293150  53.0398540 123.2666110  50.1487760  53.9350060
 124.1970400  50.2305660  52.7435820 122.2858810  57.8485620  23.4033280
 122.2052860  56.9340230  23.1324990 121.8723230  58.3452690  22.6972990
 120.4176850  59.6264640  25.2842550 119.6418950  59.1465080  25.5741120
 121.0689780  58.9470290  25.1098710 114.4342680  59.9384450  26.1618310
 113.6027560  59.6833160  26.5614820 115.0423660  60.0095220  26.8976230
 124.4384280  64.0324830  24.0641680 123.9765810  63.2612070  24.3928850
 125.2509830  64.0590900  24.5694130 114.4143940  63.9724540  26.3576330
 114.7171980  63.0822280  26.1786550 115.1587530  64.5294760  26.1298580
 112.8434630  54.8986340  19.9460700 111.9551330  55.2402310  19.8440580
 113.1275820  54.6986660  19.0541530 110.8067640  57.4991990  25.8300400
 111.3783750  56.7314190  25.8304040 110.8069180  57.7980750  24.9207010
 120.6647590  66.3182840  23.6845670 120.0459030  66.7740340  23.1140110
 121.5199370  66.4734300  23.2835370 119.8585840  62.3021830  25.2912710
 119.7894120  61.3611770  25.1301840 120.6205700  62.3923240  25.8635280
 112.0492510  52.9076350  27.6169330 111.8695350  52.0102100  27.8972090
 111.6472590  53.4548220  28.2916280 120.8891010  55.1092210  25.5181640
 121.2655830  54.2364090  25.4055310 120.7910520  55.4450910  24.6272080
 115.0196020  53.4817840  20.9799080 115.1262770  54.3821570  21.2867840
 114.1088380  53.4335810  20.6893730 112.6679180  55.4036850  26.2251670
 113.3489290  55.6675220  26.8439070 112.3527230  54.5637720  26.5589680
 116.8603750  56.4504210  25.3124260 117.3681970  56.9485180  25.9529280
 117.3916990  55.6739410  25.1363620 115.1439850  51.0902770  29.5787680
 115.1458290  51.6075160  28.7733580 114.3144160  50.6132950  29.5557610
 121.5310940  61.2022080  21.0777580 120.9128210  61.6671530  20.5140300
 122.0434190  61.8949560  21.4947090 116.3942700  60.7297950  27.7561180
 116.0612080  61.3566870  28.3982250 116.5709380  61.2559830  26.9762850
 124.9076610  54.5443030  25.2237520 124.2032180  54.8327920  25.8040630
 125.2688770  55.3543140  24.8637080 114.8255180  52.8012730  27.5858130
 115.1671990  53.6454780  27.2912000 113.8870990  52.9496470  27.7023470
 115.6061800  62.6978750  29.5710360 116.2235800  63.3729830  29.2894810
 114.7454920  63.1066730  29.4797860 110.8994140  61.8878610  18.4517210
 110.5222120  62.3765710  17.7202110 111.1567210  62.5603890  19.0823740
 118.5083070  50.2895000  23.9102720 118.8158050  49.7341890  23.1938220
 117.5783770  50.4239460  23.7275710 124.0598130  66.0062290  26.2010180
 124.0725290  65.6024580  25.3332440 123.5073350  66.7809580  26.0971610
 123.4583570  60.9092130  27.5292790 123.8752360  60.6952240  26.6946250
 124.1823390  61.1664920  28.1001410 120.8963830  58.3543830  20.6462840
 119.9693110  58.2881210  20.8751310 121.0488650  59.2923960  20.5318080
 120.8832910  54.6260830  17.6430000 119.9436580  54.7874790  17.7282460
 121.2016170  55.3446510  17.0965990 124.9261120  59.9164130  21.1498090
 124.3073540  59.5783680  20.5024390 124.9085570  59.2723890  21.8577280
 124.3687680  56.0948670  28.5663900 123.9558860  56.9202380  28.8203890
 123.6363630  55.5093710  28.3740260 116.5020470  58.8808570  23.4282570
 116.0977470  58.1685820  22.9328470 116.5883590  58.5361810  24.3170610
 116.9702170  62.5676130  25.5921780 116.6730460  61.9621600  24.9129560
 117.9201990  62.6053440  25.4811140 115.2149090  55.6551780  27.2081610
 115.7663680  55.7647120  26.4334860 115.7292600  56.0289380  27.9236840
 125.0587780  66.1408000  29.2544880 124.5818340  66.9480190  29.0617490
 124.3749570  65.4886330  29.4071090 116.0620600  62.3057820  32.2429580
 115.1649130  62.5297790  32.4902980 116.0873470  62.4292760  31.2940980
 123.1025820  59.1550940  18.1570840 123.5419100  58.3173370  18.0108660
 123.8154240  59.7880340  18.2434980 114.8891820  59.1771140  30.8186950
 114.7499590  60.0493940  31.1874350 114.0073180  58.8343950  30.6734890
 121.2121200  64.0947010  22.1252080 121.6517110  64.8371340  21.7107470
 121.1508090  64.3373580  23.0491040 116.6872170  65.1192840  33.0272100
 116.6587600  65.5235790  32.1600530 116.5237140  64.1903200  32.8643700
 113.2025100  57.7753550  20.9289220 113.0822700  58.5015640  20.3170490
 112.8925990  57.0056460  20.4517130 110.8410470  60.9468690  26.7357860
 110.9190890  61.0817460  25.7913580 111.4552150  60.2384580  26.9285980
 112.0858100  62.6468880  23.1464040 111.6786180  62.7883470  22.2917640
 112.9771110  62.3629040  22.9435250 121.9036980  66.7960790  30.0531090
 122.4181650  66.7068800  30.8553520 121.0606060  67.1420490  30.3459000
 123.8791380  67.0816130  19.4815090 123.7192520  66.7919070  20.3796920
 123.7138090  66.3056260  18.9460320 116.3579760  66.8614660  21.2586710
 116.1822240  65.9450200  21.0454510 115.5035500  67.2201950  21.4984510
 123.5817510  64.5903690  18.0413090 122.8882670  64.5880980  17.3815370
 124.3240370  64.1663010  17.6107260 123.1467440  66.2166400  22.1161580
 123.6024390  65.4355780  22.4300200 123.4859960  66.9273220  22.6602760
 110.8969990  61.9882860  29.2752320 111.0601030  61.5188220  28.4571690
 111.3622440  61.4806420  29.9401160 115.6688760  51.1188620  24.3112890
 115.2256910  51.8998160  23.9797410 116.2273750  51.4418510  25.0183830
 119.9558570  53.9857140  29.9148210 119.4937940  54.1940160  30.7268150
 119.5536680  53.1716490  29.6118880 124.9563080  55.2066090  31.0444870
 124.1056670  54.9071840  31.3653940 124.7964870  55.4508100  30.1328690
 122.0512790  56.7067840  33.1443660 122.3766200  55.8731590  32.8045890
 122.8393120  57.2296360  33.2921990 118.7847580  50.7399320  19.1918720
 118.1601760  50.7359190  19.9172030 118.6977700  49.8730280  18.7954690
 117.7064660  51.6635950  26.1702490 118.0036990  52.5698780  26.0894510
 118.2550220  51.1754730  25.5562060 115.4602980  56.2422190  22.0394140
 115.2343900  56.0259360  22.9440760 114.6795510  56.6750650  21.6940110
 122.6900740  56.2485560  20.6384790 122.0909630  56.9721360  20.4548410
 123.2380350  56.1862340  19.8561240 117.9002190  57.1407770  32.7054410
 117.8045790  56.2002500  32.5554810 118.7434170  57.3622840  32.3102480
 121.2965610  54.8849100  22.6688070 121.6895180  55.2021300  21.8556760
 121.6582460  54.0060980  22.7832590 113.0312730  53.5521440  30.8588190
 112.6376120  54.3996650  31.0660970 112.3431130  52.9147810  31.0496830
 119.6057780  53.6356410  33.9284930 118.9156100  53.4428610  34.5631020
 120.3490080  53.9191050  34.4609230 110.3329780  51.4749900  24.8918270
 110.0442830  52.0452760  25.6043250 111.0775540  50.9954350  25.2549500
 110.5200010  55.4170020  16.1020990 110.4374680  56.3600780  16.2435980
 110.1683070  55.2744930  15.2233340 121.8820750  57.4754850  26.7638850
 121.1501870  57.9841660  27.1128950 121.4845090  56.6584830  26.4627630
 118.3198140  54.1509050  25.1691340 118.3234200  53.7099000  24.3195880
 119.2149260  54.4726380  25.2763160 114.1700520  54.0335540  24.1285550
 113.8300570  54.5110770  24.8852600 113.4077840  53.5800660  23.7686650
 118.3818290  55.1521130  18.1598100 118.5031110  55.1107610  19.1083920
 117.9966800  56.0145280  18.0044830 122.3446660  52.9288530  26.1761790
 122.3619400  53.3797180  27.0203640 122.0962240  52.0294170  26.3895230
 117.3939790  57.4622270  17.5581400 116.8256690  57.0140520  16.9317310
 118.1028790  57.8215050  17.0246550 112.4708970  61.3634290  31.4348130
 112.0863760  60.7227960  32.0331090 112.7821160  62.0670410  32.0042860
 118.6206110  58.2110830  26.9156750 118.9876240  57.7369400  27.6618090
 118.4311170  59.0852400  27.2565090 111.4846600  52.9554520  23.0450220
 111.1993520  52.5910190  23.8828840 111.4225460  52.2234980  22.4313360
 116.4105480  57.2519470  29.2340960 116.1062550  58.1311450  29.4591320
 117.3651940  57.3119260  29.2698400 114.9387270  61.4580460  19.8307810
 114.1649530  60.9178080  19.6706530 115.6681900  60.9387070  19.4925570
 121.1585190  51.8483780  19.7663590 120.3449800  51.3496950  19.6908900
 120.9647140  52.6882030  19.3499940 121.0794050  60.5254880  31.5103200
 121.0131360  59.6050550  31.2560790 120.4499190  60.6230320  32.2247840
 123.8733580  56.2203430  18.0625750 124.7613200  56.5320660  17.8877090
 123.8438670  55.3475680  17.6706330 114.9824670  61.1260840  23.4686620
 115.5003340  60.3229100  23.4143510 114.5308690  61.0639980  24.3103450
 119.8694170  62.3927120  18.7413920 120.2109870  63.1369350  18.2457240
 119.0406880  62.7058240  19.1038750 112.4669210  58.0922210  30.3812320
 112.1084150  58.7576060  30.9685660 112.1723770  57.2605760  30.7524940
 115.6682330  58.5506450  33.2651870 115.3682470  58.6963630  32.3679690
 116.4393570  57.9911740  33.1725260 121.0110780  63.3475450  31.2607000
 121.0255320  62.4156410  31.0425910 120.3035880  63.4335210  31.8996770
 122.7521580  61.7142960  24.1059430 123.1045400  61.1171090  23.4460800
 121.8683910  61.3887190  24.2767680 118.8384860  62.4740650  21.5129840
 119.5255990  63.0209860  21.8937430 118.0517280  63.0181380  21.5479450
 110.9777260  58.0913470  17.0046920 111.8472110  58.3738270  17.2882840
 110.4867580  58.9049340  16.8895730 118.1412070  59.4786680  21.1255200
 118.5974850  60.2891930  21.3515390 117.7900280  59.1609820  21.9573690
 120.4444680  64.9893020  28.3547500 121.0886900  65.1952400  29.0320920
 120.8074120  64.2281420  27.9018350 114.0423850  49.8224330  21.5977720
 113.9138480  49.8142230  22.5462640 113.2185870  50.1607420  21.2468730
 121.7176760  62.9925370  27.0724950 122.3598990  62.2918530  27.1857120
 122.2426110  63.7723810  26.8921840 123.4914380  63.7920270  30.2761010
 123.8270620  64.3786960  30.9538930 122.5714720  63.6612980  30.5058800
 111.3448510  67.3040850  17.5708550 111.7046150  67.9030190  16.9165820
 111.2040850  67.8500740  18.3443580 111.0417780  51.5815450  31.0584420
 110.3276300  51.7812370  31.6637030 111.4612820  50.8055020  31.4299220
 111.3290370  65.5695710  32.0450950 111.4381490  64.6290450  31.9046340
 110.6770930  65.8350460  31.3964680 119.3202960  63.8411600  33.4449070
 118.9999830  63.1220840  33.9894760 118.6461320  64.5166670  33.5185130
 117.3617130  64.6872050  18.3882220 117.3527230  65.4201740  17.7726730
 116.4415490  64.4403630  18.4809180 112.9623770  59.9086940  19.1328980
 112.3551720  60.6485840  19.1424280 113.4373120  59.9986300  18.3067180
 122.5356560  54.0737760  28.8085870 122.9037380  53.2532970  29.1365440
 121.6754760  54.1339650  29.2241520 120.3476730  64.7500290  17.0507410
 120.4488710  64.5464280  16.1209390 119.4478470  64.4958570  17.2555190
 117.8702620  55.3080650  21.0331310 117.1618770  55.7766990  21.4744920
 118.1547100  54.6502660  21.6676500 119.4958550  56.7277350  29.0323840
 119.9943800  57.2023170  29.6975690 119.6381500  55.8040870  29.2393870
 121.9018050  52.0331310  22.4727100 121.7785830  52.0517440  21.5236610
 122.8502610  52.0810250  22.5925500 118.9894840  67.2686610  21.7455080
 119.2436340  67.2308000  20.8234450 118.0407320  67.1419940  21.7383330
 116.0737640  53.6165730  18.4082020 116.9228170  54.0535880  18.3422210
 115.7068910  53.9285990  19.2354080 114.9729060  59.8698090  16.8817550
 115.7392330  59.7579450  17.4442980 115.0503750  59.1736060  16.2294320
 113.6675820  57.3023160  17.5650440 113.7479410  56.3550670  17.6767840
 114.5595570  57.6330040  17.6711100 114.4690530  67.4518550  24.6684980
 115.2053010  66.9034010  24.9393550 114.8531450  68.3174560  24.5290970
 111.3536010  63.5192120  20.5426490 110.4275790  63.7613260  20.5331900
 111.8192440  64.3466380  20.4211240 113.4748810  66.6364620  33.8570560
 114.2761540  66.9576670  34.2705960 112.9600630  66.2760200  34.5790470
 117.5792840  66.6248860  16.4910550 118.3721450  66.9137690  16.0392340
 117.0597190  66.1941030  15.8123030 122.3113440  62.7444490  33.8045970
 121.7051600  62.7676090  33.0641720 122.0067550  62.0127530  34.3413220
 123.7413810  66.4724780  32.4155380 124.6935560  66.3882800  32.3655620
 123.5942030  67.1366490  33.0889170 111.1946620  59.1238080  32.8006610
 111.6985640  58.5445360  33.3722840 110.4554040  59.4078310  33.3382980
 118.0970240  61.8452270  16.3552900 117.9920880  61.2304620  17.0814280
 117.9294460  61.3218160  15.5715910 118.2484560  60.5309070  32.3342130
 117.4830230  61.0994070  32.2496800 118.4300520  60.2385280  31.4410360
 121.3372970  60.9072300  16.9594890 120.7883070  61.3541600  17.6037630
 121.9592230  60.4021550  17.4832560 113.2269700  57.2667670  33.6956680
 113.2675040  56.9681540  34.6041910 114.0815200  57.6675280  33.5364200
 117.0048090  59.8663220  18.8560190 117.4264510  59.7003090  19.6991580
 117.1298930  59.0563450  18.3615330 115.1675510  55.8459770  31.6631170
 114.6371970  55.3550720  31.0354510 115.8363580  56.2743970  31.1289100
 119.5175730  58.8900830  16.1037290 120.0381390  58.1749850  15.7378440
 120.1644130  59.5286700  16.4037800 124.0653570  60.3129230  31.4272360
 124.4794590  60.4674310  32.2762780 123.1304570  60.4384450  31.5898140
 124.5375740  57.6525390  33.4311510 125.1196510  56.8977710  33.3431990
 124.7137510  58.1832830  32.6542990 115.6547810  52.8122140  31.7428460
 115.5604680  52.1942890  31.0179330 115.0745200  53.5388430  31.5158370
 118.4209250  51.3695380  28.7755850 117.9726550  51.3919640  27.9301400
 117.7874450  50.9714400  29.3726150 118.8268800  60.2649710  29.3968290
 119.2456910  61.1082440  29.2244530 117.9077430  60.4021750  29.1675070
 121.1632700  57.9965890  30.7806130 121.2828910  57.4007030  31.5200970
 122.0226700  58.0335580  30.3607430 123.5020600  58.5503080  29.3568640
 122.9755820  59.0745700  28.7533780 123.8451940  59.1830470  29.9878370
 115.9006990  55.9396450  15.8018350 115.6996050  55.0763810  16.1631690
 115.7299040  55.8529810  14.8639950 116.6776220  66.5702720  30.5126020
 116.1397310  67.2948780  30.1934720 116.9310180  66.0933060  29.7223360
 117.9301470  54.5387240  32.0381950 118.5201160  54.2303090  32.7259770
 117.1121710  54.0666990  32.1941850 122.7494900  54.1553050  32.2714970
 122.0610420  53.4934590  32.2064960 123.4700920  53.7091320  32.7163430
 123.3795300  50.7504680  18.3305230 123.6597590  49.9072580  18.6864650
 122.6061030  50.9827790  18.8443980 114.6989790  53.0397070  15.7896230
 115.0015690  53.0464500  14.8815380 115.4384380  52.6894930  16.2863890
 119.5338430  67.8053930  30.7712670 119.4597130  68.7089070  31.0785040
 118.6317270  67.4865830  30.7434740 117.9174720  51.9831690  16.7752430
 117.5696720  51.3055680  16.1954880 118.1187490  51.5221200  17.5895820
 120.0823760  66.9712440  18.3939030 120.9774550  67.3097410  18.4157790
 120.1141390  66.2491850  17.7663310 113.7219920  62.3439490  16.6226030
 114.1594790  62.8869160  17.2783610 114.2067650  61.5186440  16.6322370
 110.9365720  65.1328520  24.0746290 111.2668730  64.2649580  23.8424930
 111.3656720  65.3387040  24.9051250 115.5327640  63.4637530  21.7348260
 115.2323180  63.3402500  22.6352170 115.4265130  62.6046120  21.3263990
 111.4255930  65.9999110  26.8127920 110.9886920  66.1799910  27.6452070
 111.9933610  66.7573730  26.6709640 111.2580360  58.5119340  23.1716800
 110.6029200  58.2430980  22.5276500 112.0958310  58.4023820  22.7218780
 124.2070800  53.3060630  17.3935290 124.6255680  53.1191610  16.5531950
 123.9006860  52.4539680  17.7038220 112.2956290  58.8971910  27.7120140
 112.6629330  58.8099310  28.5916160 111.7267110  58.1338460  27.6127000
 111.8472290  55.8081000  31.6178560 110.9528340  55.7747760  31.9572270
 112.3869840  56.0067790  32.3829810 110.4718440  55.7218270  19.1142130
 109.5682520  55.9848470  18.9393790 110.9559060  55.9929440  18.3342090
 113.0145650  54.7783810  17.0236510 113.7237350  54.3567030  16.5383790
 112.2985590  54.8459040  16.3919860 112.6619810  50.8323140  16.0639160
 113.3847940  51.3732080  16.3820380 112.9344330  50.5586560  15.1880700
 112.3512000  50.0829330  25.9661780 112.9988190  49.5326710  25.5256940
 112.7713840  50.3372480  26.7877590 112.1044000  50.2385000  28.7087100
 111.7558820  50.6948820  29.4745280 111.7731700  49.3442130  28.7909530
 113.7108370  63.4104600  32.8740290 113.6678000  63.0397510  33.7554750
 113.8419380  64.3482170  33.0142110 117.4114400  64.9664190  28.4750010
 117.1705760  65.2338750  27.5880530 118.3517040  65.1369920  28.5300870
 119.6168820  51.4296880  32.2306520 119.5557710  52.0218710  32.9801930
 120.5569200  51.3222840  32.0856780 122.2543380  51.0866940  31.8698810
 122.8683790  51.4046230  31.2079890 122.7992940  50.6015530  32.4894670
 112.7764640  49.7661200  31.9837870 113.3247630  49.5849250  31.2203980
 112.8419950  48.9755310  32.5194180 113.5496400  66.3566850  29.9938070
 112.9556720  66.2251550  30.7328110 113.5420240  65.5204990  29.5280170
 122.9951420  49.6499080  28.1968100 122.1211260  49.9834190  27.9941030
 122.8862170  49.1772260  29.0219970 123.9023400  51.8569950  29.5809820
 123.5736760  51.0421710  29.2011550 124.8505700  51.8139760  29.4575510
 113.1808630  63.7225230  28.9446110 112.4542690  63.1030520  28.8772060
 113.2417780  64.1165840  28.0744190 116.7853730  65.9370230  25.7295520
 117.3018750  65.3257590  25.2043780 117.4351110  66.4399010  26.2206530
 119.5249230  66.8278720  26.5564500 119.8127040  66.5733020  25.6797510
 120.0372450  66.2756080  27.1470070 120.7426240  50.5668920  27.1361010
 119.9598030  51.0414420  27.4157770 120.4489170  49.6623750  27.0274190
 111.4638630  67.0399620  22.1542870 111.2960670  66.4070300  22.8524760
 110.5973140  67.2459020  21.8037060 112.0866650  50.8716400  19.6574730
 112.8446010  50.9845280  19.0838760 111.6243820  51.7085600  19.6118160
 118.6280460  52.9855670  22.6477040 117.8154970  52.6112560  22.3072920
 119.1322100  52.2300750  22.9498230 123.1305440  49.6498120  23.8860110
 123.7334810  50.2218330  24.3608630 122.3898430  50.2137560  23.6634010
 113.0701330  65.7332850  19.5993010 112.5448950  66.1140880  18.8954970
 112.9945910  66.3583620  20.3202720 114.4591800  51.3980450  18.1976700
 114.9884560  50.6110250  18.0684650 115.0920120  52.0771640  18.4312230
 116.6529640  51.1355590  21.2522090 116.0232380  50.4342900  21.4192220
 116.1134780  51.8959720  21.0355250 119.5921590  67.7494820  33.9232700
 120.5188900  67.5139090  33.9668660 119.5772020  68.5766820  33.4418730
 116.7785200  50.4139570  33.6874580 116.4969470  50.9173170  32.9235400
 117.1604900  49.6161320  33.3216710 115.6694300  67.6815230  18.4742260
 116.4013120  67.3974510  17.9266150 115.9287970  67.4428510  19.3641640
 114.8309090  63.7979960  18.4788590 114.2017970  64.2665060  19.0274420
 114.9456920  62.9529180  18.9134780 123.3800660  49.8293150  34.2655050
 123.2666110  50.1487760  35.1606570 124.1970400  50.2305660  33.9692330
 122.2858810  57.8485620   4.6289790 122.2052860  56.9340230   4.3581500
 121.8723230  58.3452690   3.9229500 120.4176850  59.6264640   6.5099060
 119.6418950  59.1465080   6.7997630 121.0689780  58.9470290   6.3355220
 114.4342680  59.9384450   7.3874820 113.6027560  59.6833160   7.7871330
 115.0423660  60.0095220   8.1232740 124.4384280  64.0324830   5.2898190
 123.9765810  63.2612070   5.6185360 125.2509830  64.0590900   5.7950640
 114.4143940  63.9724540   7.5832840 114.7171980  63.0822280   7.4043060
 115.1587530  64.5294760   7.3555090 110.8067640  57.4991990   7.0556910
 111.3783750  56.7314190   7.0560550 110.8069180  57.7980750   6.1463520
 120.6647590  66.3182840   4.9102180 120.0459030  66.7740340   4.3396620
 121.5199370  66.4734300   4.5091880 119.8585840  62.3021830   6.5169220
 119.7894120  61.3611770   6.3558350 120.6205700  62.3923240   7.0891790
 112.0492510  52.9076350   8.8425840 111.8695350  52.0102100   9.1228600
 111.6472590  53.4548220   9.5172790 120.8891010  55.1092210   6.7438150
 121.2655830  54.2364090   6.6311820 120.7910520  55.4450910   5.8528590
 115.0196020  53.4817840   2.2055590 115.1262770  54.3821570   2.5124350
 114.1088380  53.4335810   1.9150240 112.6679180  55.4036850   7.4508180
 113.3489290  55.6675220   8.0695580 112.3527230  54.5637720   7.7846190
 116.8603750  56.4504210   6.5380770 117.3681970  56.9485180   7.1785790
 117.3916990  55.6739410   6.3620130 115.1439850  51.0902770  10.8044190
 115.1458290  51.6075160   9.9990090 114.3144160  50.6132950  10.7814120
 121.5310940  61.2022080   2.3034090 120.9128210  61.6671530   1.7396810
 122.0434190  61.8949560   2.7203600 116.3942700  60.7297950   8.9817690
 116.0612080  61.3566870   9.6238760 116.5709380  61.2559830   8.2019360
 124.9076610  54.5443030   6.4494030 124.2032180  54.8327920   7.0297140
 125.2688770  55.3543140   6.0893590 114.8255180  52.8012730   8.8114640
 115.1671990  53.6454780   8.5168510 113.8870990  52.9496470   8.9279980
 115.6061800  62.6978750  10.7966870 116.2235800  63.3729830  10.5151320
 114.7454920  63.1066730  10.7054370 118.5083070  50.2895000   5.1359230
 118.8158050  49.7341890   4.4194730 117.5783770  50.4239460   4.9532220
 124.0598130  66.0062290   7.4266690 124.0725290  65.6024580   6.5588950
 123.5073350  66.7809580   7.3228120 123.4583570  60.9092130   8.7549300
 123.8752360  60.6952240   7.9202760 124.1823390  61.1664920   9.3257920
 120.8963830  58.3543830   1.8719350 119.9693110  58.2881210   2.1007820
 121.0488650  59.2923960   1.7574590 124.9261120  59.9164130   2.3754600
 124.3073540  59.5783680   1.7280900 124.9085570  59.2723890   3.0833790
 124.3687680  56.0948670   9.7920410 123.9558860  56.9202380  10.0460400
 123.6363630  55.5093710   9.5996770 116.5020470  58.8808570   4.6539080
 116.0977470  58.1685820   4.1584980 116.5883590  58.5361810   5.5427120
 116.9702170  62.5676130   6.8178290 116.6730460  61.9621600   6.1386070
 117.9201990  62.6053440   6.7067650 115.2149090  55.6551780   8.4338120
 115.7663680  55.7647120   7.6591370 115.7292600  56.0289380   9.1493350
 125.0587780  66.1408000  10.4801390 124.5818340  66.9480190  10.2874000
 124.3749570  65.4886330  10.6327600 116.0620600  62.3057820  13.4686090
 115.1649130  62.5297790  13.7159490 116.0873470  62.4292760  12.5197490
 114.8891820  59.1771140  12.0443460 114.7499590  60.0493940  12.4130860
 114.0073180  58.8343950  11.8991400 121.2121200  64.0947010   3.3508590
 121.6517110  64.8371340   2.9363980 121.1508090  64.3373580   4.2747550
 116.6872170  65.1192840  14.2528610 116.6587600  65.5235790  13.3857040
 116.5237140  64.1903200  14.0900210 113.2025100  57.7753550   2.1545730
 113.0822700  58.5015640   1.5427000 112.8925990  57.0056460   1.6773640
 110.8410470  60.9468690   7.9614370 110.9190890  61.0817460   7.0170090
 111.4552150  60.2384580   8.1542490 112.0858100  62.6468880   4.3720550
 111.6786180  62.7883470   3.5174150 112.9771110  62.3629040   4.1691760
 121.9036980  66.7960790  11.2787600 122.4181650  66.7068800  12.0810030
 121.0606060  67.1420490  11.5715510 116.3579760  66.8614660   2.4843220
 116.1822240  65.9450200   2.2711020 115.5035500  67.2201950   2.7241020
 123.1467440  66.2166400   3.3418090 123.6024390  65.4355780   3.6556710
 123.4859960  66.9273220   3.8859270 110.8969990  61.9882860  10.5008830
 111.0601030  61.5188220   9.6828200 111.3622440  61.4806420  11.1657670
 115.6688760  51.1188620   5.5369400 115.2256910  51.8998160   5.2053920
 116.2273750  51.4418510   6.2440340 119.9558570  53.9857140  11.1404720
 119.4937940  54.1940160  11.9524660 119.5536680  53.1716490  10.8375390
 124.9563080  55.2066090  12.2701380 124.1056670  54.9071840  12.5910450
 124.7964870  55.4508100  11.3585200 122.0512790  56.7067840  14.3700170
 122.3766200  55.8731590  14.0302400 122.8393120  57.2296360  14.5178500
 117.7064660  51.6635950   7.3959000 118.0036990  52.5698780   7.3151020
 118.2550220  51.1754730   6.7818570 115.4602980  56.2422190   3.2650650
 115.2343900  56.0259360   4.1697270 114.6795510  56.6750650   2.9196620
 117.9002190  57.1407770  13.9310920 117.8045790  56.2002500  13.7811320
 118.7434170  57.3622840  13.5358990 121.2965610  54.8849100   3.8944580
 121.6895180  55.2021300   3.0813270 121.6582460  54.0060980   4.0089100
 113.0312730  53.5521440  12.0844700 112.6376120  54.3996650  12.2917480
 112.3431130  52.9147810  12.2753340 119.6057780  53.6356410  15.1541440
 118.9156100  53.4428610  15.7887530 120.3490080  53.9191050  15.6865740
 110.3329780  51.4749900   6.1174780 110.0442830  52.0452760   6.8299760
 111.0775540  50.9954350   6.4806010 121.8820750  57.4754850   7.9895360
 121.1501870  57.9841660   8.3385460 121.4845090  56.6584830   7.6884140
 118.3198140  54.1509050   6.3947850 118.3234200  53.7099000   5.5452390
 119.2149260  54.4726380   6.5019670 114.1700520  54.0335540   5.3542060
 113.8300570  54.5110770   6.1109110 113.4077840  53.5800660   4.9943160
 122.3446660  52.9288530   7.4018300 122.3619400  53.3797180   8.2460150
 122.0962240  52.0294170   7.6151740 112.4708970  61.3634290  12.6604640
 112.0863760  60.7227960  13.2587600 112.7821160  62.0670410  13.2299370
 118.6206110  58.2110830   8.1413260 118.9876240  57.7369400   8.8874600
 118.4311170  59.0852400   8.4821600 111.4846600  52.9554520   4.2706730
 111.1993520  52.5910190   5.1085350 111.4225460  52.2234980   3.6569870
 116.4105480  57.2519470  10.4597470 116.1062550  58.1311450  10.6847830
 117.3651940  57.3119260  10.4954910 121.0794050  60.5254880  12.7359710
 121.0131360  59.6050550  12.4817300 120.4499190  60.6230320  13.4504350
 114.9824670  61.1260840   4.6943130 115.5003340  60.3229100   4.6400020
 114.5308690  61.0639980   5.5359960 112.4669210  58.0922210  11.6068830
 112.1084150  58.7576060  12.1942170 112.1723770  57.2605760  11.9781450
 115.6682330  58.5506450  14.4908380 115.3682470  58.6963630  13.5936200
 116.4393570  57.9911740  14.3981770 121.0110780  63.3475450  12.4863510
 121.0255320  62.4156410  12.2682420 120.3035880  63.4335210  13.1253280
 122.7521580  61.7142960   5.3315940 123.1045400  61.1171090   4.6717310
 121.8683910  61.3887190   5.5024190 118.8384860  62.4740650   2.7386350
 119.5255990  63.0209860   3.1193940 118.0517280  63.0181380   2.7735960
 118.1412070  59.4786680   2.3511710 118.5974850  60.2891930   2.5771900
 117.7900280  59.1609820   3.1830200 120.4444680  64.9893020   9.5804010
 121.0886900  65.1952400  10.2577430 120.8074120  64.2281420   9.1274860
 114.0423850  49.8224330   2.8234230 113.9138480  49.8142230   3.7719150
 113.2185870  50.1607420   2.4725240 121.7176760  62.9925370   8.2981460
 122.3598990  62.2918530   8.4113630 122.2426110  63.7723810   8.1178350
 123.4914380  63.7920270  11.5017520 123.8270620  64.3786960  12.1795440
 122.5714720  63.6612980  11.7315310 111.0417780  51.5815450  12.2840930
 110.3276300  51.7812370  12.8893540 111.4612820  50.8055020  12.6555730
 111.3290370  65.5695710  13.2707460 111.4381490  64.6290450  13.1302850
 110.6770930  65.8350460  12.6221190 119.3202960  63.8411600  14.6705580
 118.9999830  63.1220840  15.2151270 118.6461320  64.5166670  14.7441640
 122.5356560  54.0737760  10.0342380 122.9037380  53.2532970  10.3621950
 121.6754760  54.1339650  10.4498030 117.8702620  55.3080650   2.2587820
 117.1618770  55.7766990   2.7001430 118.1547100  54.6502660   2.8933010
 119.4958550  56.7277350  10.2580350 119.9943800  57.2023170  10.9232200
 119.6381500  55.8040870  10.4650380 121.9018050  52.0331310   3.6983610
 121.7785830  52.0517440   2.7493120 122.8502610  52.0810250   3.8182010
 118.9894840  67.2686610   2.9711590 119.2436340  67.2308000   2.0490960
 118.0407320  67.1419940   2.9639840 114.4690530  67.4518550   5.8941490
 115.2053010  66.9034010   6.1650060 114.8531450  68.3174560   5.7547480
 111.3536010  63.5192120   1.7683000 110.4275790  63.7613260   1.7588410
 111.8192440  64.3466380   1.6467750 113.4748810  66.6364620  15.0827070
 114.2761540  66.9576670  15.4962470 112.9600630  66.2760200  15.8046980
 122.3113440  62.7444490  15.0302480 121.7051600  62.7676090  14.2898230
 122.0067550  62.0127530  15.5669730 123.7413810  66.4724780  13.6411890
 124.6935560  66.3882800  13.5912130 123.5942030  67.1366490  14.3145680
 111.1946620  59.1238080  14.0263120 111.6985640  58.5445360  14.5979350
 110.4554040  59.4078310  14.5639490 118.2484560  60.5309070  13.5598640
 117.4830230  61.0994070  13.4753310 118.4300520  60.2385280  12.6666870
 113.2269700  57.2667670  14.9213190 113.2675040  56.9681540  15.8298420
 114.0815200  57.6675280  14.7620710 115.1675510  55.8459770  12.8887680
 114.6371970  55.3550720  12.2611020 115.8363580  56.2743970  12.3545610
 124.0653570  60.3129230  12.6528870 124.4794590  60.4674310  13.5019290
 123.1304570  60.4384450  12.8154650 124.5375740  57.6525390  14.6568020
 125.1196510  56.8977710  14.5688500 124.7137510  58.1832830  13.8799500
 115.6547810  52.8122140  12.9684970 115.5604680  52.1942890  12.2435840
 115.0745200  53.5388430  12.7414880 118.4209250  51.3695380  10.0012360
 117.9726550  51.3919640   9.1557910 117.7874450  50.9714400  10.5982660
 118.8268800  60.2649710  10.6224800 119.2456910  61.1082440  10.4501040
 117.9077430  60.4021750  10.3931580 121.1632700  57.9965890  12.0062640
 121.2828910  57.4007030  12.7457480 122.0226700  58.0335580  11.5863940
 123.5020600  58.5503080  10.5825150 122.9755820  59.0745700   9.9790290
 123.8451940  59.1830470  11.2134880 116.6776220  66.5702720  11.7382530
 116.1397310  67.2948780  11.4191230 116.9310180  66.0933060  10.9479870
 117.9301470  54.5387240  13.2638460 118.5201160  54.2303090  13.9516280
 117.1121710  54.0666990  13.4198360 122.7494900  54.1553050  13.4971480
 122.0610420  53.4934590  13.4321470 123.4700920  53.7091320  13.9419940
 119.5338430  67.8053930  11.9969180 119.4597130  68.7089070  12.3041550
 118.6317270  67.4865830  11.9691250 110.9365720  65.1328520   5.3002800
 111.2668730  64.2649580   5.0681440 111.3656720  65.3387040   6.1307760
 115.5327640  63.4637530   2.9604770 115.2323180  63.3402500   3.8608680
 115.4265130  62.6046120   2.5520500 111.4255930  65.9999110   8.0384430
 110.9886920  66.1799910   8.8708580 111.9933610  66.7573730   7.8966150
 111.2580360  58.5119340   4.3973310 110.6029200  58.2430980   3.7533010
 112.0958310  58.4023820   3.9475290 112.2956290  58.8971910   8.9376650
 112.6629330  58.8099310   9.8172670 111.7267110  58.1338460   8.8383510
 111.8472290  55.8081000  12.8435070 110.9528340  55.7747760  13.1828780
 112.3869840  56.0067790  13.6086320 112.3512000  50.0829330   7.1918290
 112.9988190  49.5326710   6.7513450 112.7713840  50.3372480   8.0134100
 112.1044000  50.2385000   9.9343610 111.7558820  50.6948820  10.7001790
 111.7731700  49.3442130  10.0166040 113.7108370  63.4104600  14.0996800
 113.6678000  63.0397510  14.9811260 113.8419380  64.3482170  14.2398620
 117.4114400  64.9664190   9.7006520 117.1705760  65.2338750   8.8137040
 118.3517040  65.1369920   9.7557380 119.6168820  51.4296880  13.4563030
 119.5557710  52.0218710  14.2058440 120.5569200  51.3222840  13.3113290
 122.2543380  51.0866940  13.0955320 122.8683790  51.4046230  12.4336400
 122.7992940  50.6015530  13.7151180 112.7764640  49.7661200  13.2094380
 113.3247630  49.5849250  12.4460490 112.8419950  48.9755310  13.7450690
 113.5496400  66.3566850  11.2194580 112.9556720  66.2251550  11.9584620
 113.5420240  65.5204990  10.7536680 122.9951420  49.6499080   9.4224610
 122.1211260  49.9834190   9.2197540 122.8862170  49.1772260  10.2476480
 123.9023400  51.8569950  10.8066330 123.5736760  51.0421710  10.4268060
 124.8505700  51.8139760  10.6832020 113.1808630  63.7225230  10.1702620
 112.4542690  63.1030520  10.1028570 113.2417780  64.1165840   9.3000700
 116.7853730  65.9370230   6.9552030 117.3018750  65.3257590   6.4300290
 117.4351110  66.4399010   7.4463040 119.5249230  66.8278720   7.7821010
 119.8127040  66.5733020   6.9054020 120.0372450  66.2756080   8.3726580
 120.7426240  50.5668920   8.3617520 119.9598030  51.0414420   8.6414280
 120.4489170  49.6623750   8.2530700 111.4638630  67.0399620   3.3799380
 111.2960670  66.4070300   4.0781270 110.5973140  67.2459020   3.0293570
 118.6280460  52.9855670   3.8733550 117.8154970  52.6112560   3.5329430
 119.1322100  52.2300750   4.1754740 123.1305440  49.6498120   5.1116620
 123.7334810  50.2218330   5.5865140 122.3898430  50.2137560   4.8890520
 116.6529640  51.1355590   2.4778600 116.0232380  50.4342900   2.6448730
 116.1134780  51.8959720   2.2611760 119.5921590  67.7494820  15.1489210
 120.5188900  67.5139090  15.1925170 119.5772020  68.5766820  14.6675240
 116.7785200  50.4139570  14.9131090 116.4969470  50.9173170  14.1491910
 117.1604900  49.6161320  14.5473220 123.3800660  49.8293150  15.4911560
 123.2666110  50.1487760  16.3863080 124.1970400  50.2305660  15.1948840
 122.2858810  39.0742130  98.5007240 122.2052860  38.1596740  98.2298950
 121.8723230  39.5709200  97.7946950 120.4176850  40.8521150 100.3816510
 119.6418950  40.3721590 100.6715080 121.0689780  40.1726800 100.2072670
 114.4342680  41.1640960 101.2592270 113.6027560  40.9089670 101.6588780
 115.0423660  41.2351730 101.9950190 124.4384280  45.2581340  99.1615640
 123.9765810  44.4868580  99.4902810 125.2509830  45.2847410  99.6668090
 114.4143940  45.1981050 101.4550290 114.7171980  44.3078790 101.2760510
 115.1587530  45.7551270 101.2272540 112.8434630  36.1242850  95.0434660
 111.9551330  36.4658820  94.9414540 113.1275820  35.9243170  94.1515490
 110.8067640  38.7248500 100.9274360 111.3783750  37.9570700 100.9278000
 110.8069180  39.0237260 100.0180970 120.6647590  47.5439350  98.7819630
 120.0459030  47.9996850  98.2114070 121.5199370  47.6990810  98.3809330
 119.8585840  43.5278340 100.3886670 119.7894120  42.5868280 100.2275800
 120.6205700  43.6179750 100.9609240 112.0492510  34.1332860 102.7143290
 111.8695350  33.2358610 102.9946050 111.6472590  34.6804730 103.3890240
 120.8891010  36.3348720 100.6155600 121.2655830  35.4620600 100.5029270
 120.7910520  36.6707420  99.7246040 115.0196020  34.7074350  96.0773040
 115.1262770  35.6078080  96.3841800 114.1088380  34.6592320  95.7867690
 112.6679180  36.6293360 101.3225630 113.3489290  36.8931730 101.9413030
 112.3527230  35.7894230 101.6563640 116.8603750  37.6760720 100.4098220
 117.3681970  38.1741690 101.0503240 117.3916990  36.8995920 100.2337580
 115.1439850  32.3159280 104.6761640 115.1458290  32.8331670 103.8707540
 114.3144160  31.8389460 104.6531570 121.5310940  42.4278590  96.1751540
 120.9128210  42.8928040  95.6114260 122.0434190  43.1206070  96.5921050
 116.3942700  41.9554460 102.8535140 116.0612080  42.5823380 103.4956210
 116.5709380  42.4816340 102.0736810 124.9076610  35.7699540 100.3211480
 124.2032180  36.0584430 100.9014590 125.2688770  36.5799650  99.9611040
 114.8255180  34.0269240 102.6832090 115.1671990  34.8711290 102.3885960
 113.8870990  34.1752980 102.7997430 115.6061800  43.9235260 104.6684320
 116.2235800  44.5986340 104.3868770 114.7454920  44.3323240 104.5771820
 110.8994140  43.1135120  93.5491170 110.5222120  43.6022220  92.8176070
 111.1567210  43.7860400  94.1797700 118.5083070  31.5151510  99.0076680
 118.8158050  30.9598400  98.2912180 117.5783770  31.6495970  98.8249670
 124.0598130  47.2318800 101.2984140 124.0725290  46.8281090 100.4306400
 123.5073350  48.0066090 101.1945570 123.4583570  42.1348640 102.6266750
 123.8752360  41.9208750 101.7920210 124.1823390  42.3921430 103.1975370
 120.8963830  39.5800340  95.7436800 119.9693110  39.5137720  95.9725270
 121.0488650  40.5180470  95.6292040 120.8832910  35.8517340  92.7403960
 119.9436580  36.0131300  92.8256420 121.2016170  36.5703020  92.1939950
 124.9261120  41.1420640  96.2472050 124.3073540  40.8040190  95.5998350
 124.9085570  40.4980400  96.9551240 124.3687680  37.3205180 103.6637860
 123.9558860  38.1458890 103.9177850 123.6363630  36.7350220 103.4714220
 116.5020470  40.1065080  98.5256530 116.0977470  39.3942330  98.0302430
 116.5883590  39.7618320  99.4144570 116.9702170  43.7932640 100.6895740
 116.6730460  43.1878110 100.0103520 117.9201990  43.8309950 100.5785100
 115.2149090  36.8808290 102.3055570 115.7663680  36.9903630 101.5308820
 115.7292600  37.2545890 103.0210800 125.0587780  47.3664510 104.3518840
 124.5818340  48.1736700 104.1591450 124.3749570  46.7142840 104.5045050
 123.1025820  40.3807450  93.2544800 123.5419100  39.5429880  93.1082620
 123.8154240  41.0136850  93.3408940 121.2121200  45.3203520  97.2226040
 121.6517110  46.0627850  96.8081430 121.1508090  45.5630090  98.1465000
 113.2025100  39.0010060  96.0263180 113.0822700  39.7272150  95.4144450
 112.8925990  38.2312970  95.5491090 110.8410470  42.1725200 101.8331820
 110.9190890  42.3073970 100.8887540 111.4552150  41.4641090 102.0259940
 112.0858100  43.8725390  98.2438000 111.6786180  44.0139980  97.3891600
 112.9771110  43.5885550  98.0409210 123.8791380  48.3072640  94.5789050
 123.7192520  48.0175580  95.4770880 123.7138090  47.5312770  94.0434280
 116.3579760  48.0871170  96.3560670 116.1822240  47.1706710  96.1428470
 115.5035500  48.4458460  96.5958470 123.5817510  45.8160200  93.1387050
 122.8882670  45.8137490  92.4789330 124.3240370  45.3919520  92.7081220
 123.1467440  47.4422910  97.2135540 123.6024390  46.6612290  97.5274160
 123.4859960  48.1529730  97.7576720 115.6688760  32.3445130  99.4086850
 115.2256910  33.1254670  99.0771370 116.2273750  32.6675020 100.1157790
 118.7847580  31.9655830  94.2892680 118.1601760  31.9615700  95.0145990
 118.6977700  31.0986790  93.8928650 117.7064660  32.8892460 101.2676450
 118.0036990  33.7955290 101.1868470 118.2550220  32.4011240 100.6536020
 115.4602980  37.4678700  97.1368100 115.2343900  37.2515870  98.0414720
 114.6795510  37.9007160  96.7914070 122.6900740  37.4742070  95.7358750
 122.0909630  38.1977870  95.5522370 123.2380350  37.4118850  94.9535200
 121.2965610  36.1105610  97.7662030 121.6895180  36.4277810  96.9530720
 121.6582460  35.2317490  97.8806550 110.3329780  32.7006410  99.9892230
 110.0442830  33.2709270 100.7017210 111.0775540  32.2210860 100.3523460
 110.5200010  36.6426530  91.1994950 110.4374680  37.5857290  91.3409940
 110.1683070  36.5001440  90.3207300 121.8820750  38.7011360 101.8612810
 121.1501870  39.2098170 102.2102910 121.4845090  37.8841340 101.5601590
 118.3198140  35.3765560 100.2665300 118.3234200  34.9355510  99.4169840
 119.2149260  35.6982890 100.3737120 114.1700520  35.2592050  99.2259510
 113.8300570  35.7367280  99.9826560 113.4077840  34.8057170  98.8660610
 118.3818290  36.3777640  93.2572060 118.5031110  36.3364120  94.2057880
 117.9966800  37.2401790  93.1018790 122.3446660  34.1545040 101.2735750
 122.3619400  34.6053690 102.1177600 122.0962240  33.2550680 101.4869190
 117.3939790  38.6878780  92.6555360 116.8256690  38.2397030  92.0291270
 118.1028790  39.0471560  92.1220510 118.6206110  39.4367340 102.0130710
 118.9876240  38.9625910 102.7592050 118.4311170  40.3108910 102.3539050
 111.4846600  34.1811030  98.1424180 111.1993520  33.8166700  98.9802800
 111.4225460  33.4491490  97.5287320 116.4105480  38.4775980 104.3314920
 116.1062550  39.3567960 104.5565280 117.3651940  38.5375770 104.3672360
 114.9387270  42.6836970  94.9281770 114.1649530  42.1434590  94.7680490
 115.6681900  42.1643580  94.5899530 121.1585190  33.0740290  94.8637550
 120.3449800  32.5753460  94.7882860 120.9647140  33.9138540  94.4473900
 123.8733580  37.4459940  93.1599710 124.7613200  37.7577170  92.9851050
 123.8438670  36.5732190  92.7680290 114.9824670  42.3517350  98.5660580
 115.5003340  41.5485610  98.5117470 114.5308690  42.2896490  99.4077410
 119.8694170  43.6183630  93.8387880 120.2109870  44.3625860  93.3431200
 119.0406880  43.9314750  94.2012710 122.7521580  42.9399470  99.2033390
 123.1045400  42.3427600  98.5434760 121.8683910  42.6143700  99.3741640
 118.8384860  43.6997160  96.6103800 119.5255990  44.2466370  96.9911390
 118.0517280  44.2437890  96.6453410 110.9777260  39.3169980  92.1020880
 111.8472110  39.5994780  92.3856800 110.4867580  40.1305850  91.9869690
 118.1412070  40.7043190  96.2229160 118.5974850  41.5148440  96.4489350
 117.7900280  40.3866330  97.0547650 120.4444680  46.2149530 103.4521460
 121.0886900  46.4208910 104.1294880 120.8074120  45.4537930 102.9992310
 114.0423850  31.0480840  96.6951680 113.9138480  31.0398740  97.6436600
 113.2185870  31.3863930  96.3442690 121.7176760  44.2181880 102.1698910
 122.3598990  43.5175040 102.2831080 122.2426110  44.9980320 101.9895800
 111.3448510  48.5297360  92.6682510 111.7046150  49.1286700  92.0139780
 111.2040850  49.0757250  93.4417540 117.3617130  45.9128560  93.4856180
 117.3527230  46.6458250  92.8700690 116.4415490  45.6660140  93.5783140
 112.9623770  41.1343450  94.2302940 112.3551720  41.8742350  94.2398240
 113.4373120  41.2242810  93.4041140 122.5356560  35.2994270 103.9059830
 122.9037380  34.4789480 104.2339400 121.6754760  35.3596160 104.3215480
 120.3476730  45.9756800  92.1481370 120.4488710  45.7720790  91.2183350
 119.4478470  45.7215080  92.3529150 117.8702620  36.5337160  96.1305270
 117.1618770  37.0023500  96.5718880 118.1547100  35.8759170  96.7650460
 119.4958550  37.9533860 104.1297800 119.9943800  38.4279680 104.7949650
 119.6381500  37.0297380 104.3367830 121.9018050  33.2587820  97.5701060
 121.7785830  33.2773950  96.6210570 122.8502610  33.3066760  97.6899460
 118.9894840  48.4943120  96.8429040 119.2436340  48.4564510  95.9208410
 118.0407320  48.3676450  96.8357290 116.0737640  34.8422240  93.5055980
 116.9228170  35.2792390  93.4396170 115.7068910  35.1542500  94.3328040
 114.9729060  41.0954600  91.9791510 115.7392330  40.9835960  92.5416940
 115.0503750  40.3992570  91.3268280 113.6675820  38.5279670  92.6624400
 113.7479410  37.5807180  92.7741800 114.5595570  38.8586550  92.7685060
 114.4690530  48.6775060  99.7658940 115.2053010  48.1290520 100.0367510
 114.8531450  49.5431070  99.6264930 111.3536010  44.7448630  95.6400450
 110.4275790  44.9869770  95.6305860 111.8192440  45.5722890  95.5185200
 117.5792840  47.8505370  91.5884510 118.3721450  48.1394200  91.1366300
 117.0597190  47.4197540  90.9096990 118.0970240  43.0708780  91.4526860
 117.9920880  42.4561130  92.1788240 117.9294460  42.5474670  90.6689870
 121.3372970  42.1328810  92.0568850 120.7883070  42.5798110  92.7011590
 121.9592230  41.6278060  92.5806520 117.0048090  41.0919730  93.9534150
 117.4264510  40.9259600  94.7965540 117.1298930  40.2819960  93.4589290
 119.5175730  40.1157340  91.2011250 120.0381390  39.4006360  90.8352400
 120.1644130  40.7543210  91.5011760 118.4209250  32.5951890 103.8729810
 117.9726550  32.6176150 103.0275360 117.7874450  32.1970910 104.4700110
 118.8268800  41.4906220 104.4942250 119.2456910  42.3338950 104.3218490
 117.9077430  41.6278260 104.2649030 115.9006990  37.1652960  90.8992310
 115.6996050  36.3020320  91.2605650 115.7299040  37.0786320  89.9613910
 123.3795300  31.9761190  93.4279190 123.6597590  31.1329090  93.7838610
 122.6061030  32.2084300  93.9417940 114.6989790  34.2653580  90.8870190
 115.0015690  34.2721010  89.9789340 115.4384380  33.9151440  91.3837850
 117.9174720  33.2088200  91.8726390 117.5696720  32.5312190  91.2928840
 118.1187490  32.7477710  92.6869780 120.0823760  48.1968950  93.4912990
 120.9774550  48.5353920  93.5131750 120.1141390  47.4748360  92.8637270
 113.7219920  43.5696000  91.7199990 114.1594790  44.1125670  92.3757570
 114.2067650  42.7442950  91.7296330 110.9365720  46.3585030  99.1720250
 111.2668730  45.4906090  98.9398890 111.3656720  46.5643550 100.0025210
 115.5327640  44.6894040  96.8322220 115.2323180  44.5659010  97.7326130
 115.4265130  43.8302630  96.4237950 111.4255930  47.2255620 101.9101880
 110.9886920  47.4056420 102.7426030 111.9933610  47.9830240 101.7683600
 111.2580360  39.7375850  98.2690760 110.6029200  39.4687490  97.6250460
 112.0958310  39.6280330  97.8192740 124.2070800  34.5317140  92.4909250
 124.6255680  34.3448120  91.6505910 123.9006860  33.6796190  92.8012180
 112.2956290  40.1228420 102.8094100 112.6629330  40.0355820 103.6890120
 111.7267110  39.3594970 102.7100960 110.4718440  36.9474780  94.2116090
 109.5682520  37.2104980  94.0367750 110.9559060  37.2185950  93.4316050
 113.0145650  36.0040320  92.1210470 113.7237350  35.5823540  91.6357750
 112.2985590  36.0715550  91.4893820 112.6619810  32.0579650  91.1613120
 113.3847940  32.5988590  91.4794340 112.9344330  31.7843070  90.2854660
 112.3512000  31.3085840 101.0635740 112.9988190  30.7583220 100.6230900
 112.7713840  31.5628990 101.8851550 112.1044000  31.4641510 103.8061060
 111.7558820  31.9205330 104.5719240 111.7731700  30.5698640 103.8883490
 117.4114400  46.1920700 103.5723970 117.1705760  46.4595260 102.6854490
 118.3517040  46.3626430 103.6274830 122.9951420  30.8755590 103.2942060
 122.1211260  31.2090700 103.0914990 122.8862170  30.4028770 104.1193930
 123.9023400  33.0826460 104.6783780 123.5736760  32.2678220 104.2985510
 124.8505700  33.0396270 104.5549470 113.1808630  44.9481740 104.0420070
 112.4542690  44.3287030 103.9746020 113.2417780  45.3422350 103.1718150
 116.7853730  47.1626740 100.8269480 117.3018750  46.5514100 100.3017740
 117.4351110  47.6655520 101.3180490 119.5249230  48.0535230 101.6538460
 119.8127040  47.7989530 100.7771470 120.0372450  47.5012590 102.2444030
 120.7426240  31.7925430 102.2334970 119.9598030  32.2670930 102.5131730
 120.4489170  30.8880260 102.1248150 111.4638630  48.2656130  97.2516830
 111.2960670  47.6326810  97.9498720 110.5973140  48.4715530  96.9011020
 112.0866650  32.0972910  94.7548690 112.8446010  32.2101790  94.1812720
 111.6243820  32.9342110  94.7092120 118.6280460  34.2112180  97.7451000
 117.8154970  33.8369070  97.4046880 119.1322100  33.4557260  98.0472190
 123.1305440  30.8754630  98.9834070 123.7334810  31.4474840  99.4582590
 122.3898430  31.4394070  98.7607970 113.0701330  46.9589360  94.6966970
 112.5448950  47.3397390  93.9928930 112.9945910  47.5840130  95.4176680
 114.4591800  32.6236960  93.2950660 114.9884560  31.8366760  93.1658610
 115.0920120  33.3028150  93.5286190 116.6529640  32.3612100  96.3496050
 116.0232380  31.6599410  96.5166180 116.1134780  33.1216230  96.1329210
 115.6694300  48.9071740  93.5716220 116.4013120  48.6231020  93.0240110
 115.9287970  48.6685020  94.4615600 114.8309090  45.0236470  93.5762550
 114.2017970  45.4921570  94.1248380 114.9456920  44.1785690  94.0108740
 122.2858810  39.0742130  79.7263750 122.2052860  38.1596740  79.4555460
 121.8723230  39.5709200  79.0203460 120.4176850  40.8521150  81.6073020
 119.6418950  40.3721590  81.8971590 121.0689780  40.1726800  81.4329180
 114.4342680  41.1640960  82.4848780 113.6027560  40.9089670  82.8845290
 115.0423660  41.2351730  83.2206700 124.4384280  45.2581340  80.3872150
 123.9765810  44.4868580  80.7159320 125.2509830  45.2847410  80.8924600
 114.4143940  45.1981050  82.6806800 114.7171980  44.3078790  82.5017020
 115.1587530  45.7551270  82.4529050 112.8434630  36.1242850  76.2691170
 111.9551330  36.4658820  76.1671050 113.1275820  35.9243170  75.3772000
 110.8067640  38.7248500  82.1530870 111.3783750  37.9570700  82.1534510
 110.8069180  39.0237260  81.2437480 120.6647590  47.5439350  80.0076140
 120.0459030  47.9996850  79.4370580 121.5199370  47.6990810  79.6065840
 119.8585840  43.5278340  81.6143180 119.7894120  42.5868280  81.4532310
 120.6205700  43.6179750  82.1865750 112.0492510  34.1332860  83.9399800
 111.8695350  33.2358610  84.2202560 111.6472590  34.6804730  84.6146750
 120.8891010  36.3348720  81.8412110 121.2655830  35.4620600  81.7285780
 120.7910520  36.6707420  80.9502550 115.0196020  34.7074350  77.3029550
 115.1262770  35.6078080  77.6098310 114.1088380  34.6592320  77.0124200
 112.6679180  36.6293360  82.5482140 113.3489290  36.8931730  83.1669540
 112.3527230  35.7894230  82.8820150 116.8603750  37.6760720  81.6354730
 117.3681970  38.1741690  82.2759750 117.3916990  36.8995920  81.4594090
 115.1439850  32.3159280  85.9018150 115.1458290  32.8331670  85.0964050
 114.3144160  31.8389460  85.8788080 121.5310940  42.4278590  77.4008050
 120.9128210  42.8928040  76.8370770 122.0434190  43.1206070  77.8177560
 116.3942700  41.9554460  84.0791650 116.0612080  42.5823380  84.7212720
 116.5709380  42.4816340  83.2993320 124.9076610  35.7699540  81.5467990
 124.2032180  36.0584430  82.1271100 125.2688770  36.5799650  81.1867550
 114.8255180  34.0269240  83.9088600 115.1671990  34.8711290  83.6142470
 113.8870990  34.1752980  84.0253940 115.6061800  43.9235260  85.8940830
 116.2235800  44.5986340  85.6125280 114.7454920  44.3323240  85.8028330
 118.5083070  31.5151510  80.2333190 118.8158050  30.9598400  79.5168690
 117.5783770  31.6495970  80.0506180 124.0598130  47.2318800  82.5240650
 124.0725290  46.8281090  81.6562910 123.5073350  48.0066090  82.4202080
 123.4583570  42.1348640  83.8523260 123.8752360  41.9208750  83.0176720
 124.1823390  42.3921430  84.4231880 120.8963830  39.5800340  76.9693310
 119.9693110  39.5137720  77.1981780 121.0488650  40.5180470  76.8548550
 120.8832910  35.8517340  73.9660470 119.9436580  36.0131300  74.0512930
 121.2016170  36.5703020  73.4196460 124.9261120  41.1420640  77.4728560
 124.3073540  40.8040190  76.8254860 124.9085570  40.4980400  78.1807750
 124.3687680  37.3205180  84.8894370 123.9558860  38.1458890  85.1434360
 123.6363630  36.7350220  84.6970730 116.5020470  40.1065080  79.7513040
 116.0977470  39.3942330  79.2558940 116.5883590  39.7618320  80.6401080
 116.9702170  43.7932640  81.9152250 116.6730460  43.1878110  81.2360030
 117.9201990  43.8309950  81.8041610 115.2149090  36.8808290  83.5312080
 115.7663680  36.9903630  82.7565330 115.7292600  37.2545890  84.2467310
 125.0587780  47.3664510  85.5775350 124.5818340  48.1736700  85.3847960
 124.3749570  46.7142840  85.7301560 116.0620600  43.5314330  88.5660050
 115.1649130  43.7554300  88.8133450 116.0873470  43.6549270  87.6171450
 123.1025820  40.3807450  74.4801310 123.5419100  39.5429880  74.3339130
 123.8154240  41.0136850  74.5665450 114.8891820  40.4027650  87.1417420
 114.7499590  41.2750450  87.5104820 114.0073180  40.0600460  86.9965360
 121.2121200  45.3203520  78.4482550 121.6517110  46.0627850  78.0337940
 121.1508090  45.5630090  79.3721510 116.6872170  46.3449350  89.3502570
 116.6587600  46.7492300  88.4831000 116.5237140  45.4159710  89.1874170
 113.2025100  39.0010060  77.2519690 113.0822700  39.7272150  76.6400960
 112.8925990  38.2312970  76.7747600 121.9036980  48.0217300  86.3761560
 122.4181650  47.9325310  87.1783990 121.0606060  48.3677000  86.6689470
 123.8791380  48.3072640  75.8045560 123.7192520  48.0175580  76.7027390
 123.7138090  47.5312770  75.2690790 116.3579760  48.0871170  77.5817180
 116.1822240  47.1706710  77.3684980 115.5035500  48.4458460  77.8214980
 123.5817510  45.8160200  74.3643560 122.8882670  45.8137490  73.7045840
 124.3240370  45.3919520  73.9337730 123.1467440  47.4422910  78.4392050
 123.6024390  46.6612290  78.7530670 123.4859960  48.1529730  78.9833230
 110.8969990  43.2139370  85.5982790 111.0601030  42.7444730  84.7802160
 111.3622440  42.7062930  86.2631630 115.6688760  32.3445130  80.6343360
 115.2256910  33.1254670  80.3027880 116.2273750  32.6675020  81.3414300
 119.9558570  35.2113650  86.2378680 119.4937940  35.4196670  87.0498620
 119.5536680  34.3973000  85.9349350 124.9563080  36.4322600  87.3675340
 124.1056670  36.1328350  87.6884410 124.7964870  36.6764610  86.4559160
 122.0512790  37.9324350  89.4674130 122.3766200  37.0988100  89.1276360
 122.8393120  38.4552870  89.6152460 118.7847580  31.9655830  75.5149190
 118.1601760  31.9615700  76.2402500 118.6977700  31.0986790  75.1185160
 117.7064660  32.8892460  82.4932960 118.0036990  33.7955290  82.4124980
 118.2550220  32.4011240  81.8792530 115.4602980  37.4678700  78.3624610
 115.2343900  37.2515870  79.2671230 114.6795510  37.9007160  78.0170580
 122.6900740  37.4742070  76.9615260 122.0909630  38.1977870  76.7778880
 123.2380350  37.4118850  76.1791710 117.9002190  38.3664280  89.0284880
 117.8045790  37.4259010  88.8785280 118.7434170  38.5879350  88.6332950
 121.2965610  36.1105610  78.9918540 121.6895180  36.4277810  78.1787230
 121.6582460  35.2317490  79.1063060 113.0312730  34.7777950  87.1818660
 112.6376120  35.6253160  87.3891440 112.3431130  34.1404320  87.3727300
 119.6057780  34.8612920  90.2515400 118.9156100  34.6685120  90.8861490
 120.3490080  35.1447560  90.7839700 110.3329780  32.7006410  81.2148740
 110.0442830  33.2709270  81.9273720 111.0775540  32.2210860  81.5779970
 121.8820750  38.7011360  83.0869320 121.1501870  39.2098170  83.4359420
 121.4845090  37.8841340  82.7858100 118.3198140  35.3765560  81.4921810
 118.3234200  34.9355510  80.6426350 119.2149260  35.6982890  81.5993630
 114.1700520  35.2592050  80.4516020 113.8300570  35.7367280  81.2083070
 113.4077840  34.8057170  80.0917120 118.3818290  36.3777640  74.4828570
 118.5031110  36.3364120  75.4314390 117.9966800  37.2401790  74.3275300
 122.3446660  34.1545040  82.4992260 122.3619400  34.6053690  83.3434110
 122.0962240  33.2550680  82.7125700 117.3939790  38.6878780  73.8811870
 116.8256690  38.2397030  73.2547780 118.1028790  39.0471560  73.3477020
 112.4708970  42.5890800  87.7578600 112.0863760  41.9484470  88.3561560
 112.7821160  43.2926920  88.3273330 118.6206110  39.4367340  83.2387220
 118.9876240  38.9625910  83.9848560 118.4311170  40.3108910  83.5795560
 111.4846600  34.1811030  79.3680690 111.1993520  33.8166700  80.2059310
 111.4225460  33.4491490  78.7543830 116.4105480  38.4775980  85.5571430
 116.1062550  39.3567960  85.7821790 117.3651940  38.5375770  85.5928870
 121.1585190  33.0740290  76.0894060 120.3449800  32.5753460  76.0139370
 120.9647140  33.9138540  75.6730410 121.0794050  41.7511390  87.8333670
 121.0131360  40.8307060  87.5791260 120.4499190  41.8486830  88.5478310
 123.8733580  37.4459940  74.3856220 124.7613200  37.7577170  74.2107560
 123.8438670  36.5732190  73.9936800 114.9824670  42.3517350  79.7917090
 115.5003340  41.5485610  79.7373980 114.5308690  42.2896490  80.6333920
 119.8694170  43.6183630  75.0644390 120.2109870  44.3625860  74.5687710
 119.0406880  43.9314750  75.4269220 112.4669210  39.3178720  86.7042790
 112.1084150  39.9832570  87.2916130 112.1723770  38.4862270  87.0755410
 115.6682330  39.7762960  89.5882340 115.3682470  39.9220140  88.6910160
 116.4393570  39.2168250  89.4955730 121.0110780  44.5731960  87.5837470
 121.0255320  43.6412920  87.3656380 120.3035880  44.6591720  88.2227240
 122.7521580  42.9399470  80.4289900 123.1045400  42.3427600  79.7691270
 121.8683910  42.6143700  80.5998150 118.8384860  43.6997160  77.8360310
 119.5255990  44.2466370  78.2167900 118.0517280  44.2437890  77.8709920
 118.1412070  40.7043190  77.4485670 118.5974850  41.5148440  77.6745860
 117.7900280  40.3866330  78.2804160 120.4444680  46.2149530  84.6777970
 121.0886900  46.4208910  85.3551390 120.8074120  45.4537930  84.2248820
 114.0423850  31.0480840  77.9208190 113.9138480  31.0398740  78.8693110
 113.2185870  31.3863930  77.5699200 121.7176760  44.2181880  83.3955420
 122.3598990  43.5175040  83.5087590 122.2426110  44.9980320  83.2152310
 123.4914380  45.0176780  86.5991480 123.8270620  45.6043470  87.2769400
 122.5714720  44.8869490  86.8289270 111.0417780  32.8071960  87.3814890
 110.3276300  33.0068880  87.9867500 111.4612820  32.0311530  87.7529690
 111.3290370  46.7952220  88.3681420 111.4381490  45.8546960  88.2276810
 110.6770930  47.0606970  87.7195150 119.3202960  45.0668110  89.7679540
 118.9999830  44.3477350  90.3125230 118.6461320  45.7423180  89.8415600
 117.3617130  45.9128560  74.7112690 117.3527230  46.6458250  74.0957200
 116.4415490  45.6660140  74.8039650 122.5356560  35.2994270  85.1316340
 122.9037380  34.4789480  85.4595910 121.6754760  35.3596160  85.5471990
 120.3476730  45.9756800  73.3737880 120.4488710  45.7720790  72.4439860
 119.4478470  45.7215080  73.5785660 117.8702620  36.5337160  77.3561780
 117.1618770  37.0023500  77.7975390 118.1547100  35.8759170  77.9906970
 119.4958550  37.9533860  85.3554310 119.9943800  38.4279680  86.0206160
 119.6381500  37.0297380  85.5624340 121.9018050  33.2587820  78.7957570
 121.7785830  33.2773950  77.8467080 122.8502610  33.3066760  78.9155970
 118.9894840  48.4943120  78.0685550 119.2436340  48.4564510  77.1464920
 118.0407320  48.3676450  78.0613800 116.0737640  34.8422240  74.7312490
 116.9228170  35.2792390  74.6652680 115.7068910  35.1542500  75.5584550
 114.9729060  41.0954600  73.2048020 115.7392330  40.9835960  73.7673450
 115.0503750  40.3992570  72.5524790 113.6675820  38.5279670  73.8880910
 113.7479410  37.5807180  73.9998310 114.5595570  38.8586550  73.9941570
 113.4748810  47.8621130  90.1801030 114.2761540  48.1833180  90.5936430
 112.9600630  47.5016710  90.9020940 117.5792840  47.8505370  72.8141020
 118.3721450  48.1394200  72.3622810 117.0597190  47.4197540  72.1353500
 122.3113440  43.9701000  90.1276440 121.7051600  43.9932600  89.3872190
 122.0067550  43.2384040  90.6643690 123.7413810  47.6981290  88.7385850
 124.6935560  47.6139310  88.6886090 123.5942030  48.3623000  89.4119640
 111.1946620  40.3494590  89.1237080 111.6985640  39.7701870  89.6953310
 110.4554040  40.6334820  89.6613450 118.0970240  43.0708780  72.6783370
 117.9920880  42.4561130  73.4044750 117.9294460  42.5474670  71.8946380
 118.2484560  41.7565580  88.6572600 117.4830230  42.3250580  88.5727270
 118.4300520  41.4641790  87.7640830 121.3372970  42.1328810  73.2825360
 120.7883070  42.5798110  73.9268100 121.9592230  41.6278060  73.8063030
 113.2269700  38.4924180  90.0187150 113.2675040  38.1938050  90.9272380
 114.0815200  38.8931790  89.8594670 117.0048090  41.0919730  75.1790660
 117.4264510  40.9259600  76.0222050 117.1298930  40.2819960  74.6845800
 115.1675510  37.0716280  87.9861640 114.6371970  36.5807230  87.3584980
 115.8363580  37.5000480  87.4519570 119.5175730  40.1157340  72.4267760
 120.0381390  39.4006360  72.0608910 120.1644130  40.7543210  72.7268270
 124.0653570  41.5385740  87.7502830 124.4794590  41.6930820  88.5993250
 123.1304570  41.6640960  87.9128610 124.5375740  38.8781900  89.7541980
 125.1196510  38.1234220  89.6662460 124.7137510  39.4089340  88.9773460
 115.6547810  34.0378650  88.0658930 115.5604680  33.4199400  87.3409800
 115.0745200  34.7644940  87.8388840 118.4209250  32.5951890  85.0986320
 117.9726550  32.6176150  84.2531870 117.7874450  32.1970910  85.6956620
 118.8268800  41.4906220  85.7198760 119.2456910  42.3338950  85.5475000
 117.9077430  41.6278260  85.4905540 121.1632700  39.2222400  87.1036600
 121.2828910  38.6263540  87.8431440 122.0226700  39.2592090  86.6837900
 123.5020600  39.7759590  85.6799110 122.9755820  40.3002210  85.0764250
 123.8451940  40.4086980  86.3108840 115.9006990  37.1652960  72.1248820
 115.6996050  36.3020320  72.4862160 115.7299040  37.0786320  71.1870420
 116.6776220  47.7959230  86.8356490 116.1397310  48.5205290  86.5165190
 116.9310180  47.3189570  86.0453830 117.9301470  35.7643750  88.3612420
 118.5201160  35.4559600  89.0490240 117.1121710  35.2923500  88.5172320
 122.7494900  35.3809560  88.5945440 122.0610420  34.7191100  88.5295430
 123.4700920  34.9347830  89.0393900 123.3795300  31.9761190  74.6535700
 123.6597590  31.1329090  75.0095120 122.6061030  32.2084300  75.1674450
 114.6989790  34.2653580  72.1126700 115.0015690  34.2721010  71.2045850
 115.4384380  33.9151440  72.6094360 119.5338430  49.0310440  87.0943140
 119.4597130  49.9345580  87.4015510 118.6317270  48.7122340  87.0665210
 117.9174720  33.2088200  73.0982900 117.5696720  32.5312190  72.5185350
 118.1187490  32.7477710  73.9126290 120.0823760  48.1968950  74.7169500
 120.9774550  48.5353920  74.7388260 120.1141390  47.4748360  74.0893780
 115.5327640  44.6894040  78.0578730 115.2323180  44.5659010  78.9582640
 115.4265130  43.8302630  77.6494460 124.2070800  34.5317140  73.7165760
 124.6255680  34.3448120  72.8762420 123.9006860  33.6796190  74.0268690
 112.2956290  40.1228420  84.0350610 112.6629330  40.0355820  84.9146630
 111.7267110  39.3594970  83.9357470 111.8472290  37.0337510  87.9409030
 110.9528340  37.0004270  88.2802740 112.3869840  37.2324300  88.7060280
 113.0145650  36.0040320  73.3466980 113.7237350  35.5823540  72.8614260
 112.2985590  36.0715550  72.7150330 112.6619810  32.0579650  72.3869630
 113.3847940  32.5988590  72.7050850 112.9344330  31.7843070  71.5111170
 112.3512000  31.3085840  82.2892250 112.9988190  30.7583220  81.8487410
 112.7713840  31.5628990  83.1108060 112.1044000  31.4641510  85.0317570
 111.7558820  31.9205330  85.7975750 111.7731700  30.5698640  85.1140000
 113.7108370  44.6361110  89.1970760 113.6678000  44.2654020  90.0785220
 113.8419380  45.5738680  89.3372580 117.4114400  46.1920700  84.7980480
 117.1705760  46.4595260  83.9111000 118.3517040  46.3626430  84.8531340
 119.6168820  32.6553390  88.5536990 119.5557710  33.2475220  89.3032400
 120.5569200  32.5479350  88.4087250 122.2543380  32.3123450  88.1929280
 122.8683790  32.6302740  87.5310360 122.7992940  31.8272040  88.8125140
 112.7764640  30.9917710  88.3068340 113.3247630  30.8105760  87.5434450
 112.8419950  30.2011820  88.8424650 113.5496400  47.5823360  86.3168540
 112.9556720  47.4508060  87.0558580 113.5420240  46.7461500  85.8510640
 122.9951420  30.8755590  84.5198570 122.1211260  31.2090700  84.3171500
 122.8862170  30.4028770  85.3450440 123.9023400  33.0826460  85.9040290
 123.5736760  32.2678220  85.5242020 124.8505700  33.0396270  85.7805980
 113.1808630  44.9481740  85.2676580 112.4542690  44.3287030  85.2002530
 113.2417780  45.3422350  84.3974660 116.7853730  47.1626740  82.0525990
 117.3018750  46.5514100  81.5274250 117.4351110  47.6655520  82.5437000
 119.5249230  48.0535230  82.8794970 119.8127040  47.7989530  82.0027980
 120.0372450  47.5012590  83.4700540 120.7426240  31.7925430  83.4591480
 119.9598030  32.2670930  83.7388240 120.4489170  30.8880260  83.3504660
 112.0866650  32.0972910  75.9805200 112.8446010  32.2101790  75.4069230
 111.6243820  32.9342110  75.9348630 118.6280460  34.2112180  78.9707510
 117.8154970  33.8369070  78.6303390 119.1322100  33.4557260  79.2728700
 123.1305440  30.8754630  80.2090580 123.7334810  31.4474840  80.6839100
 122.3898430  31.4394070  79.9864480 114.4591800  32.6236960  74.5207170
 114.9884560  31.8366760  74.3915120 115.0920120  33.3028150  74.7542700
 116.6529640  32.3612100  77.5752560 116.0232380  31.6599410  77.7422690
 116.1134780  33.1216230  77.3585720 119.5921590  48.9751330  90.2463170
 120.5188900  48.7395600  90.2899130 119.5772020  49.8023330  89.7649200
 116.7785200  31.6396080  90.0105050 116.4969470  32.1429680  89.2465870
 117.1604900  30.8417830  89.6447180 115.6694300  48.9071740  74.7972730
 116.4013120  48.6231020  74.2496620 115.9287970  48.6685020  75.6872110
 123.3800660  31.0549660  90.5885520 123.2666110  31.3744270  91.4837040
 124.1970400  31.4562170  90.2922800 122.2858810  39.0742130  60.9520260
 122.2052860  38.1596740  60.6811970 121.8723230  39.5709200  60.2459970
 120.4176850  40.8521150  62.8329530 119.6418950  40.3721590  63.1228100
 121.0689780  40.1726800  62.6585690 114.4342680  41.1640960  63.7105290
 113.6027560  40.9089670  64.1101800 115.0423660  41.2351730  64.4463210
 124.4384280  45.2581340  61.6128660 123.9765810  44.4868580  61.9415830
 125.2509830  45.2847410  62.1181110 114.4143940  45.1981050  63.9063310
 114.7171980  44.3078790  63.7273530 115.1587530  45.7551270  63.6785560
 112.8434630  36.1242850  57.4947680 111.9551330  36.4658820  57.3927560
 113.1275820  35.9243170  56.6028510 110.8067640  38.7248500  63.3787380
 111.3783750  37.9570700  63.3791020 110.8069180  39.0237260  62.4693990
 120.6647590  47.5439350  61.2332650 120.0459030  47.9996850  60.6627090
 121.5199370  47.6990810  60.8322350 119.8585840  43.5278340  62.8399690
 119.7894120  42.5868280  62.6788820 120.6205700  43.6179750  63.4122260
 112.0492510  34.1332860  65.1656310 111.8695350  33.2358610  65.4459070
 111.6472590  34.6804730  65.8403260 120.8891010  36.3348720  63.0668620
 121.2655830  35.4620600  62.9542290 120.7910520  36.6707420  62.1759060
 115.0196020  34.7074350  58.5286060 115.1262770  35.6078080  58.8354820
 114.1088380  34.6592320  58.2380710 112.6679180  36.6293360  63.7738650
 113.3489290  36.8931730  64.3926050 112.3527230  35.7894230  64.1076660
 116.8603750  37.6760720  62.8611240 117.3681970  38.1741690  63.5016260
 117.3916990  36.8995920  62.6850600 115.1439850  32.3159280  67.1274660
 115.1458290  32.8331670  66.3220560 114.3144160  31.8389460  67.1044590
 121.5310940  42.4278590  58.6264560 120.9128210  42.8928040  58.0627280
 122.0434190  43.1206070  59.0434070 116.3942700  41.9554460  65.3048160
 116.0612080  42.5823380  65.9469230 116.5709380  42.4816340  64.5249830
 124.9076610  35.7699540  62.7724500 124.2032180  36.0584430  63.3527610
 125.2688770  36.5799650  62.4124060 114.8255180  34.0269240  65.1345110
 115.1671990  34.8711290  64.8398980 113.8870990  34.1752980  65.2510450
 115.6061800  43.9235260  67.1197340 116.2235800  44.5986340  66.8381790
 114.7454920  44.3323240  67.0284840 110.8994140  43.1135120  56.0004190
 110.5222120  43.6022220  55.2689090 111.1567210  43.7860400  56.6310720
 118.5083070  31.5151510  61.4589700 118.8158050  30.9598400  60.7425200
 117.5783770  31.6495970  61.2762690 124.0598130  47.2318800  63.7497160
 124.0725290  46.8281090  62.8819420 123.5073350  48.0066090  63.6458590
 123.4583570  42.1348640  65.0779770 123.8752360  41.9208750  64.2433230
 124.1823390  42.3921430  65.6488390 120.8963830  39.5800340  58.1949820
 119.9693110  39.5137720  58.4238290 121.0488650  40.5180470  58.0805060
 120.8832910  35.8517340  55.1916980 119.9436580  36.0131300  55.2769440
 121.2016170  36.5703020  54.6452970 124.9261120  41.1420640  58.6985070
 124.3073540  40.8040190  58.0511370 124.9085570  40.4980400  59.4064260
 124.3687680  37.3205180  66.1150880 123.9558860  38.1458890  66.3690870
 123.6363630  36.7350220  65.9227240 116.5020470  40.1065080  60.9769550
 116.0977470  39.3942330  60.4815450 116.5883590  39.7618320  61.8657590
 116.9702170  43.7932640  63.1408760 116.6730460  43.1878110  62.4616540
 117.9201990  43.8309950  63.0298120 115.2149090  36.8808290  64.7568590
 115.7663680  36.9903630  63.9821840 115.7292600  37.2545890  65.4723820
 125.0587780  47.3664510  66.8031860 124.5818340  48.1736700  66.6104470
 124.3749570  46.7142840  66.9558070 116.0620600  43.5314330  69.7916560
 115.1649130  43.7554300  70.0389960 116.0873470  43.6549270  68.8427960
 123.1025820  40.3807450  55.7057820 123.5419100  39.5429880  55.5595640
 123.8154240  41.0136850  55.7921960 114.8891820  40.4027650  68.3673930
 114.7499590  41.2750450  68.7361330 114.0073180  40.0600460  68.2221870
 121.2121200  45.3203520  59.6739060 121.6517110  46.0627850  59.2594450
 121.1508090  45.5630090  60.5978020 116.6872170  46.3449350  70.5759080
 116.6587600  46.7492300  69.7087510 116.5237140  45.4159710  70.4130680
 113.2025100  39.0010060  58.4776200 113.0822700  39.7272150  57.8657470
 112.8925990  38.2312970  58.0004110 110.8410470  42.1725200  64.2844840
 110.9190890  42.3073970  63.3400560 111.4552150  41.4641090  64.4772960
 112.0858100  43.8725390  60.6951020 111.6786180  44.0139980  59.8404620
 112.9771110  43.5885550  60.4922230 121.9036980  48.0217300  67.6018070
 122.4181650  47.9325310  68.4040500 121.0606060  48.3677000  67.8945980
 123.8791380  48.3072640  57.0302070 123.7192520  48.0175580  57.9283900
 123.7138090  47.5312770  56.4947300 116.3579760  48.0871170  58.8073690
 116.1822240  47.1706710  58.5941490 115.5035500  48.4458460  59.0471490
 123.5817510  45.8160200  55.5900070 122.8882670  45.8137490  54.9302350
 124.3240370  45.3919520  55.1594240 123.1467440  47.4422910  59.6648560
 123.6024390  46.6612290  59.9787180 123.4859960  48.1529730  60.2089740
 110.8969990  43.2139370  66.8239300 111.0601030  42.7444730  66.0058670
 111.3622440  42.7062930  67.4888140 115.6688760  32.3445130  61.8599870
 115.2256910  33.1254670  61.5284390 116.2273750  32.6675020  62.5670810
 119.9558570  35.2113650  67.4635190 119.4937940  35.4196670  68.2755130
 119.5536680  34.3973000  67.1605860 124.9563080  36.4322600  68.5931850
 124.1056670  36.1328350  68.9140920 124.7964870  36.6764610  67.6815670
 122.0512790  37.9324350  70.6930640 122.3766200  37.0988100  70.3532870
 122.8393120  38.4552870  70.8408970 118.7847580  31.9655830  56.7405700
 118.1601760  31.9615700  57.4659010 118.6977700  31.0986790  56.3441670
 117.7064660  32.8892460  63.7189470 118.0036990  33.7955290  63.6381490
 118.2550220  32.4011240  63.1049040 115.4602980  37.4678700  59.5881120
 115.2343900  37.2515870  60.4927740 114.6795510  37.9007160  59.2427090
 122.6900740  37.4742070  58.1871770 122.0909630  38.1977870  58.0035390
 123.2380350  37.4118850  57.4048220 117.9002190  38.3664280  70.2541390
 117.8045790  37.4259010  70.1041790 118.7434170  38.5879350  69.8589460
 121.2965610  36.1105610  60.2175050 121.6895180  36.4277810  59.4043740
 121.6582460  35.2317490  60.3319570 113.0312730  34.7777950  68.4075170
 112.6376120  35.6253160  68.6147950 112.3431130  34.1404320  68.5983810
 119.6057780  34.8612920  71.4771910 118.9156100  34.6685120  72.1118000
 120.3490080  35.1447560  72.0096210 110.3329780  32.7006410  62.4405250
 110.0442830  33.2709270  63.1530230 111.0775540  32.2210860  62.8036480
 110.5200010  36.6426530  53.6507970 110.4374680  37.5857290  53.7922960
 110.1683070  36.5001440  52.7720320 121.8820750  38.7011360  64.3125830
 121.1501870  39.2098170  64.6615930 121.4845090  37.8841340  64.0114610
 118.3198140  35.3765560  62.7178320 118.3234200  34.9355510  61.8682860
 119.2149260  35.6982890  62.8250140 114.1700520  35.2592050  61.6772530
 113.8300570  35.7367280  62.4339580 113.4077840  34.8057170  61.3173630
 118.3818290  36.3777640  55.7085080 118.5031110  36.3364120  56.6570900
 117.9966800  37.2401790  55.5531810 122.3446660  34.1545040  63.7248770
 122.3619400  34.6053690  64.5690620 122.0962240  33.2550680  63.9382210
 117.3939790  38.6878780  55.1068380 116.8256690  38.2397030  54.4804290
 118.1028790  39.0471560  54.5733530 112.4708970  42.5890800  68.9835110
 112.0863760  41.9484470  69.5818070 112.7821160  43.2926920  69.5529840
 118.6206110  39.4367340  64.4643730 118.9876240  38.9625910  65.2105070
 118.4311170  40.3108910  64.8052070 111.4846600  34.1811030  60.5937200
 111.1993520  33.8166700  61.4315820 111.4225460  33.4491490  59.9800340
 116.4105480  38.4775980  66.7827940 116.1062550  39.3567960  67.0078300
 117.3651940  38.5375770  66.8185380 114.9387270  42.6836970  57.3794790
 114.1649530  42.1434590  57.2193510 115.6681900  42.1643580  57.0412550
 121.1585190  33.0740290  57.3150570 120.3449800  32.5753460  57.2395880
 120.9647140  33.9138540  56.8986920 121.0794050  41.7511390  69.0590180
 121.0131360  40.8307060  68.8047770 120.4499190  41.8486830  69.7734820
 123.8733580  37.4459940  55.6112730 124.7613200  37.7577170  55.4364070
 123.8438670  36.5732190  55.2193310 114.9824670  42.3517350  61.0173600
 115.5003340  41.5485610  60.9630490 114.5308690  42.2896490  61.8590430
 119.8694170  43.6183630  56.2900900 120.2109870  44.3625860  55.7944220
 119.0406880  43.9314750  56.6525730 112.4669210  39.3178720  67.9299300
 112.1084150  39.9832570  68.5172640 112.1723770  38.4862270  68.3011920
 115.6682330  39.7762960  70.8138850 115.3682470  39.9220140  69.9166670
 116.4393570  39.2168250  70.7212240 121.0110780  44.5731960  68.8093980
 121.0255320  43.6412920  68.5912890 120.3035880  44.6591720  69.4483750
 122.7521580  42.9399470  61.6546410 123.1045400  42.3427600  60.9947780
 121.8683910  42.6143700  61.8254660 118.8384860  43.6997160  59.0616820
 119.5255990  44.2466370  59.4424410 118.0517280  44.2437890  59.0966430
 110.9777260  39.3169980  54.5533900 111.8472110  39.5994780  54.8369820
 110.4867580  40.1305850  54.4382710 118.1412070  40.7043190  58.6742180
 118.5974850  41.5148440  58.9002370 117.7900280  40.3866330  59.5060670
 120.4444680  46.2149530  65.9034480 121.0886900  46.4208910  66.5807900
 120.8074120  45.4537930  65.4505330 114.0423850  31.0480840  59.1464700
 113.9138480  31.0398740  60.0949620 113.2185870  31.3863930  58.7955710
 121.7176760  44.2181880  64.6211930 122.3598990  43.5175040  64.7344100
 122.2426110  44.9980320  64.4408820 123.4914380  45.0176780  67.8247990
 123.8270620  45.6043470  68.5025910 122.5714720  44.8869490  68.0545780
 111.3448510  48.5297360  55.1195530 111.7046150  49.1286700  54.4652800
 111.2040850  49.0757250  55.8930560 111.0417780  32.8071960  68.6071400
 110.3276300  33.0068880  69.2124010 111.4612820  32.0311530  68.9786200
 111.3290370  46.7952220  69.5937930 111.4381490  45.8546960  69.4533320
 110.6770930  47.0606970  68.9451660 119.3202960  45.0668110  70.9936050
 118.9999830  44.3477350  71.5381740 118.6461320  45.7423180  71.0672110
 117.3617130  45.9128560  55.9369200 117.3527230  46.6458250  55.3213710
 116.4415490  45.6660140  56.0296160 112.9623770  41.1343450  56.6815960
 112.3551720  41.8742350  56.6911260 113.4373120  41.2242810  55.8554160
 122.5356560  35.2994270  66.3572850 122.9037380  34.4789480  66.6852420
 121.6754760  35.3596160  66.7728500 120.3476730  45.9756800  54.5994390
 120.4488710  45.7720790  53.6696370 119.4478470  45.7215080  54.8042170
 117.8702620  36.5337160  58.5818290 117.1618770  37.0023500  59.0231900
 118.1547100  35.8759170  59.2163480 119.4958550  37.9533860  66.5810820
 119.9943800  38.4279680  67.2462670 119.6381500  37.0297380  66.7880850
 121.9018050  33.2587820  60.0214080 121.7785830  33.2773950  59.0723590
 122.8502610  33.3066760  60.1412480 118.9894840  48.4943120  59.2942060
 119.2436340  48.4564510  58.3721430 118.0407320  48.3676450  59.2870310
 116.0737640  34.8422240  55.9569000 116.9228170  35.2792390  55.8909190
 115.7068910  35.1542500  56.7841060 114.9729060  41.0954600  54.4304530
 115.7392330  40.9835960  54.9929960 115.0503750  40.3992570  53.7781300
 113.6675820  38.5279670  55.1137420 113.7479410  37.5807180  55.2254820
 114.5595570  38.8586550  55.2198080 114.4690530  48.6775060  62.2171960
 115.2053010  48.1290520  62.4880530 114.8531450  49.5431070  62.0777950
 111.3536010  44.7448630  58.0913470 110.4275790  44.9869770  58.0818880
 111.8192440  45.5722890  57.9698220 113.4748810  47.8621130  71.4057540
 114.2761540  48.1833180  71.8192940 112.9600630  47.5016710  72.1277450
 117.5792840  47.8505370  54.0397530 118.3721450  48.1394200  53.5879320
 117.0597190  47.4197540  53.3610010 122.3113440  43.9701000  71.3532950
 121.7051600  43.9932600  70.6128700 122.0067550  43.2384040  71.8900200
 123.7413810  47.6981290  69.9642360 124.6935560  47.6139310  69.9142600
 123.5942030  48.3623000  70.6376150 118.0970240  43.0708780  53.9039880
 117.9920880  42.4561130  54.6301260 117.9294460  42.5474670  53.1202890
 118.2484560  41.7565580  69.8829110 117.4830230  42.3250580  69.7983780
 118.4300520  41.4641790  68.9897340 121.3372970  42.1328810  54.5081870
 120.7883070  42.5798110  55.1524610 121.9592230  41.6278060  55.0319540
 113.2269700  38.4924180  71.2443660 113.2675040  38.1938050  72.1528890
 114.0815200  38.8931790  71.0851180 117.0048090  41.0919730  56.4047170
 117.4264510  40.9259600  57.2478560 117.1298930  40.2819960  55.9102310
 115.1675510  37.0716280  69.2118150 114.6371970  36.5807230  68.5841490
 115.8363580  37.5000480  68.6776080 119.5175730  40.1157340  53.6524270
 120.0381390  39.4006360  53.2865420 120.1644130  40.7543210  53.9524780
 124.0653570  41.5385740  68.9759340 124.4794590  41.6930820  69.8249760
 123.1304570  41.6640960  69.1385120 124.5375740  38.8781900  70.9798490
 125.1196510  38.1234220  70.8918970 124.7137510  39.4089340  70.2029970
 115.6547810  34.0378650  69.2915440 115.5604680  33.4199400  68.5666310
 115.0745200  34.7644940  69.0645350 118.4209250  32.5951890  66.3242830
 117.9726550  32.6176150  65.4788380 117.7874450  32.1970910  66.9213130
 118.8268800  41.4906220  66.9455270 119.2456910  42.3338950  66.7731510
 117.9077430  41.6278260  66.7162050 121.1632700  39.2222400  68.3293110
 121.2828910  38.6263540  69.0687950 122.0226700  39.2592090  67.9094410
 123.5020600  39.7759590  66.9055620 122.9755820  40.3002210  66.3020760
 123.8451940  40.4086980  67.5365350 115.9006990  37.1652960  53.3505330
 115.6996050  36.3020320  53.7118670 115.7299040  37.0786320  52.4126930
 116.6776220  47.7959230  68.0613000 116.1397310  48.5205290  67.7421700
 116.9310180  47.3189570  67.2710340 117.9301470  35.7643750  69.5868930
 118.5201160  35.4559600  70.2746750 117.1121710  35.2923500  69.7428830
 122.7494900  35.3809560  69.8201950 122.0610420  34.7191100  69.7551940
 123.4700920  34.9347830  70.2650410 123.3795300  31.9761190  55.8792210
 123.6597590  31.1329090  56.2351630 122.6061030  32.2084300  56.3930960
 114.6989790  34.2653580  53.3383210 115.0015690  34.2721010  52.4302360
 115.4384380  33.9151440  53.8350870 119.5338430  49.0310440  68.3199650
 119.4597130  49.9345580  68.6272020 118.6317270  48.7122340  68.2921720
 117.9174720  33.2088200  54.3239410 117.5696720  32.5312190  53.7441860
 118.1187490  32.7477710  55.1382800 120.0823760  48.1968950  55.9426010
 120.9774550  48.5353920  55.9644770 120.1141390  47.4748360  55.3150290
 113.7219920  43.5696000  54.1713010 114.1594790  44.1125670  54.8270590
 114.2067650  42.7442950  54.1809350 110.9365720  46.3585030  61.6233270
 111.2668730  45.4906090  61.3911910 111.3656720  46.5643550  62.4538230
 115.5327640  44.6894040  59.2835240 115.2323180  44.5659010  60.1839150
 115.4265130  43.8302630  58.8750970 111.4255930  47.2255620  64.3614900
 110.9886920  47.4056420  65.1939050 111.9933610  47.9830240  64.2196620
 111.2580360  39.7375850  60.7203780 110.6029200  39.4687490  60.0763480
 112.0958310  39.6280330  60.2705760 124.2070800  34.5317140  54.9422270
 124.6255680  34.3448120  54.1018930 123.9006860  33.6796190  55.2525200
 112.2956290  40.1228420  65.2607120 112.6629330  40.0355820  66.1403140
 111.7267110  39.3594970  65.1613980 111.8472290  37.0337510  69.1665540
 110.9528340  37.0004270  69.5059250 112.3869840  37.2324300  69.9316790
 110.4718440  36.9474780  56.6629110 109.5682520  37.2104980  56.4880770
 110.9559060  37.2185950  55.8829070 113.0145650  36.0040320  54.5723490
 113.7237350  35.5823540  54.0870770 112.2985590  36.0715550  53.9406840
 112.6619810  32.0579650  53.6126140 113.3847940  32.5988590  53.9307360
 112.9344330  31.7843070  52.7367680 112.3512000  31.3085840  63.5148760
 112.9988190  30.7583220  63.0743920 112.7713840  31.5628990  64.3364570
 112.1044000  31.4641510  66.2574080 111.7558820  31.9205330  67.0232260
 111.7731700  30.5698640  66.3396510 117.4114400  46.1920700  66.0236990
 117.1705760  46.4595260  65.1367510 118.3517040  46.3626430  66.0787850
 119.6168820  32.6553390  69.7793500 119.5557710  33.2475220  70.5288910
 120.5569200  32.5479350  69.6343760 122.2543380  32.3123450  69.4185790
 122.8683790  32.6302740  68.7566870 122.7992940  31.8272040  70.0381650
 112.7764640  30.9917710  69.5324850 113.3247630  30.8105760  68.7690960
 112.8419950  30.2011820  70.0681160 113.5496400  47.5823360  67.5425050
 112.9556720  47.4508060  68.2815090 113.5420240  46.7461500  67.0767150
 122.9951420  30.8755590  65.7455080 122.1211260  31.2090700  65.5428010
 122.8862170  30.4028770  66.5706950 123.9023400  33.0826460  67.1296800
 123.5736760  32.2678220  66.7498530 124.8505700  33.0396270  67.0062490
 113.1808630  44.9481740  66.4933090 112.4542690  44.3287030  66.4259040
 113.2417780  45.3422350  65.6231170 116.7853730  47.1626740  63.2782500
 117.3018750  46.5514100  62.7530760 117.4351110  47.6655520  63.7693510
 119.5249230  48.0535230  64.1051480 119.8127040  47.7989530  63.2284490
 120.0372450  47.5012590  64.6957050 120.7426240  31.7925430  64.6847990
 119.9598030  32.2670930  64.9644750 120.4489170  30.8880260  64.5761170
 111.4638630  48.2656130  59.7029850 111.2960670  47.6326810  60.4011740
 110.5973140  48.4715530  59.3524040 112.0866650  32.0972910  57.2061710
 112.8446010  32.2101790  56.6325740 111.6243820  32.9342110  57.1605140
 118.6280460  34.2112180  60.1964020 117.8154970  33.8369070  59.8559900
 119.1322100  33.4557260  60.4985210 123.1305440  30.8754630  61.4347090
 123.7334810  31.4474840  61.9095610 122.3898430  31.4394070  61.2120990
 113.0701330  46.9589360  57.1479990 112.5448950  47.3397390  56.4441950
 112.9945910  47.5840130  57.8689700 114.4591800  32.6236960  55.7463680
 114.9884560  31.8366760  55.6171630 115.0920120  33.3028150  55.9799210
 116.6529640  32.3612100  58.8009070 116.0232380  31.6599410  58.9679200
 116.1134780  33.1216230  58.5842230 119.5921590  48.9751330  71.4719680
 120.5188900  48.7395600  71.5155640 119.5772020  49.8023330  70.9905710
 116.7785200  31.6396080  71.2361560 116.4969470  32.1429680  70.4722380
 117.1604900  30.8417830  70.8703690 115.6694300  48.9071740  56.0229240
 116.4013120  48.6231020  55.4753130 115.9287970  48.6685020  56.9128620
 114.8309090  45.0236470  56.0275570 114.2017970  45.4921570  56.5761400
 114.9456920  44.1785690  56.4621760 123.3800660  31.0549660  71.8142030
 123.2666110  31.3744270  72.7093550 124.1970400  31.4562170  71.5179310
 122.2858810  39.0742130  42.1776770 122.2052860  38.1596740  41.9068480
 121.8723230  39.5709200  41.4716480 120.4176850  40.8521150  44.0586040
 119.6418950  40.3721590  44.3484610 121.0689780  40.1726800  43.8842200
 114.4342680  41.1640960  44.9361800 113.6027560  40.9089670  45.3358310
 115.0423660  41.2351730  45.6719720 124.4384280  45.2581340  42.8385170
 123.9765810  44.4868580  43.1672340 125.2509830  45.2847410  43.3437620
 114.4143940  45.1981050  45.1319820 114.7171980  44.3078790  44.9530040
 115.1587530  45.7551270  44.9042070 112.8434630  36.1242850  38.7204190
 111.9551330  36.4658820  38.6184070 113.1275820  35.9243170  37.8285020
 110.8067640  38.7248500  44.6043890 111.3783750  37.9570700  44.6047530
 110.8069180  39.0237260  43.6950500 120.6647590  47.5439350  42.4589160
 120.0459030  47.9996850  41.8883600 121.5199370  47.6990810  42.0578860
 119.8585840  43.5278340  44.0656200 119.7894120  42.5868280  43.9045330
 120.6205700  43.6179750  44.6378770 112.0492510  34.1332860  46.3912820
 111.8695350  33.2358610  46.6715580 111.6472590  34.6804730  47.0659770
 120.8891010  36.3348720  44.2925130 121.2655830  35.4620600  44.1798800
 120.7910520  36.6707420  43.4015570 115.0196020  34.7074350  39.7542570
 115.1262770  35.6078080  40.0611330 114.1088380  34.6592320  39.4637220
 112.6679180  36.6293360  44.9995160 113.3489290  36.8931730  45.6182560
 112.3527230  35.7894230  45.3333170 116.8603750  37.6760720  44.0867750
 117.3681970  38.1741690  44.7272770 117.3916990  36.8995920  43.9107110
 115.1439850  32.3159280  48.3531170 115.1458290  32.8331670  47.5477070
 114.3144160  31.8389460  48.3301100 121.5310940  42.4278590  39.8521070
 120.9128210  42.8928040  39.2883790 122.0434190  43.1206070  40.2690580
 116.3942700  41.9554460  46.5304670 116.0612080  42.5823380  47.1725740
 116.5709380  42.4816340  45.7506340 124.9076610  35.7699540  43.9981010
 124.2032180  36.0584430  44.5784120 125.2688770  36.5799650  43.6380570
 114.8255180  34.0269240  46.3601620 115.1671990  34.8711290  46.0655490
 113.8870990  34.1752980  46.4766960 115.6061800  43.9235260  48.3453850
 116.2235800  44.5986340  48.0638300 114.7454920  44.3323240  48.2541350
 110.8994140  43.1135120  37.2260700 110.5222120  43.6022220  36.4945600
 111.1567210  43.7860400  37.8567230 118.5083070  31.5151510  42.6846210
 118.8158050  30.9598400  41.9681710 117.5783770  31.6495970  42.5019200
 124.0598130  47.2318800  44.9753670 124.0725290  46.8281090  44.1075930
 123.5073350  48.0066090  44.8715100 123.4583570  42.1348640  46.3036280
 123.8752360  41.9208750  45.4689740 124.1823390  42.3921430  46.8744900
 120.8963830  39.5800340  39.4206330 119.9693110  39.5137720  39.6494800
 121.0488650  40.5180470  39.3061570 120.8832910  35.8517340  36.4173490
 119.9436580  36.0131300  36.5025950 121.2016170  36.5703020  35.8709480
 124.9261120  41.1420640  39.9241580 124.3073540  40.8040190  39.2767880
 124.9085570  40.4980400  40.6320770 124.3687680  37.3205180  47.3407390
 123.9558860  38.1458890  47.5947380 123.6363630  36.7350220  47.1483750
 116.5020470  40.1065080  42.2026060 116.0977470  39.3942330  41.7071960
 116.5883590  39.7618320  43.0914100 116.9702170  43.7932640  44.3665270
 116.6730460  43.1878110  43.6873050 117.9201990  43.8309950  44.2554630
 115.2149090  36.8808290  45.9825100 115.7663680  36.9903630  45.2078350
 115.7292600  37.2545890  46.6980330 125.0587780  47.3664510  48.0288370
 124.5818340  48.1736700  47.8360980 124.3749570  46.7142840  48.1814580
 116.0620600  43.5314330  51.0173070 115.1649130  43.7554300  51.2646470
 116.0873470  43.6549270  50.0684470 123.1025820  40.3807450  36.9314330
 123.5419100  39.5429880  36.7852150 123.8154240  41.0136850  37.0178470
 114.8891820  40.4027650  49.5930440 114.7499590  41.2750450  49.9617840
 114.0073180  40.0600460  49.4478380 121.2121200  45.3203520  40.8995570
 121.6517110  46.0627850  40.4850960 121.1508090  45.5630090  41.8234530
 116.6872170  46.3449350  51.8015590 116.6587600  46.7492300  50.9344020
 116.5237140  45.4159710  51.6387190 113.2025100  39.0010060  39.7032710
 113.0822700  39.7272150  39.0913980 112.8925990  38.2312970  39.2260620
 110.8410470  42.1725200  45.5101350 110.9190890  42.3073970  44.5657070
 111.4552150  41.4641090  45.7029470 121.9036980  48.0217300  48.8274580
 122.4181650  47.9325310  49.6297010 121.0606060  48.3677000  49.1202490
 123.8791380  48.3072640  38.2558580 123.7192520  48.0175580  39.1540410
 123.7138090  47.5312770  37.7203810 116.3579760  48.0871170  40.0330200
 116.1822240  47.1706710  39.8198000 115.5035500  48.4458460  40.2728000
 123.5817510  45.8160200  36.8156580 122.8882670  45.8137490  36.1558860
 124.3240370  45.3919520  36.3850750 123.1467440  47.4422910  40.8905070
 123.6024390  46.6612290  41.2043690 123.4859960  48.1529730  41.4346250
 110.8969990  43.2139370  48.0495810 111.0601030  42.7444730  47.2315180
 111.3622440  42.7062930  48.7144650 115.6688760  32.3445130  43.0856380
 115.2256910  33.1254670  42.7540900 116.2273750  32.6675020  43.7927320
 119.9558570  35.2113650  48.6891700 119.4937940  35.4196670  49.5011640
 119.5536680  34.3973000  48.3862370 124.9563080  36.4322600  49.8188360
 124.1056670  36.1328350  50.1397430 124.7964870  36.6764610  48.9072180
 122.0512790  37.9324350  51.9187150 122.3766200  37.0988100  51.5789380
 122.8393120  38.4552870  52.0665480 118.7847580  31.9655830  37.9662210
 118.1601760  31.9615700  38.6915520 118.6977700  31.0986790  37.5698180
 117.7064660  32.8892460  44.9445980 118.0036990  33.7955290  44.8638000
 118.2550220  32.4011240  44.3305550 115.4602980  37.4678700  40.8137630
 115.2343900  37.2515870  41.7184250 114.6795510  37.9007160  40.4683600
 122.6900740  37.4742070  39.4128280 122.0909630  38.1977870  39.2291900
 123.2380350  37.4118850  38.6304730 117.9002190  38.3664280  51.4797900
 117.8045790  37.4259010  51.3298300 118.7434170  38.5879350  51.0845970
 121.2965610  36.1105610  41.4431560 121.6895180  36.4277810  40.6300250
 121.6582460  35.2317490  41.5576080 113.0312730  34.7777950  49.6331680
 112.6376120  35.6253160  49.8404460 112.3431130  34.1404320  49.8240320
 119.6057780  34.8612920  52.7028420 118.9156100  34.6685120  53.3374510
 120.3490080  35.1447560  53.2352720 110.3329780  32.7006410  43.6661760
 110.0442830  33.2709270  44.3786740 111.0775540  32.2210860  44.0292990
 110.5200010  36.6426530  34.8764480 110.4374680  37.5857290  35.0179470
 110.1683070  36.5001440  33.9976830 121.8820750  38.7011360  45.5382340
 121.1501870  39.2098170  45.8872440 121.4845090  37.8841340  45.2371120
 118.3198140  35.3765560  43.9434830 118.3234200  34.9355510  43.0939370
 119.2149260  35.6982890  44.0506650 114.1700520  35.2592050  42.9029040
 113.8300570  35.7367280  43.6596090 113.4077840  34.8057170  42.5430140
 118.3818290  36.3777640  36.9341590 118.5031110  36.3364120  37.8827410
 117.9966800  37.2401790  36.7788320 122.3446660  34.1545040  44.9505280
 122.3619400  34.6053690  45.7947130 122.0962240  33.2550680  45.1638720
 117.3939790  38.6878780  36.3324890 116.8256690  38.2397030  35.7060800
 118.1028790  39.0471560  35.7990040 112.4708970  42.5890800  50.2091620
 112.0863760  41.9484470  50.8074580 112.7821160  43.2926920  50.7786350
 118.6206110  39.4367340  45.6900240 118.9876240  38.9625910  46.4361580
 118.4311170  40.3108910  46.0308580 111.4846600  34.1811030  41.8193710
 111.1993520  33.8166700  42.6572330 111.4225460  33.4491490  41.2056850
 116.4105480  38.4775980  48.0084450 116.1062550  39.3567960  48.2334810
 117.3651940  38.5375770  48.0441890 114.9387270  42.6836970  38.6051300
 114.1649530  42.1434590  38.4450020 115.6681900  42.1643580  38.2669060
 121.1585190  33.0740290  38.5407080 120.3449800  32.5753460  38.4652390
 120.9647140  33.9138540  38.1243430 121.0794050  41.7511390  50.2846690
 121.0131360  40.8307060  50.0304280 120.4499190  41.8486830  50.9991330
 123.8733580  37.4459940  36.8369240 124.7613200  37.7577170  36.6620580
 123.8438670  36.5732190  36.4449820 114.9824670  42.3517350  42.2430110
 115.5003340  41.5485610  42.1887000 114.5308690  42.2896490  43.0846940
 119.8694170  43.6183630  37.5157410 120.2109870  44.3625860  37.0200730
 119.0406880  43.9314750  37.8782240 112.4669210  39.3178720  49.1555810
 112.1084150  39.9832570  49.7429150 112.1723770  38.4862270  49.5268430
 115.6682330  39.7762960  52.0395360 115.3682470  39.9220140  51.1423180
 116.4393570  39.2168250  51.9468750 121.0110780  44.5731960  50.0350490
 121.0255320  43.6412920  49.8169400 120.3035880  44.6591720  50.6740260
 122.7521580  42.9399470  42.8802920 123.1045400  42.3427600  42.2204290
 121.8683910  42.6143700  43.0511170 118.8384860  43.6997160  40.2873330
 119.5255990  44.2466370  40.6680920 118.0517280  44.2437890  40.3222940
 110.9777260  39.3169980  35.7790410 111.8472110  39.5994780  36.0626330
 110.4867580  40.1305850  35.6639220 118.1412070  40.7043190  39.8998690
 118.5974850  41.5148440  40.1258880 117.7900280  40.3866330  40.7317180
 120.4444680  46.2149530  47.1290990 121.0886900  46.4208910  47.8064410
 120.8074120  45.4537930  46.6761840 114.0423850  31.0480840  40.3721210
 113.9138480  31.0398740  41.3206130 113.2185870  31.3863930  40.0212220
 121.7176760  44.2181880  45.8468440 122.3598990  43.5175040  45.9600610
 122.2426110  44.9980320  45.6665330 123.4914380  45.0176780  49.0504500
 123.8270620  45.6043470  49.7282420 122.5714720  44.8869490  49.2802290
 111.3448510  48.5297360  36.3452040 111.7046150  49.1286700  35.6909310
 111.2040850  49.0757250  37.1187070 111.0417780  32.8071960  49.8327910
 110.3276300  33.0068880  50.4380520 111.4612820  32.0311530  50.2042710
 111.3290370  46.7952220  50.8194440 111.4381490  45.8546960  50.6789830
 110.6770930  47.0606970  50.1708170 119.3202960  45.0668110  52.2192560
 118.9999830  44.3477350  52.7638250 118.6461320  45.7423180  52.2928620
 117.3617130  45.9128560  37.1625710 117.3527230  46.6458250  36.5470220
 116.4415490  45.6660140  37.2552670 112.9623770  41.1343450  37.9072470
 112.3551720  41.8742350  37.9167770 113.4373120  41.2242810  37.0810670
 122.5356560  35.2994270  47.5829360 122.9037380  34.4789480  47.9108930
 121.6754760  35.3596160  47.9985010 120.3476730  45.9756800  35.8250900
 120.4488710  45.7720790  34.8952880 119.4478470  45.7215080  36.0298680
 117.8702620  36.5337160  39.8074800 117.1618770  37.0023500  40.2488410
 118.1547100  35.8759170  40.4419990 119.4958550  37.9533860  47.8067330
 119.9943800  38.4279680  48.4719180 119.6381500  37.0297380  48.0137360
 121.9018050  33.2587820  41.2470590 121.7785830  33.2773950  40.2980100
 122.8502610  33.3066760  41.3668990 118.9894840  48.4943120  40.5198570
 119.2436340  48.4564510  39.5977940 118.0407320  48.3676450  40.5126820
 116.0737640  34.8422240  37.1825510 116.9228170  35.2792390  37.1165700
 115.7068910  35.1542500  38.0097570 114.9729060  41.0954600  35.6561040
 115.7392330  40.9835960  36.2186470 115.0503750  40.3992570  35.0037810
 113.6675820  38.5279670  36.3393930 113.7479410  37.5807180  36.4511330
 114.5595570  38.8586550  36.4454590 114.4690530  48.6775060  43.4428470
 115.2053010  48.1290520  43.7137040 114.8531450  49.5431070  43.3034460
 113.4748810  47.8621130  52.6314050 114.2761540  48.1833180  53.0449450
 112.9600630  47.5016710  53.3533960 117.5792840  47.8505370  35.2654040
 118.3721450  48.1394200  34.8135830 117.0597190  47.4197540  34.5866520
 122.3113440  43.9701000  52.5789460 121.7051600  43.9932600  51.8385210
 122.0067550  43.2384040  53.1156710 123.7413810  47.6981290  51.1898870
 124.6935560  47.6139310  51.1399110 123.5942030  48.3623000  51.8632660
 111.1946620  40.3494590  51.5750100 111.6985640  39.7701870  52.1466330
 110.4554040  40.6334820  52.1126470 118.0970240  43.0708780  35.1296390
 117.9920880  42.4561130  35.8557770 117.9294460  42.5474670  34.3459400
 118.2484560  41.7565580  51.1085620 117.4830230  42.3250580  51.0240290
 118.4300520  41.4641790  50.2153850 121.3372970  42.1328810  35.7338380
 120.7883070  42.5798110  36.3781120 121.9592230  41.6278060  36.2576050
 113.2269700  38.4924180  52.4700170 113.2675040  38.1938050  53.3785400
 114.0815200  38.8931790  52.3107690 117.0048090  41.0919730  37.6303680
 117.4264510  40.9259600  38.4735070 117.1298930  40.2819960  37.1358820
 115.1675510  37.0716280  50.4374660 114.6371970  36.5807230  49.8098000
 115.8363580  37.5000480  49.9032590 119.5175730  40.1157340  34.8780780
 120.0381390  39.4006360  34.5121930 120.1644130  40.7543210  35.1781290
 124.0653570  41.5385740  50.2015850 124.4794590  41.6930820  51.0506270
 123.1304570  41.6640960  50.3641630 124.5375740  38.8781900  52.2055000
 125.1196510  38.1234220  52.1175480 124.7137510  39.4089340  51.4286480
 115.6547810  34.0378650  50.5171950 115.5604680  33.4199400  49.7922820
 115.0745200  34.7644940  50.2901860 118.4209250  32.5951890  47.5499340
 117.9726550  32.6176150  46.7044890 117.7874450  32.1970910  48.1469640
 118.8268800  41.4906220  48.1711780 119.2456910  42.3338950  47.9988020
 117.9077430  41.6278260  47.9418560 121.1632700  39.2222400  49.5549620
 121.2828910  38.6263540  50.2944460 122.0226700  39.2592090  49.1350920
 123.5020600  39.7759590  48.1312130 122.9755820  40.3002210  47.5277270
 123.8451940  40.4086980  48.7621860 115.9006990  37.1652960  34.5761840
 115.6996050  36.3020320  34.9375180 115.7299040  37.0786320  33.6383440
 116.6776220  47.7959230  49.2869510 116.1397310  48.5205290  48.9678210
 116.9310180  47.3189570  48.4966850 117.9301470  35.7643750  50.8125440
 118.5201160  35.4559600  51.5003260 117.1121710  35.2923500  50.9685340
 122.7494900  35.3809560  51.0458460 122.0610420  34.7191100  50.9808450
 123.4700920  34.9347830  51.4906920 123.3795300  31.9761190  37.1048720
 123.6597590  31.1329090  37.4608140 122.6061030  32.2084300  37.6187470
 114.6989790  34.2653580  34.5639720 115.0015690  34.2721010  33.6558870
 115.4384380  33.9151440  35.0607380 119.5338430  49.0310440  49.5456160
 119.4597130  49.9345580  49.8528530 118.6317270  48.7122340  49.5178230
 117.9174720  33.2088200  35.5495920 117.5696720  32.5312190  34.9698370
 118.1187490  32.7477710  36.3639310 120.0823760  48.1968950  37.1682520
 120.9774550  48.5353920  37.1901280 120.1141390  47.4748360  36.5406800
 113.7219920  43.5696000  35.3969520 114.1594790  44.1125670  36.0527100
 114.2067650  42.7442950  35.4065860 110.9365720  46.3585030  42.8489780
 111.2668730  45.4906090  42.6168420 111.3656720  46.5643550  43.6794740
 115.5327640  44.6894040  40.5091750 115.2323180  44.5659010  41.4095660
 115.4265130  43.8302630  40.1007480 111.4255930  47.2255620  45.5871410
 110.9886920  47.4056420  46.4195560 111.9933610  47.9830240  45.4453130
 111.2580360  39.7375850  41.9460290 110.6029200  39.4687490  41.3019990
 112.0958310  39.6280330  41.4962270 124.2070800  34.5317140  36.1678780
 124.6255680  34.3448120  35.3275440 123.9006860  33.6796190  36.4781710
 112.2956290  40.1228420  46.4863630 112.6629330  40.0355820  47.3659650
 111.7267110  39.3594970  46.3870490 111.8472290  37.0337510  50.3922050
 110.9528340  37.0004270  50.7315760 112.3869840  37.2324300  51.1573300
 110.4718440  36.9474780  37.8885620 109.5682520  37.2104980  37.7137280
 110.9559060  37.2185950  37.1085580 113.0145650  36.0040320  35.7980000
 113.7237350  35.5823540  35.3127280 112.2985590  36.0715550  35.1663350
 112.6619810  32.0579650  34.8382650 113.3847940  32.5988590  35.1563870
 112.9344330  31.7843070  33.9624190 112.3512000  31.3085840  44.7405270
 112.9988190  30.7583220  44.3000430 112.7713840  31.5628990  45.5621080
 112.1044000  31.4641510  47.4830590 111.7558820  31.9205330  48.2488770
 111.7731700  30.5698640  47.5653020 113.7108370  44.6361110  51.6483780
 113.6678000  44.2654020  52.5298240 113.8419380  45.5738680  51.7885600
 117.4114400  46.1920700  47.2493500 117.1705760  46.4595260  46.3624020
 118.3517040  46.3626430  47.3044360 119.6168820  32.6553390  51.0050010
 119.5557710  33.2475220  51.7545420 120.5569200  32.5479350  50.8600270
 122.2543380  32.3123450  50.6442300 122.8683790  32.6302740  49.9823380
 122.7992940  31.8272040  51.2638160 112.7764640  30.9917710  50.7581360
 113.3247630  30.8105760  49.9947470 112.8419950  30.2011820  51.2937670
 113.5496400  47.5823360  48.7681560 112.9556720  47.4508060  49.5071600
 113.5420240  46.7461500  48.3023660 122.9951420  30.8755590  46.9711590
 122.1211260  31.2090700  46.7684520 122.8862170  30.4028770  47.7963460
 123.9023400  33.0826460  48.3553310 123.5736760  32.2678220  47.9755040
 124.8505700  33.0396270  48.2319000 113.1808630  44.9481740  47.7189600
 112.4542690  44.3287030  47.6515550 113.2417780  45.3422350  46.8487680
 116.7853730  47.1626740  44.5039010 117.3018750  46.5514100  43.9787270
 117.4351110  47.6655520  44.9950020 119.5249230  48.0535230  45.3307990
 119.8127040  47.7989530  44.4541000 120.0372450  47.5012590  45.9213560
 120.7426240  31.7925430  45.9104500 119.9598030  32.2670930  46.1901260
 120.4489170  30.8880260  45.8017680 111.4638630  48.2656130  40.9286360
 111.2960670  47.6326810  41.6268250 110.5973140  48.4715530  40.5780550
 112.0866650  32.0972910  38.4318220 112.8446010  32.2101790  37.8582250
 111.6243820  32.9342110  38.3861650 118.6280460  34.2112180  41.4220530
 117.8154970  33.8369070  41.0816410 119.1322100  33.4557260  41.7241720
 123.1305440  30.8754630  42.6603600 123.7334810  31.4474840  43.1352120
 122.3898430  31.4394070  42.4377500 113.0701330  46.9589360  38.3736500
 112.5448950  47.3397390  37.6698460 112.9945910  47.5840130  39.0946210
 114.4591800  32.6236960  36.9720190 114.9884560  31.8366760  36.8428140
 115.0920120  33.3028150  37.2055720 116.6529640  32.3612100  40.0265580
 116.0232380  31.6599410  40.1935710 116.1134780  33.1216230  39.8098740
 119.5921590  48.9751330  52.6976190 120.5188900  48.7395600  52.7412150
 119.5772020  49.8023330  52.2162220 116.7785200  31.6396080  52.4618070
 116.4969470  32.1429680  51.6978890 117.1604900  30.8417830  52.0960200
 115.6694300  48.9071740  37.2485750 116.4013120  48.6231020  36.7009640
 115.9287970  48.6685020  38.1385130 114.8309090  45.0236470  37.2532080
 114.2017970  45.4921570  37.8017910 114.9456920  44.1785690  37.6878270
 123.3800660  31.0549660  53.0398540 123.2666110  31.3744270  53.9350060
 124.1970400  31.4562170  52.7435820 122.2858810  39.0742130  23.4033280
 122.2052860  38.1596740  23.1324990 121.8723230  39.5709200  22.6972990
 120.4176850  40.8521150  25.2842550 119.6418950  40.3721590  25.5741120
 121.0689780  40.1726800  25.1098710 114.4342680  41.1640960  26.1618310
 113.6027560  40.9089670  26.5614820 115.0423660  41.2351730  26.8976230
 124.4384280  45.2581340  24.0641680 123.9765810  44.4868580  24.3928850
 125.2509830  45.2847410  24.5694130 114.4143940  45.1981050  26.3576330
 114.7171980  44.3078790  26.1786550 115.1587530  45.7551270  26.1298580
 112.8434630  36.1242850  19.9460700 111.9551330  36.4658820  19.8440580
 113.1275820  35.9243170  19.0541530 110.8067640  38.7248500  25.8300400
 111.3783750  37.9570700  25.8304040 110.8069180  39.0237260  24.9207010
 120.6647590  47.5439350  23.6845670 120.0459030  47.9996850  23.1140110
 121.5199370  47.6990810  23.2835370 119.8585840  43.5278340  25.2912710
 119.7894120  42.5868280  25.1301840 120.6205700  43.6179750  25.8635280
 112.0492510  34.1332860  27.6169330 111.8695350  33.2358610  27.8972090
 111.6472590  34.6804730  28.2916280 120.8891010  36.3348720  25.5181640
 121.2655830  35.4620600  25.4055310 120.7910520  36.6707420  24.6272080
 115.0196020  34.7074350  20.9799080 115.1262770  35.6078080  21.2867840
 114.1088380  34.6592320  20.6893730 112.6679180  36.6293360  26.2251670
 113.3489290  36.8931730  26.8439070 112.3527230  35.7894230  26.5589680
 116.8603750  37.6760720  25.3124260 117.3681970  38.1741690  25.9529280
 117.3916990  36.8995920  25.1363620 115.1439850  32.3159280  29.5787680
 115.1458290  32.8331670  28.7733580 114.3144160  31.8389460  29.5557610
 121.5310940  42.4278590  21.0777580 120.9128210  42.8928040  20.5140300
 122.0434190  43.1206070  21.4947090 116.3942700  41.9554460  27.7561180
 116.0612080  42.5823380  28.3982250 116.5709380  42.4816340  26.9762850
 124.9076610  35.7699540  25.2237520 124.2032180  36.0584430  25.8040630
 125.2688770  36.5799650  24.8637080 114.8255180  34.0269240  27.5858130
 115.1671990  34.8711290  27.2912000 113.8870990  34.1752980  27.7023470
 115.6061800  43.9235260  29.5710360 116.2235800  44.5986340  29.2894810
 114.7454920  44.3323240  29.4797860 110.8994140  43.1135120  18.4517210
 110.5222120  43.6022220  17.7202110 111.1567210  43.7860400  19.0823740
 118.5083070  31.5151510  23.9102720 118.8158050  30.9598400  23.1938220
 117.5783770  31.6495970  23.7275710 124.0598130  47.2318800  26.2010180
 124.0725290  46.8281090  25.3332440 123.5073350  48.0066090  26.0971610
 123.4583570  42.1348640  27.5292790 123.8752360  41.9208750  26.6946250
 124.1823390  42.3921430  28.1001410 120.8963830  39.5800340  20.6462840
 119.9693110  39.5137720  20.8751310 121.0488650  40.5180470  20.5318080
 120.8832910  35.8517340  17.6430000 119.9436580  36.0131300  17.7282460
 121.2016170  36.5703020  17.0965990 124.9261120  41.1420640  21.1498090
 124.3073540  40.8040190  20.5024390 124.9085570  40.4980400  21.8577280
 124.3687680  37.3205180  28.5663900 123.9558860  38.1458890  28.8203890
 123.6363630  36.7350220  28.3740260 116.5020470  40.1065080  23.4282570
 116.0977470  39.3942330  22.9328470 116.5883590  39.7618320  24.3170610
 116.9702170  43.7932640  25.5921780 116.6730460  43.1878110  24.9129560
 117.9201990  43.8309950  25.4811140 115.2149090  36.8808290  27.2081610
 115.7663680  36.9903630  26.4334860 115.7292600  37.2545890  27.9236840
 125.0587780  47.3664510  29.2544880 124.5818340  48.1736700  29.0617490
 124.3749570  46.7142840  29.4071090 116.0620600  43.5314330  32.2429580
 115.1649130  43.7554300  32.4902980 116.0873470  43.6549270  31.2940980
 123.1025820  40.3807450  18.1570840 123.5419100  39.5429880  18.0108660
 123.8154240  41.0136850  18.2434980 114.8891820  40.4027650  30.8186950
 114.7499590  41.2750450  31.1874350 114.0073180  40.0600460  30.6734890
 121.2121200  45.3203520  22.1252080 121.6517110  46.0627850  21.7107470
 121.1508090  45.5630090  23.0491040 116.6872170  46.3449350  33.0272100
 116.6587600  46.7492300  32.1600530 116.5237140  45.4159710  32.8643700
 113.2025100  39.0010060  20.9289220 113.0822700  39.7272150  20.3170490
 112.8925990  38.2312970  20.4517130 110.8410470  42.1725200  26.7357860
 110.9190890  42.3073970  25.7913580 111.4552150  41.4641090  26.9285980
 112.0858100  43.8725390  23.1464040 111.6786180  44.0139980  22.2917640
 112.9771110  43.5885550  22.9435250 121.9036980  48.0217300  30.0531090
 122.4181650  47.9325310  30.8553520 121.0606060  48.3677000  30.3459000
 123.8791380  48.3072640  19.4815090 123.7192520  48.0175580  20.3796920
 123.7138090  47.5312770  18.9460320 116.3579760  48.0871170  21.2586710
 116.1822240  47.1706710  21.0454510 115.5035500  48.4458460  21.4984510
 123.5817510  45.8160200  18.0413090 122.8882670  45.8137490  17.3815370
 124.3240370  45.3919520  17.6107260 123.1467440  47.4422910  22.1161580
 123.6024390  46.6612290  22.4300200 123.4859960  48.1529730  22.6602760
 110.8969990  43.2139370  29.2752320 111.0601030  42.7444730  28.4571690
 111.3622440  42.7062930  29.9401160 115.6688760  32.3445130  24.3112890
 115.2256910  33.1254670  23.9797410 116.2273750  32.6675020  25.0183830
 119.9558570  35.2113650  29.9148210 119.4937940  35.4196670  30.7268150
 119.5536680  34.3973000  29.6118880 124.9563080  36.4322600  31.0444870
 124.1056670  36.1328350  31.3653940 124.7964870  36.6764610  30.1328690
 122.0512790  37.9324350  33.1443660 122.3766200  37.0988100  32.8045890
 122.8393120  38.4552870  33.2921990 118.7847580  31.9655830  19.1918720
 118.1601760  31.9615700  19.9172030 118.6977700  31.0986790  18.7954690
 117.7064660  32.8892460  26.1702490 118.0036990  33.7955290  26.0894510
 118.2550220  32.4011240  25.5562060 115.4602980  37.4678700  22.0394140
 115.2343900  37.2515870  22.9440760 114.6795510  37.9007160  21.6940110
 122.6900740  37.4742070  20.6384790 122.0909630  38.1977870  20.4548410
 123.2380350  37.4118850  19.8561240 117.9002190  38.3664280  32.7054410
 117.8045790  37.4259010  32.5554810 118.7434170  38.5879350  32.3102480
 121.2965610  36.1105610  22.6688070 121.6895180  36.4277810  21.8556760
 121.6582460  35.2317490  22.7832590 113.0312730  34.7777950  30.8588190
 112.6376120  35.6253160  31.0660970 112.3431130  34.1404320  31.0496830
 119.6057780  34.8612920  33.9284930 118.9156100  34.6685120  34.5631020
 120.3490080  35.1447560  34.4609230 110.3329780  32.7006410  24.8918270
 110.0442830  33.2709270  25.6043250 111.0775540  32.2210860  25.2549500
 110.5200010  36.6426530  16.1020990 110.4374680  37.5857290  16.2435980
 110.1683070  36.5001440  15.2233340 121.8820750  38.7011360  26.7638850
 121.1501870  39.2098170  27.1128950 121.4845090  37.8841340  26.4627630
 118.3198140  35.3765560  25.1691340 118.3234200  34.9355510  24.3195880
 119.2149260  35.6982890  25.2763160 114.1700520  35.2592050  24.1285550
 113.8300570  35.7367280  24.8852600 113.4077840  34.8057170  23.7686650
 118.3818290  36.3777640  18.1598100 118.5031110  36.3364120  19.1083920
 117.9966800  37.2401790  18.0044830 122.3446660  34.1545040  26.1761790
 122.3619400  34.6053690  27.0203640 122.0962240  33.2550680  26.3895230
 117.3939790  38.6878780  17.5581400 116.8256690  38.2397030  16.9317310
 118.1028790  39.0471560  17.0246550 112.4708970  42.5890800  31.4348130
 112.0863760  41.9484470  32.0331090 112.7821160  43.2926920  32.0042860
 118.6206110  39.4367340  26.9156750 118.9876240  38.9625910  27.6618090
 118.4311170  40.3108910  27.2565090 111.4846600  34.1811030  23.0450220
 111.1993520  33.8166700  23.8828840 111.4225460  33.4491490  22.4313360
 116.4105480  38.4775980  29.2340960 116.1062550  39.3567960  29.4591320
 117.3651940  38.5375770  29.2698400 114.9387270  42.6836970  19.8307810
 114.1649530  42.1434590  19.6706530 115.6681900  42.1643580  19.4925570
 121.1585190  33.0740290  19.7663590 120.3449800  32.5753460  19.6908900
 120.9647140  33.9138540  19.3499940 121.0794050  41.7511390  31.5103200
 121.0131360  40.8307060  31.2560790 120.4499190  41.8486830  32.2247840
 123.8733580  37.4459940  18.0625750 124.7613200  37.7577170  17.8877090
 123.8438670  36.5732190  17.6706330 114.9824670  42.3517350  23.4686620
 115.5003340  41.5485610  23.4143510 114.5308690  42.2896490  24.3103450
 119.8694170  43.6183630  18.7413920 120.2109870  44.3625860  18.2457240
 119.0406880  43.9314750  19.1038750 112.4669210  39.3178720  30.3812320
 112.1084150  39.9832570  30.9685660 112.1723770  38.4862270  30.7524940
 115.6682330  39.7762960  33.2651870 115.3682470  39.9220140  32.3679690
 116.4393570  39.2168250  33.1725260 121.0110780  44.5731960  31.2607000
 121.0255320  43.6412920  31.0425910 120.3035880  44.6591720  31.8996770
 122.7521580  42.9399470  24.1059430 123.1045400  42.3427600  23.4460800
 121.8683910  42.6143700  24.2767680 118.8384860  43.6997160  21.5129840
 119.5255990  44.2466370  21.8937430 118.0517280  44.2437890  21.5479450
 110.9777260  39.3169980  17.0046920 111.8472110  39.5994780  17.2882840
 110.4867580  40.1305850  16.8895730 118.1412070  40.7043190  21.1255200
 118.5974850  41.5148440  21.3515390 117.7900280  40.3866330  21.9573690
 120.4444680  46.2149530  28.3547500 121.0886900  46.4208910  29.0320920
 120.8074120  45.4537930  27.9018350 114.0423850  31.0480840  21.5977720
 113.9138480  31.0398740  22.5462640 113.2185870  31.3863930  21.2468730
 121.7176760  44.2181880  27.0724950 122.3598990  43.5175040  27.1857120
 122.2426110  44.9980320  26.8921840 123.4914380  45.0176780  30.2761010
 123.8270620  45.6043470  30.9538930 122.5714720  44.8869490  30.5058800
 111.3448510  48.5297360  17.5708550 111.7046150  49.1286700  16.9165820
 111.2040850  49.0757250  18.3443580 111.0417780  32.8071960  31.0584420
 110.3276300  33.0068880  31.6637030 111.4612820  32.0311530  31.4299220
 111.3290370  46.7952220  32.0450950 111.4381490  45.8546960  31.9046340
 110.6770930  47.0606970  31.3964680 119.3202960  45.0668110  33.4449070
 118.9999830  44.3477350  33.9894760 118.6461320  45.7423180  33.5185130
 117.3617130  45.9128560  18.3882220 117.3527230  46.6458250  17.7726730
 116.4415490  45.6660140  18.4809180 112.9623770  41.1343450  19.1328980
 112.3551720  41.8742350  19.1424280 113.4373120  41.2242810  18.3067180
 122.5356560  35.2994270  28.8085870 122.9037380  34.4789480  29.1365440
 121.6754760  35.3596160  29.2241520 120.3476730  45.9756800  17.0507410
 120.4488710  45.7720790  16.1209390 119.4478470  45.7215080  17.2555190
 117.8702620  36.5337160  21.0331310 117.1618770  37.0023500  21.4744920
 118.1547100  35.8759170  21.6676500 119.4958550  37.9533860  29.0323840
 119.9943800  38.4279680  29.6975690 119.6381500  37.0297380  29.2393870
 121.9018050  33.2587820  22.4727100 121.7785830  33.2773950  21.5236610
 122.8502610  33.3066760  22.5925500 118.9894840  48.4943120  21.7455080
 119.2436340  48.4564510  20.8234450 118.0407320  48.3676450  21.7383330
 116.0737640  34.8422240  18.4082020 116.9228170  35.2792390  18.3422210
 115.7068910  35.1542500  19.2354080 114.9729060  41.0954600  16.8817550
 115.7392330  40.9835960  17.4442980 115.0503750  40.3992570  16.2294320
 113.6675820  38.5279670  17.5650440 113.7479410  37.5807180  17.6767840
 114.5595570  38.8586550  17.6711100 114.4690530  48.6775060  24.6684980
 115.2053010  48.1290520  24.9393550 114.8531450  49.5431070  24.5290970
 111.3536010  44.7448630  20.5426490 110.4275790  44.9869770  20.5331900
 111.8192440  45.5722890  20.4211240 113.4748810  47.8621130  33.8570560
 114.2761540  48.1833180  34.2705960 112.9600630  47.5016710  34.5790470
 117.5792840  47.8505370  16.4910550 118.3721450  48.1394200  16.0392340
 117.0597190  47.4197540  15.8123030 122.3113440  43.9701000  33.8045970
 121.7051600  43.9932600  33.0641720 122.0067550  43.2384040  34.3413220
 123.7413810  47.6981290  32.4155380 124.6935560  47.6139310  32.3655620
 123.5942030  48.3623000  33.0889170 111.1946620  40.3494590  32.8006610
 111.6985640  39.7701870  33.3722840 110.4554040  40.6334820  33.3382980
 118.0970240  43.0708780  16.3552900 117.9920880  42.4561130  17.0814280
 117.9294460  42.5474670  15.5715910 118.2484560  41.7565580  32.3342130
 117.4830230  42.3250580  32.2496800 118.4300520  41.4641790  31.4410360
 121.3372970  42.1328810  16.9594890 120.7883070  42.5798110  17.6037630
 121.9592230  41.6278060  17.4832560 113.2269700  38.4924180  33.6956680
 113.2675040  38.1938050  34.6041910 114.0815200  38.8931790  33.5364200
 117.0048090  41.0919730  18.8560190 117.4264510  40.9259600  19.6991580
 117.1298930  40.2819960  18.3615330 115.1675510  37.0716280  31.6631170
 114.6371970  36.5807230  31.0354510 115.8363580  37.5000480  31.1289100
 119.5175730  40.1157340  16.1037290 120.0381390  39.4006360  15.7378440
 120.1644130  40.7543210  16.4037800 124.0653570  41.5385740  31.4272360
 124.4794590  41.6930820  32.2762780 123.1304570  41.6640960  31.5898140
 124.5375740  38.8781900  33.4311510 125.1196510  38.1234220  33.3431990
 124.7137510  39.4089340  32.6542990 115.6547810  34.0378650  31.7428460
 115.5604680  33.4199400  31.0179330 115.0745200  34.7644940  31.5158370
 118.4209250  32.5951890  28.7755850 117.9726550  32.6176150  27.9301400
 117.7874450  32.1970910  29.3726150 118.8268800  41.4906220  29.3968290
 119.2456910  42.3338950  29.2244530 117.9077430  41.6278260  29.1675070
 121.1632700  39.2222400  30.7806130 121.2828910  38.6263540  31.5200970
 122.0226700  39.2592090  30.3607430 123.5020600  39.7759590  29.3568640
 122.9755820  40.3002210  28.7533780 123.8451940  40.4086980  29.9878370
 115.9006990  37.1652960  15.8018350 115.6996050  36.3020320  16.1631690
 115.7299040  37.0786320  14.8639950 116.6776220  47.7959230  30.5126020
 116.1397310  48.5205290  30.1934720 116.9310180  47.3189570  29.7223360
 117.9301470  35.7643750  32.0381950 118.5201160  35.4559600  32.7259770
 117.1121710  35.2923500  32.1941850 122.7494900  35.3809560  32.2714970
 122.0610420  34.7191100  32.2064960 123.4700920  34.9347830  32.7163430
 123.3795300  31.9761190  18.3305230 123.6597590  31.1329090  18.6864650
 122.6061030  32.2084300  18.8443980 114.6989790  34.2653580  15.7896230
 115.0015690  34.2721010  14.8815380 115.4384380  33.9151440  16.2863890
 119.5338430  49.0310440  30.7712670 119.4597130  49.9345580  31.0785040
 118.6317270  48.7122340  30.7434740 117.9174720  33.2088200  16.7752430
 117.5696720  32.5312190  16.1954880 118.1187490  32.7477710  17.5895820
 120.0823760  48.1968950  18.3939030 120.9774550  48.5353920  18.4157790
 120.1141390  47.4748360  17.7663310 113.7219920  43.5696000  16.6226030
 114.1594790  44.1125670  17.2783610 114.2067650  42.7442950  16.6322370
 110.9365720  46.3585030  24.0746290 111.2668730  45.4906090  23.8424930
 111.3656720  46.5643550  24.9051250 115.5327640  44.6894040  21.7348260
 115.2323180  44.5659010  22.6352170 115.4265130  43.8302630  21.3263990
 111.4255930  47.2255620  26.8127920 110.9886920  47.4056420  27.6452070
 111.9933610  47.9830240  26.6709640 111.2580360  39.7375850  23.1716800
 110.6029200  39.4687490  22.5276500 112.0958310  39.6280330  22.7218780
 124.2070800  34.5317140  17.3935290 124.6255680  34.3448120  16.5531950
 123.9006860  33.6796190  17.7038220 112.2956290  40.1228420  27.7120140
 112.6629330  40.0355820  28.5916160 111.7267110  39.3594970  27.6127000
 111.8472290  37.0337510  31.6178560 110.9528340  37.0004270  31.9572270
 112.3869840  37.2324300  32.3829810 110.4718440  36.9474780  19.1142130
 109.5682520  37.2104980  18.9393790 110.9559060  37.2185950  18.3342090
 113.0145650  36.0040320  17.0236510 113.7237350  35.5823540  16.5383790
 112.2985590  36.0715550  16.3919860 112.6619810  32.0579650  16.0639160
 113.3847940  32.5988590  16.3820380 112.9344330  31.7843070  15.1880700
 112.3512000  31.3085840  25.9661780 112.9988190  30.7583220  25.5256940
 112.7713840  31.5628990  26.7877590 112.1044000  31.4641510  28.7087100
 111.7558820  31.9205330  29.4745280 111.7731700  30.5698640  28.7909530
 113.7108370  44.6361110  32.8740290 113.6678000  44.2654020  33.7554750
 113.8419380  45.5738680  33.0142110 117.4114400  46.1920700  28.4750010
 117.1705760  46.4595260  27.5880530 118.3517040  46.3626430  28.5300870
 119.6168820  32.6553390  32.2306520 119.5557710  33.2475220  32.9801930
 120.5569200  32.5479350  32.0856780 122.2543380  32.3123450  31.8698810
 122.8683790  32.6302740  31.2079890 122.7992940  31.8272040  32.4894670
 112.7764640  30.9917710  31.9837870 113.3247630  30.8105760  31.2203980
 112.8419950  30.2011820  32.5194180 113.5496400  47.5823360  29.9938070
 112.9556720  47.4508060  30.7328110 113.5420240  46.7461500  29.5280170
 122.9951420  30.8755590  28.1968100 122.1211260  31.2090700  27.9941030
 122.8862170  30.4028770  29.0219970 123.9023400  33.0826460  29.5809820
 123.5736760  32.2678220  29.2011550 124.8505700  33.0396270  29.4575510
 113.1808630  44.9481740  28.9446110 112.4542690  44.3287030  28.8772060
 113.2417780  45.3422350  28.0744190 116.7853730  47.1626740  25.7295520
 117.3018750  46.5514100  25.2043780 117.4351110  47.6655520  26.2206530
 119.5249230  48.0535230  26.5564500 119.8127040  47.7989530  25.6797510
 120.0372450  47.5012590  27.1470070 120.7426240  31.7925430  27.1361010
 119.9598030  32.2670930  27.4157770 120.4489170  30.8880260  27.0274190
 111.4638630  48.2656130  22.1542870 111.2960670  47.6326810  22.8524760
 110.5973140  48.4715530  21.8037060 112.0866650  32.0972910  19.6574730
 112.8446010  32.2101790  19.0838760 111.6243820  32.9342110  19.6118160
 118.6280460  34.2112180  22.6477040 117.8154970  33.8369070  22.3072920
 119.1322100  33.4557260  22.9498230 123.1305440  30.8754630  23.8860110
 123.7334810  31.4474840  24.3608630 122.3898430  31.4394070  23.6634010
 113.0701330  46.9589360  19.5993010 112.5448950  47.3397390  18.8954970
 112.9945910  47.5840130  20.3202720 114.4591800  32.6236960  18.1976700
 114.9884560  31.8366760  18.0684650 115.0920120  33.3028150  18.4312230
 116.6529640  32.3612100  21.2522090 116.0232380  31.6599410  21.4192220
 116.1134780  33.1216230  21.0355250 119.5921590  48.9751330  33.9232700
 120.5188900  48.7395600  33.9668660 119.5772020  49.8023330  33.4418730
 116.7785200  31.6396080  33.6874580 116.4969470  32.1429680  32.9235400
 117.1604900  30.8417830  33.3216710 115.6694300  48.9071740  18.4742260
 116.4013120  48.6231020  17.9266150 115.9287970  48.6685020  19.3641640
 114.8309090  45.0236470  18.4788590 114.2017970  45.4921570  19.0274420
 114.9456920  44.1785690  18.9134780 123.3800660  31.0549660  34.2655050
 123.2666110  31.3744270  35.1606570 124.1970400  31.4562170  33.9692330
 122.2858810  39.0742130   4.6289790 122.2052860  38.1596740   4.3581500
 121.8723230  39.5709200   3.9229500 120.4176850  40.8521150   6.5099060
 119.6418950  40.3721590   6.7997630 121.0689780  40.1726800   6.3355220
 114.4342680  41.1640960   7.3874820 113.6027560  40.9089670   7.7871330
 115.0423660  41.2351730   8.1232740 124.4384280  45.2581340   5.2898190
 123.9765810  44.4868580   5.6185360 125.2509830  45.2847410   5.7950640
 114.4143940  45.1981050   7.5832840 114.7171980  44.3078790   7.4043060
 115.1587530  45.7551270   7.3555090 110.8067640  38.7248500   7.0556910
 111.3783750  37.9570700   7.0560550 110.8069180  39.0237260   6.1463520
 120.6647590  47.5439350   4.9102180 120.0459030  47.9996850   4.3396620
 121.5199370  47.6990810   4.5091880 119.8585840  43.5278340   6.5169220
 119.7894120  42.5868280   6.3558350 120.6205700  43.6179750   7.0891790
 112.0492510  34.1332860   8.8425840 111.8695350  33.2358610   9.1228600
 111.6472590  34.6804730   9.5172790 120.8891010  36.3348720   6.7438150
 121.2655830  35.4620600   6.6311820 120.7910520  36.6707420   5.8528590
 115.0196020  34.7074350   2.2055590 115.1262770  35.6078080   2.5124350
 114.1088380  34.6592320   1.9150240 112.6679180  36.6293360   7.4508180
 113.3489290  36.8931730   8.0695580 112.3527230  35.7894230   7.7846190
 116.8603750  37.6760720   6.5380770 117.3681970  38.1741690   7.1785790
 117.3916990  36.8995920   6.3620130 115.1439850  32.3159280  10.8044190
 115.1458290  32.8331670   9.9990090 114.3144160  31.8389460  10.7814120
 121.5310940  42.4278590   2.3034090 120.9128210  42.8928040   1.7396810
 122.0434190  43.1206070   2.7203600 116.3942700  41.9554460   8.9817690
 116.0612080  42.5823380   9.6238760 116.5709380  42.4816340   8.2019360
 124.9076610  35.7699540   6.4494030 124.2032180  36.0584430   7.0297140
 125.2688770  36.5799650   6.0893590 114.8255180  34.0269240   8.8114640
 115.1671990  34.8711290   8.5168510 113.8870990  34.1752980   8.9279980
 115.6061800  43.9235260  10.7966870 116.2235800  44.5986340  10.5151320
 114.7454920  44.3323240  10.7054370 118.5083070  31.5151510   5.1359230
 118.8158050  30.9598400   4.4194730 117.5783770  31.6495970   4.9532220
 124.0598130  47.2318800   7.4266690 124.0725290  46.8281090   6.5588950
 123.5073350  48.0066090   7.3228120 123.4583570  42.1348640   8.7549300
 123.8752360  41.9208750   7.9202760 124.1823390  42.3921430   9.3257920
 120.8963830  39.5800340   1.8719350 119.9693110  39.5137720   2.1007820
 121.0488650  40.5180470   1.7574590 124.9261120  41.1420640   2.3754600
 124.3073540  40.8040190   1.7280900 124.9085570  40.4980400   3.0833790
 124.3687680  37.3205180   9.7920410 123.9558860  38.1458890  10.0460400
 123.6363630  36.7350220   9.5996770 116.5020470  40.1065080   4.6539080
 116.0977470  39.3942330   4.1584980 116.5883590  39.7618320   5.5427120
 116.9702170  43.7932640   6.8178290 116.6730460  43.1878110   6.1386070
 117.9201990  43.8309950   6.7067650 115.2149090  36.8808290   8.4338120
 115.7663680  36.9903630   7.6591370 115.7292600  37.2545890   9.1493350
 125.0587780  47.3664510  10.4801390 124.5818340  48.1736700  10.2874000
 124.3749570  46.7142840  10.6327600 116.0620600  43.5314330  13.4686090
 115.1649130  43.7554300  13.7159490 116.0873470  43.6549270  12.5197490
 114.8891820  40.4027650  12.0443460 114.7499590  41.2750450  12.4130860
 114.0073180  40.0600460  11.8991400 121.2121200  45.3203520   3.3508590
 121.6517110  46.0627850   2.9363980 121.1508090  45.5630090   4.2747550
 116.6872170  46.3449350  14.2528610 116.6587600  46.7492300  13.3857040
 116.5237140  45.4159710  14.0900210 113.2025100  39.0010060   2.1545730
 113.0822700  39.7272150   1.5427000 112.8925990  38.2312970   1.6773640
 110.8410470  42.1725200   7.9614370 110.9190890  42.3073970   7.0170090
 111.4552150  41.4641090   8.1542490 112.0858100  43.8725390   4.3720550
 111.6786180  44.0139980   3.5174150 112.9771110  43.5885550   4.1691760
 121.9036980  48.0217300  11.2787600 122.4181650  47.9325310  12.0810030
 121.0606060  48.3677000  11.5715510 116.3579760  48.0871170   2.4843220
 116.1822240  47.1706710   2.2711020 115.5035500  48.4458460   2.7241020
 123.1467440  47.4422910   3.3418090 123.6024390  46.6612290   3.6556710
 123.4859960  48.1529730   3.8859270 110.8969990  43.2139370  10.5008830
 111.0601030  42.7444730   9.6828200 111.3622440  42.7062930  11.1657670
 115.6688760  32.3445130   5.5369400 115.2256910  33.1254670   5.2053920
 116.2273750  32.6675020   6.2440340 119.9558570  35.2113650  11.1404720
 119.4937940  35.4196670  11.9524660 119.5536680  34.3973000  10.8375390
 124.9563080  36.4322600  12.2701380 124.1056670  36.1328350  12.5910450
 124.7964870  36.6764610  11.3585200 122.0512790  37.9324350  14.3700170
 122.3766200  37.0988100  14.0302400 122.8393120  38.4552870  14.5178500
 117.7064660  32.8892460   7.3959000 118.0036990  33.7955290   7.3151020
 118.2550220  32.4011240   6.7818570 115.4602980  37.4678700   3.2650650
 115.2343900  37.2515870   4.1697270 114.6795510  37.9007160   2.9196620
 117.9002190  38.3664280  13.9310920 117.8045790  37.4259010  13.7811320
 118.7434170  38.5879350  13.5358990 121.2965610  36.1105610   3.8944580
 121.6895180  36.4277810   3.0813270 121.6582460  35.2317490   4.0089100
 113.0312730  34.7777950  12.0844700 112.6376120  35.6253160  12.2917480
 112.3431130  34.1404320  12.2753340 119.6057780  34.8612920  15.1541440
 118.9156100  34.6685120  15.7887530 120.3490080  35.1447560  15.6865740
 110.3329780  32.7006410   6.1174780 110.0442830  33.2709270   6.8299760
 111.0775540  32.2210860   6.4806010 121.8820750  38.7011360   7.9895360
 121.1501870  39.2098170   8.3385460 121.4845090  37.8841340   7.6884140
 118.3198140  35.3765560   6.3947850 118.3234200  34.9355510   5.5452390
 119.2149260  35.6982890   6.5019670 114.1700520  35.2592050   5.3542060
 113.8300570  35.7367280   6.1109110 113.4077840  34.8057170   4.9943160
 122.3446660  34.1545040   7.4018300 122.3619400  34.6053690   8.2460150
 122.0962240  33.2550680   7.6151740 112.4708970  42.5890800  12.6604640
 112.0863760  41.9484470  13.2587600 112.7821160  43.2926920  13.2299370
 118.6206110  39.4367340   8.1413260 118.9876240  38.9625910   8.8874600
 118.4311170  40.3108910   8.4821600 111.4846600  34.1811030   4.2706730
 111.1993520  33.8166700   5.1085350 111.4225460  33.4491490   3.6569870
 116.4105480  38.4775980  10.4597470 116.1062550  39.3567960  10.6847830
 117.3651940  38.5375770  10.4954910 121.0794050  41.7511390  12.7359710
 121.0131360  40.8307060  12.4817300 120.4499190  41.8486830  13.4504350
 114.9824670  42.3517350   4.6943130 115.5003340  41.5485610   4.6400020
 114.5308690  42.2896490   5.5359960 112.4669210  39.3178720  11.6068830
 112.1084150  39.9832570  12.1942170 112.1723770  38.4862270  11.9781450
 115.6682330  39.7762960  14.4908380 115.3682470  39.9220140  13.5936200
 116.4393570  39.2168250  14.3981770 121.0110780  44.5731960  12.4863510
 121.0255320  43.6412920  12.2682420 120.3035880  44.6591720  13.1253280
 122.7521580  42.9399470   5.3315940 123.1045400  42.3427600   4.6717310
 121.8683910  42.6143700   5.5024190 118.8384860  43.6997160   2.7386350
 119.5255990  44.2466370   3.1193940 118.0517280  44.2437890   2.7735960
 118.1412070  40.7043190   2.3511710 118.5974850  41.5148440   2.5771900
 117.7900280  40.3866330   3.1830200 120.4444680  46.2149530   9.5804010
 121.0886900  46.4208910  10.2577430 120.8074120  45.4537930   9.1274860
 114.0423850  31.0480840   2.8234230 113.9138480  31.0398740   3.7719150
 113.2185870  31.3863930   2.4725240 121.7176760  44.2181880   8.2981460
 122.3598990  43.5175040   8.4113630 122.2426110  44.9980320   8.1178350
 123.4914380  45.0176780  11.5017520 123.8270620  45.6043470  12.1795440
 122.5714720  44.8869490  11.7315310 111.0417780  32.8071960  12.2840930
 110.3276300  33.0068880  12.8893540 111.4612820  32.0311530  12.6555730
 111.3290370  46.7952220  13.2707460 111.4381490  45.8546960  13.1302850
 110.6770930  47.0606970  12.6221190 119.3202960  45.0668110  14.6705580
 118.9999830  44.3477350  15.2151270 118.6461320  45.7423180  14.7441640
 122.5356560  35.2994270  10.0342380 122.9037380  34.4789480  10.3621950
 121.6754760  35.3596160  10.4498030 117.8702620  36.5337160   2.2587820
 117.1618770  37.0023500   2.7001430 118.1547100  35.8759170   2.8933010
 119.4958550  37.9533860  10.2580350 119.9943800  38.4279680  10.9232200
 119.6381500  37.0297380  10.4650380 121.9018050  33.2587820   3.6983610
 121.7785830  33.2773950   2.7493120 122.8502610  33.3066760   3.8182010
 118.9894840  48.4943120   2.9711590 119.2436340  48.4564510   2.0490960
 118.0407320  48.3676450   2.9639840 114.4690530  48.6775060   5.8941490
 115.2053010  48.1290520   6.1650060 114.8531450  49.5431070   5.7547480
 111.3536010  44.7448630   1.7683000 110.4275790  44.9869770   1.7588410
 111.8192440  45.5722890   1.6467750 113.4748810  47.8621130  15.0827070
 114.2761540  48.1833180  15.4962470 112.9600630  47.5016710  15.8046980
 122.3113440  43.9701000  15.0302480 121.7051600  43.9932600  14.2898230
 122.0067550  43.2384040  15.5669730 123.7413810  47.6981290  13.6411890
 124.6935560  47.6139310  13.5912130 123.5942030  48.3623000  14.3145680
 111.1946620  40.3494590  14.0263120 111.6985640  39.7701870  14.5979350
 110.4554040  40.6334820  14.5639490 118.2484560  41.7565580  13.5598640
 117.4830230  42.3250580  13.4753310 118.4300520  41.4641790  12.6666870
 113.2269700  38.4924180  14.9213190 113.2675040  38.1938050  15.8298420
 114.0815200  38.8931790  14.7620710 115.1675510  37.0716280  12.8887680
 114.6371970  36.5807230  12.2611020 115.8363580  37.5000480  12.3545610
 124.0653570  41.5385740  12.6528870 124.4794590  41.6930820  13.5019290
 123.1304570  41.6640960  12.8154650 124.5375740  38.8781900  14.6568020
 125.1196510  38.1234220  14.5688500 124.7137510  39.4089340  13.8799500
 115.6547810  34.0378650  12.9684970 115.5604680  33.4199400  12.2435840
 115.0745200  34.7644940  12.7414880 118.4209250  32.5951890  10.0012360
 117.9726550  32.6176150   9.1557910 117.7874450  32.1970910  10.5982660
 118.8268800  41.4906220  10.6224800 119.2456910  42.3338950  10.4501040
 117.9077430  41.6278260  10.3931580 121.1632700  39.2222400  12.0062640
 121.2828910  38.6263540  12.7457480 122.0226700  39.2592090  11.5863940
 123.5020600  39.7759590  10.5825150 122.9755820  40.3002210   9.9790290
 123.8451940  40.4086980  11.2134880 116.6776220  47.7959230  11.7382530
 116.1397310  48.5205290  11.4191230 116.9310180  47.3189570  10.9479870
 117.9301470  35.7643750  13.2638460 118.5201160  35.4559600  13.9516280
 117.1121710  35.2923500  13.4198360 122.7494900  35.3809560  13.4971480
 122.0610420  34.7191100  13.4321470 123.4700920  34.9347830  13.9419940
 119.5338430  49.0310440  11.9969180 119.4597130  49.9345580  12.3041550
 118.6317270  48.7122340  11.9691250 110.9365720  46.3585030   5.3002800
 111.2668730  45.4906090   5.0681440 111.3656720  46.5643550   6.1307760
 115.5327640  44.6894040   2.9604770 115.2323180  44.5659010   3.8608680
 115.4265130  43.8302630   2.5520500 111.4255930  47.2255620   8.0384430
 110.9886920  47.4056420   8.8708580 111.9933610  47.9830240   7.8966150
 111.2580360  39.7375850   4.3973310 110.6029200  39.4687490   3.7533010
 112.0958310  39.6280330   3.9475290 112.2956290  40.1228420   8.9376650
 112.6629330  40.0355820   9.8172670 111.7267110  39.3594970   8.8383510
 111.8472290  37.0337510  12.8435070 110.9528340  37.0004270  13.1828780
 112.3869840  37.2324300  13.6086320 112.3512000  31.3085840   7.1918290
 112.9988190  30.7583220   6.7513450 112.7713840  31.5628990   8.0134100
 112.1044000  31.4641510   9.9343610 111.7558820  31.9205330  10.7001790
 111.7731700  30.5698640  10.0166040 113.7108370  44.6361110  14.0996800
 113.6678000  44.2654020  14.9811260 113.8419380  45.5738680  14.2398620
 117.4114400  46.1920700   9.7006520 117.1705760  46.4595260   8.8137040
 118.3517040  46.3626430   9.7557380 119.6168820  32.6553390  13.4563030
 119.5557710  33.2475220  14.2058440 120.5569200  32.5479350  13.3113290
 122.2543380  32.3123450  13.0955320 122.8683790  32.6302740  12.4336400
 122.7992940  31.8272040  13.7151180 112.7764640  30.9917710  13.2094380
 113.3247630  30.8105760  12.4460490 112.8419950  30.2011820  13.7450690
 113.5496400  47.5823360  11.2194580 112.9556720  47.4508060  11.9584620
 113.5420240  46.7461500  10.7536680 122.9951420  30.8755590   9.4224610
 122.1211260  31.2090700   9.2197540 122.8862170  30.4028770  10.2476480
 123.9023400  33.0826460  10.8066330 123.5736760  32.2678220  10.4268060
 124.8505700  33.0396270  10.6832020 113.1808630  44.9481740  10.1702620
 112.4542690  44.3287030  10.1028570 113.2417780  45.3422350   9.3000700
 116.7853730  47.1626740   6.9552030 117.3018750  46.5514100   6.4300290
 117.4351110  47.6655520   7.4463040 119.5249230  48.0535230   7.7821010
 119.8127040  47.7989530   6.9054020 120.0372450  47.5012590   8.3726580
 120.7426240  31.7925430   8.3617520 119.9598030  32.2670930   8.6414280
 120.4489170  30.8880260   8.2530700 111.4638630  48.2656130   3.3799380
 111.2960670  47.6326810   4.0781270 110.5973140  48.4715530   3.0293570
 118.6280460  34.2112180   3.8733550 117.8154970  33.8369070   3.5329430
 119.1322100  33.4557260   4.1754740 123.1305440  30.8754630   5.1116620
 123.7334810  31.4474840   5.5865140 122.3898430  31.4394070   4.8890520
 116.6529640  32.3612100   2.4778600 116.0232380  31.6599410   2.6448730
 116.1134780  33.1216230   2.2611760 119.5921590  48.9751330  15.1489210
 120.5188900  48.7395600  15.1925170 119.5772020  49.8023330  14.6675240
 116.7785200  31.6396080  14.9131090 116.4969470  32.1429680  14.1491910
 117.1604900  30.8417830  14.5473220 123.3800660  31.0549660  15.4911560
 123.2666110  31.3744270  16.3863080 124.1970400  31.4562170  15.1948840
 122.2858810  20.2998640  98.5007240 122.2052860  19.3853250  98.2298950
 121.8723230  20.7965710  97.7946950 120.4176850  22.0777660 100.3816510
 119.6418950  21.5978100 100.6715080 121.0689780  21.3983310 100.2072670
 114.4342680  22.3897470 101.2592270 113.6027560  22.1346180 101.6588780
 115.0423660  22.4608240 101.9950190 124.4384280  26.4837850  99.1615640
 123.9765810  25.7125090  99.4902810 125.2509830  26.5103920  99.6668090
 114.4143940  26.4237560 101.4550290 114.7171980  25.5335300 101.2760510
 115.1587530  26.9807780 101.2272540 112.8434630  17.3499360  95.0434660
 111.9551330  17.6915330  94.9414540 113.1275820  17.1499680  94.1515490
 110.8067640  19.9505010 100.9274360 111.3783750  19.1827210 100.9278000
 110.8069180  20.2493770 100.0180970 120.6647590  28.7695860  98.7819630
 120.0459030  29.2253360  98.2114070 121.5199370  28.9247320  98.3809330
 119.8585840  24.7534850 100.3886670 119.7894120  23.8124790 100.2275800
 120.6205700  24.8436260 100.9609240 112.0492510  15.3589370 102.7143290
 111.8695350  14.4615120 102.9946050 111.6472590  15.9061240 103.3890240
 120.8891010  17.5605230 100.6155600 121.2655830  16.6877110 100.5029270
 120.7910520  17.8963930  99.7246040 115.0196020  15.9330860  96.0773040
 115.1262770  16.8334590  96.3841800 114.1088380  15.8848830  95.7867690
 112.6679180  17.8549870 101.3225630 113.3489290  18.1188240 101.9413030
 112.3527230  17.0150740 101.6563640 116.8603750  18.9017230 100.4098220
 117.3681970  19.3998200 101.0503240 117.3916990  18.1252430 100.2337580
 115.1439850  13.5415790 104.6761640 115.1458290  14.0588180 103.8707540
 114.3144160  13.0645970 104.6531570 121.5310940  23.6535100  96.1751540
 120.9128210  24.1184550  95.6114260 122.0434190  24.3462580  96.5921050
 116.3942700  23.1810970 102.8535140 116.0612080  23.8079890 103.4956210
 116.5709380  23.7072850 102.0736810 124.9076610  16.9956050 100.3211480
 124.2032180  17.2840940 100.9014590 125.2688770  17.8056160  99.9611040
 114.8255180  15.2525750 102.6832090 115.1671990  16.0967800 102.3885960
 113.8870990  15.4009490 102.7997430 115.6061800  25.1491770 104.6684320
 116.2235800  25.8242850 104.3868770 114.7454920  25.5579750 104.5771820
 110.8994140  24.3391630  93.5491170 110.5222120  24.8278730  92.8176070
 111.1567210  25.0116910  94.1797700 118.5083070  12.7408020  99.0076680
 118.8158050  12.1854910  98.2912180 117.5783770  12.8752480  98.8249670
 124.0598130  28.4575310 101.2984140 124.0725290  28.0537600 100.4306400
 123.5073350  29.2322600 101.1945570 123.4583570  23.3605150 102.6266750
 123.8752360  23.1465260 101.7920210 124.1823390  23.6177940 103.1975370
 120.8963830  20.8056850  95.7436800 119.9693110  20.7394230  95.9725270
 121.0488650  21.7436980  95.6292040 120.8832910  17.0773850  92.7403960
 119.9436580  17.2387810  92.8256420 121.2016170  17.7959530  92.1939950
 124.9261120  22.3677150  96.2472050 124.3073540  22.0296700  95.5998350
 124.9085570  21.7236910  96.9551240 124.3687680  18.5461690 103.6637860
 123.9558860  19.3715400 103.9177850 123.6363630  17.9606730 103.4714220
 116.5020470  21.3321590  98.5256530 116.0977470  20.6198840  98.0302430
 116.5883590  20.9874830  99.4144570 116.9702170  25.0189150 100.6895740
 116.6730460  24.4134620 100.0103520 117.9201990  25.0566460 100.5785100
 115.2149090  18.1064800 102.3055570 115.7663680  18.2160140 101.5308820
 115.7292600  18.4802400 103.0210800 125.0587780  28.5921020 104.3518840
 124.5818340  29.3993210 104.1591450 124.3749570  27.9399350 104.5045050
 123.1025820  21.6063960  93.2544800 123.5419100  20.7686390  93.1082620
 123.8154240  22.2393360  93.3408940 121.2121200  26.5460030  97.2226040
 121.6517110  27.2884360  96.8081430 121.1508090  26.7886600  98.1465000
 113.2025100  20.2266570  96.0263180 113.0822700  20.9528660  95.4144450
 112.8925990  19.4569480  95.5491090 110.8410470  23.3981710 101.8331820
 110.9190890  23.5330480 100.8887540 111.4552150  22.6897600 102.0259940
 112.0858100  25.0981900  98.2438000 111.6786180  25.2396490  97.3891600
 112.9771110  24.8142060  98.0409210 123.8791380  29.5329150  94.5789050
 123.7192520  29.2432090  95.4770880 123.7138090  28.7569280  94.0434280
 116.3579760  29.3127680  96.3560670 116.1822240  28.3963220  96.1428470
 115.5035500  29.6714970  96.5958470 123.5817510  27.0416710  93.1387050
 122.8882670  27.0394000  92.4789330 124.3240370  26.6176030  92.7081220
 123.1467440  28.6679420  97.2135540 123.6024390  27.8868800  97.5274160
 123.4859960  29.3786240  97.7576720 115.6688760  13.5701640  99.4086850
 115.2256910  14.3511180  99.0771370 116.2273750  13.8931530 100.1157790
 118.7847580  13.1912340  94.2892680 118.1601760  13.1872210  95.0145990
 118.6977700  12.3243300  93.8928650 117.7064660  14.1148970 101.2676450
 118.0036990  15.0211800 101.1868470 118.2550220  13.6267750 100.6536020
 115.4602980  18.6935210  97.1368100 115.2343900  18.4772380  98.0414720
 114.6795510  19.1263670  96.7914070 122.6900740  18.6998580  95.7358750
 122.0909630  19.4234380  95.5522370 123.2380350  18.6375360  94.9535200
 121.2965610  17.3362120  97.7662030 121.6895180  17.6534320  96.9530720
 121.6582460  16.4574000  97.8806550 110.3329780  13.9262920  99.9892230
 110.0442830  14.4965780 100.7017210 111.0775540  13.4467370 100.3523460
 110.5200010  17.8683040  91.1994950 110.4374680  18.8113800  91.3409940
 110.1683070  17.7257950  90.3207300 121.8820750  19.9267870 101.8612810
 121.1501870  20.4354680 102.2102910 121.4845090  19.1097850 101.5601590
 118.3198140  16.6022070 100.2665300 118.3234200  16.1612020  99.4169840
 119.2149260  16.9239400 100.3737120 114.1700520  16.4848560  99.2259510
 113.8300570  16.9623790  99.9826560 113.4077840  16.0313680  98.8660610
 118.3818290  17.6034150  93.2572060 118.5031110  17.5620630  94.2057880
 117.9966800  18.4658300  93.1018790 122.3446660  15.3801550 101.2735750
 122.3619400  15.8310200 102.1177600 122.0962240  14.4807190 101.4869190
 117.3939790  19.9135290  92.6555360 116.8256690  19.4653540  92.0291270
 118.1028790  20.2728070  92.1220510 118.6206110  20.6623850 102.0130710
 118.9876240  20.1882420 102.7592050 118.4311170  21.5365420 102.3539050
 111.4846600  15.4067540  98.1424180 111.1993520  15.0423210  98.9802800
 111.4225460  14.6748000  97.5287320 116.4105480  19.7032490 104.3314920
 116.1062550  20.5824470 104.5565280 117.3651940  19.7632280 104.3672360
 114.9387270  23.9093480  94.9281770 114.1649530  23.3691100  94.7680490
 115.6681900  23.3900090  94.5899530 121.1585190  14.2996800  94.8637550
 120.3449800  13.8009970  94.7882860 120.9647140  15.1395050  94.4473900
 123.8733580  18.6716450  93.1599710 124.7613200  18.9833680  92.9851050
 123.8438670  17.7988700  92.7680290 114.9824670  23.5773860  98.5660580
 115.5003340  22.7742120  98.5117470 114.5308690  23.5153000  99.4077410
 119.8694170  24.8440140  93.8387880 120.2109870  25.5882370  93.3431200
 119.0406880  25.1571260  94.2012710 122.7521580  24.1655980  99.2033390
 123.1045400  23.5684110  98.5434760 121.8683910  23.8400210  99.3741640
 118.8384860  24.9253670  96.6103800 119.5255990  25.4722880  96.9911390
 118.0517280  25.4694400  96.6453410 110.9777260  20.5426490  92.1020880
 111.8472110  20.8251290  92.3856800 110.4867580  21.3562360  91.9869690
 118.1412070  21.9299700  96.2229160 118.5974850  22.7404950  96.4489350
 117.7900280  21.6122840  97.0547650 120.4444680  27.4406040 103.4521460
 121.0886900  27.6465420 104.1294880 120.8074120  26.6794440 102.9992310
 114.0423850  12.2737350  96.6951680 113.9138480  12.2655250  97.6436600
 113.2185870  12.6120440  96.3442690 121.7176760  25.4438390 102.1698910
 122.3598990  24.7431550 102.2831080 122.2426110  26.2236830 101.9895800
 111.3448510  29.7553870  92.6682510 111.7046150  30.3543210  92.0139780
 111.2040850  30.3013760  93.4417540 117.3617130  27.1385070  93.4856180
 117.3527230  27.8714760  92.8700690 116.4415490  26.8916650  93.5783140
 112.9623770  22.3599960  94.2302940 112.3551720  23.0998860  94.2398240
 113.4373120  22.4499320  93.4041140 122.5356560  16.5250780 103.9059830
 122.9037380  15.7045990 104.2339400 121.6754760  16.5852670 104.3215480
 120.3476730  27.2013310  92.1481370 120.4488710  26.9977300  91.2183350
 119.4478470  26.9471590  92.3529150 117.8702620  17.7593670  96.1305270
 117.1618770  18.2280010  96.5718880 118.1547100  17.1015680  96.7650460
 119.4958550  19.1790370 104.1297800 119.9943800  19.6536190 104.7949650
 119.6381500  18.2553890 104.3367830 121.9018050  14.4844330  97.5701060
 121.7785830  14.5030460  96.6210570 122.8502610  14.5323270  97.6899460
 118.9894840  29.7199630  96.8429040 119.2436340  29.6821020  95.9208410
 118.0407320  29.5932960  96.8357290 116.0737640  16.0678750  93.5055980
 116.9228170  16.5048900  93.4396170 115.7068910  16.3799010  94.3328040
 114.9729060  22.3211110  91.9791510 115.7392330  22.2092470  92.5416940
 115.0503750  21.6249080  91.3268280 113.6675820  19.7536180  92.6624400
 113.7479410  18.8063690  92.7741800 114.5595570  20.0843060  92.7685060
 114.4690530  29.9031570  99.7658940 115.2053010  29.3547030 100.0367510
 114.8531450  30.7687580  99.6264930 111.3536010  25.9705140  95.6400450
 110.4275790  26.2126280  95.6305860 111.8192440  26.7979400  95.5185200
 117.5792840  29.0761880  91.5884510 118.3721450  29.3650710  91.1366300
 117.0597190  28.6454050  90.9096990 118.0970240  24.2965290  91.4526860
 117.9920880  23.6817640  92.1788240 117.9294460  23.7731180  90.6689870
 121.3372970  23.3585320  92.0568850 120.7883070  23.8054620  92.7011590
 121.9592230  22.8534570  92.5806520 117.0048090  22.3176240  93.9534150
 117.4264510  22.1516110  94.7965540 117.1298930  21.5076470  93.4589290
 119.5175730  21.3413850  91.2011250 120.0381390  20.6262870  90.8352400
 120.1644130  21.9799720  91.5011760 118.4209250  13.8208400 103.8729810
 117.9726550  13.8432660 103.0275360 117.7874450  13.4227420 104.4700110
 118.8268800  22.7162730 104.4942250 119.2456910  23.5595460 104.3218490
 117.9077430  22.8534770 104.2649030 115.9006990  18.3909470  90.8992310
 115.6996050  17.5276830  91.2605650 115.7299040  18.3042830  89.9613910
 123.3795300  13.2017700  93.4279190 123.6597590  12.3585600  93.7838610
 122.6061030  13.4340810  93.9417940 114.6989790  15.4910090  90.8870190
 115.0015690  15.4977520  89.9789340 115.4384380  15.1407950  91.3837850
 117.9174720  14.4344710  91.8726390 117.5696720  13.7568700  91.2928840
 118.1187490  13.9734220  92.6869780 120.0823760  29.4225460  93.4912990
 120.9774550  29.7610430  93.5131750 120.1141390  28.7004870  92.8637270
 113.7219920  24.7952510  91.7199990 114.1594790  25.3382180  92.3757570
 114.2067650  23.9699460  91.7296330 110.9365720  27.5841540  99.1720250
 111.2668730  26.7162600  98.9398890 111.3656720  27.7900060 100.0025210
 115.5327640  25.9150550  96.8322220 115.2323180  25.7915520  97.7326130
 115.4265130  25.0559140  96.4237950 111.4255930  28.4512130 101.9101880
 110.9886920  28.6312930 102.7426030 111.9933610  29.2086750 101.7683600
 111.2580360  20.9632360  98.2690760 110.6029200  20.6944000  97.6250460
 112.0958310  20.8536840  97.8192740 124.2070800  15.7573650  92.4909250
 124.6255680  15.5704630  91.6505910 123.9006860  14.9052700  92.8012180
 112.2956290  21.3484930 102.8094100 112.6629330  21.2612330 103.6890120
 111.7267110  20.5851480 102.7100960 110.4718440  18.1731290  94.2116090
 109.5682520  18.4361490  94.0367750 110.9559060  18.4442460  93.4316050
 113.0145650  17.2296830  92.1210470 113.7237350  16.8080050  91.6357750
 112.2985590  17.2972060  91.4893820 112.6619810  13.2836160  91.1613120
 113.3847940  13.8245100  91.4794340 112.9344330  13.0099580  90.2854660
 112.3512000  12.5342350 101.0635740 112.9988190  11.9839730 100.6230900
 112.7713840  12.7885500 101.8851550 112.1044000  12.6898020 103.8061060
 111.7558820  13.1461840 104.5719240 111.7731700  11.7955150 103.8883490
 117.4114400  27.4177210 103.5723970 117.1705760  27.6851770 102.6854490
 118.3517040  27.5882940 103.6274830 122.9951420  12.1012100 103.2942060
 122.1211260  12.4347210 103.0914990 122.8862170  11.6285280 104.1193930
 123.9023400  14.3082970 104.6783780 123.5736760  13.4934730 104.2985510
 124.8505700  14.2652780 104.5549470 113.1808630  26.1738250 104.0420070
 112.4542690  25.5543540 103.9746020 113.2417780  26.5678860 103.1718150
 116.7853730  28.3883250 100.8269480 117.3018750  27.7770610 100.3017740
 117.4351110  28.8912030 101.3180490 119.5249230  29.2791740 101.6538460
 119.8127040  29.0246040 100.7771470 120.0372450  28.7269100 102.2444030
 120.7426240  13.0181940 102.2334970 119.9598030  13.4927440 102.5131730
 120.4489170  12.1136770 102.1248150 111.4638630  29.4912640  97.2516830
 111.2960670  28.8583320  97.9498720 110.5973140  29.6972040  96.9011020
 112.0866650  13.3229420  94.7548690 112.8446010  13.4358300  94.1812720
 111.6243820  14.1598620  94.7092120 118.6280460  15.4368690  97.7451000
 117.8154970  15.0625580  97.4046880 119.1322100  14.6813770  98.0472190
 123.1305440  12.1011140  98.9834070 123.7334810  12.6731350  99.4582590
 122.3898430  12.6650580  98.7607970 113.0701330  28.1845870  94.6966970
 112.5448950  28.5653900  93.9928930 112.9945910  28.8096640  95.4176680
 114.4591800  13.8493470  93.2950660 114.9884560  13.0623270  93.1658610
 115.0920120  14.5284660  93.5286190 116.6529640  13.5868610  96.3496050
 116.0232380  12.8855920  96.5166180 116.1134780  14.3472740  96.1329210
 115.6694300  30.1328250  93.5716220 116.4013120  29.8487530  93.0240110
 115.9287970  29.8941530  94.4615600 114.8309090  26.2492980  93.5762550
 114.2017970  26.7178080  94.1248380 114.9456920  25.4042200  94.0108740
 122.2858810  20.2998640  79.7263750 122.2052860  19.3853250  79.4555460
 121.8723230  20.7965710  79.0203460 120.4176850  22.0777660  81.6073020
 119.6418950  21.5978100  81.8971590 121.0689780  21.3983310  81.4329180
 114.4342680  22.3897470  82.4848780 113.6027560  22.1346180  82.8845290
 115.0423660  22.4608240  83.2206700 124.4384280  26.4837850  80.3872150
 123.9765810  25.7125090  80.7159320 125.2509830  26.5103920  80.8924600
 114.4143940  26.4237560  82.6806800 114.7171980  25.5335300  82.5017020
 115.1587530  26.9807780  82.4529050 112.8434630  17.3499360  76.2691170
 111.9551330  17.6915330  76.1671050 113.1275820  17.1499680  75.3772000
 110.8067640  19.9505010  82.1530870 111.3783750  19.1827210  82.1534510
 110.8069180  20.2493770  81.2437480 120.6647590  28.7695860  80.0076140
 120.0459030  29.2253360  79.4370580 121.5199370  28.9247320  79.6065840
 119.8585840  24.7534850  81.6143180 119.7894120  23.8124790  81.4532310
 120.6205700  24.8436260  82.1865750 112.0492510  15.3589370  83.9399800
 111.8695350  14.4615120  84.2202560 111.6472590  15.9061240  84.6146750
 120.8891010  17.5605230  81.8412110 121.2655830  16.6877110  81.7285780
 120.7910520  17.8963930  80.9502550 115.0196020  15.9330860  77.3029550
 115.1262770  16.8334590  77.6098310 114.1088380  15.8848830  77.0124200
 112.6679180  17.8549870  82.5482140 113.3489290  18.1188240  83.1669540
 112.3527230  17.0150740  82.8820150 116.8603750  18.9017230  81.6354730
 117.3681970  19.3998200  82.2759750 117.3916990  18.1252430  81.4594090
 115.1439850  13.5415790  85.9018150 115.1458290  14.0588180  85.0964050
 114.3144160  13.0645970  85.8788080 121.5310940  23.6535100  77.4008050
 120.9128210  24.1184550  76.8370770 122.0434190  24.3462580  77.8177560
 116.3942700  23.1810970  84.0791650 116.0612080  23.8079890  84.7212720
 116.5709380  23.7072850  83.2993320 124.9076610  16.9956050  81.5467990
 124.2032180  17.2840940  82.1271100 125.2688770  17.8056160  81.1867550
 114.8255180  15.2525750  83.9088600 115.1671990  16.0967800  83.6142470
 113.8870990  15.4009490  84.0253940 115.6061800  25.1491770  85.8940830
 116.2235800  25.8242850  85.6125280 114.7454920  25.5579750  85.8028330
 110.8994140  24.3391630  74.7747680 110.5222120  24.8278730  74.0432580
 111.1567210  25.0116910  75.4054210 118.5083070  12.7408020  80.2333190
 118.8158050  12.1854910  79.5168690 117.5783770  12.8752480  80.0506180
 124.0598130  28.4575310  82.5240650 124.0725290  28.0537600  81.6562910
 123.5073350  29.2322600  82.4202080 123.4583570  23.3605150  83.8523260
 123.8752360  23.1465260  83.0176720 124.1823390  23.6177940  84.4231880
 120.8963830  20.8056850  76.9693310 119.9693110  20.7394230  77.1981780
 121.0488650  21.7436980  76.8548550 120.8832910  17.0773850  73.9660470
 119.9436580  17.2387810  74.0512930 121.2016170  17.7959530  73.4196460
 124.9261120  22.3677150  77.4728560 124.3073540  22.0296700  76.8254860
 124.9085570  21.7236910  78.1807750 124.3687680  18.5461690  84.8894370
 123.9558860  19.3715400  85.1434360 123.6363630  17.9606730  84.6970730
 116.5020470  21.3321590  79.7513040 116.0977470  20.6198840  79.2558940
 116.5883590  20.9874830  80.6401080 116.9702170  25.0189150  81.9152250
 116.6730460  24.4134620  81.2360030 117.9201990  25.0566460  81.8041610
 115.2149090  18.1064800  83.5312080 115.7663680  18.2160140  82.7565330
 115.7292600  18.4802400  84.2467310 125.0587780  28.5921020  85.5775350
 124.5818340  29.3993210  85.3847960 124.3749570  27.9399350  85.7301560
 116.0620600  24.7570840  88.5660050 115.1649130  24.9810810  88.8133450
 116.0873470  24.8805780  87.6171450 123.1025820  21.6063960  74.4801310
 123.5419100  20.7686390  74.3339130 123.8154240  22.2393360  74.5665450
 114.8891820  21.6284160  87.1417420 114.7499590  22.5006960  87.5104820
 114.0073180  21.2856970  86.9965360 121.2121200  26.5460030  78.4482550
 121.6517110  27.2884360  78.0337940 121.1508090  26.7886600  79.3721510
 116.6872170  27.5705860  89.3502570 116.6587600  27.9748810  88.4831000
 116.5237140  26.6416220  89.1874170 113.2025100  20.2266570  77.2519690
 113.0822700  20.9528660  76.6400960 112.8925990  19.4569480  76.7747600
 110.8410470  23.3981710  83.0588330 110.9190890  23.5330480  82.1144050
 111.4552150  22.6897600  83.2516450 112.0858100  25.0981900  79.4694510
 111.6786180  25.2396490  78.6148110 112.9771110  24.8142060  79.2665720
 121.9036980  29.2473810  86.3761560 122.4181650  29.1581820  87.1783990
 121.0606060  29.5933510  86.6689470 123.8791380  29.5329150  75.8045560
 123.7192520  29.2432090  76.7027390 123.7138090  28.7569280  75.2690790
 116.3579760  29.3127680  77.5817180 116.1822240  28.3963220  77.3684980
 115.5035500  29.6714970  77.8214980 123.5817510  27.0416710  74.3643560
 122.8882670  27.0394000  73.7045840 124.3240370  26.6176030  73.9337730
 123.1467440  28.6679420  78.4392050 123.6024390  27.8868800  78.7530670
 123.4859960  29.3786240  78.9833230 110.8969990  24.4395880  85.5982790
 111.0601030  23.9701240  84.7802160 111.3622440  23.9319440  86.2631630
 115.6688760  13.5701640  80.6343360 115.2256910  14.3511180  80.3027880
 116.2273750  13.8931530  81.3414300 119.9558570  16.4370160  86.2378680
 119.4937940  16.6453180  87.0498620 119.5536680  15.6229510  85.9349350
 124.9563080  17.6579110  87.3675340 124.1056670  17.3584860  87.6884410
 124.7964870  17.9021120  86.4559160 122.0512790  19.1580860  89.4674130
 122.3766200  18.3244610  89.1276360 122.8393120  19.6809380  89.6152460
 118.7847580  13.1912340  75.5149190 118.1601760  13.1872210  76.2402500
 118.6977700  12.3243300  75.1185160 117.7064660  14.1148970  82.4932960
 118.0036990  15.0211800  82.4124980 118.2550220  13.6267750  81.8792530
 115.4602980  18.6935210  78.3624610 115.2343900  18.4772380  79.2671230
 114.6795510  19.1263670  78.0170580 122.6900740  18.6998580  76.9615260
 122.0909630  19.4234380  76.7778880 123.2380350  18.6375360  76.1791710
 117.9002190  19.5920790  89.0284880 117.8045790  18.6515520  88.8785280
 118.7434170  19.8135860  88.6332950 121.2965610  17.3362120  78.9918540
 121.6895180  17.6534320  78.1787230 121.6582460  16.4574000  79.1063060
 113.0312730  16.0034460  87.1818660 112.6376120  16.8509670  87.3891440
 112.3431130  15.3660830  87.3727300 119.6057780  16.0869430  90.2515400
 118.9156100  15.8941630  90.8861490 120.3490080  16.3704070  90.7839700
 110.3329780  13.9262920  81.2148740 110.0442830  14.4965780  81.9273720
 111.0775540  13.4467370  81.5779970 110.5200010  17.8683040  72.4251460
 110.4374680  18.8113800  72.5666450 110.1683070  17.7257950  71.5463810
 121.8820750  19.9267870  83.0869320 121.1501870  20.4354680  83.4359420
 121.4845090  19.1097850  82.7858100 118.3198140  16.6022070  81.4921810
 118.3234200  16.1612020  80.6426350 119.2149260  16.9239400  81.5993630
 114.1700520  16.4848560  80.4516020 113.8300570  16.9623790  81.2083070
 113.4077840  16.0313680  80.0917120 118.3818290  17.6034150  74.4828570
 118.5031110  17.5620630  75.4314390 117.9966800  18.4658300  74.3275300
 122.3446660  15.3801550  82.4992260 122.3619400  15.8310200  83.3434110
 122.0962240  14.4807190  82.7125700 117.3939790  19.9135290  73.8811870
 116.8256690  19.4653540  73.2547780 118.1028790  20.2728070  73.3477020
 112.4708970  23.8147310  87.7578600 112.0863760  23.1740980  88.3561560
 112.7821160  24.5183430  88.3273330 118.6206110  20.6623850  83.2387220
 118.9876240  20.1882420  83.9848560 118.4311170  21.5365420  83.5795560
 111.4846600  15.4067540  79.3680690 111.1993520  15.0423210  80.2059310
 111.4225460  14.6748000  78.7543830 116.4105480  19.7032490  85.5571430
 116.1062550  20.5824470  85.7821790 117.3651940  19.7632280  85.5928870
 114.9387270  23.9093480  76.1538280 114.1649530  23.3691100  75.9937000
 115.6681900  23.3900090  75.8156040 121.1585190  14.2996800  76.0894060
 120.3449800  13.8009970  76.0139370 120.9647140  15.1395050  75.6730410
 121.0794050  22.9767900  87.8333670 121.0131360  22.0563570  87.5791260
 120.4499190  23.0743340  88.5478310 123.8733580  18.6716450  74.3856220
 124.7613200  18.9833680  74.2107560 123.8438670  17.7988700  73.9936800
 114.9824670  23.5773860  79.7917090 115.5003340  22.7742120  79.7373980
 114.5308690  23.5153000  80.6333920 119.8694170  24.8440140  75.0644390
 120.2109870  25.5882370  74.5687710 119.0406880  25.1571260  75.4269220
 112.4669210  20.5435230  86.7042790 112.1084150  21.2089080  87.2916130
 112.1723770  19.7118780  87.0755410 115.6682330  21.0019470  89.5882340
 115.3682470  21.1476650  88.6910160 116.4393570  20.4424760  89.4955730
 121.0110780  25.7988470  87.5837470 121.0255320  24.8669430  87.3656380
 120.3035880  25.8848230  88.2227240 122.7521580  24.1655980  80.4289900
 123.1045400  23.5684110  79.7691270 121.8683910  23.8400210  80.5998150
 118.8384860  24.9253670  77.8360310 119.5255990  25.4722880  78.2167900
 118.0517280  25.4694400  77.8709920 110.9777260  20.5426490  73.3277390
 111.8472110  20.8251290  73.6113310 110.4867580  21.3562360  73.2126200
 118.1412070  21.9299700  77.4485670 118.5974850  22.7404950  77.6745860
 117.7900280  21.6122840  78.2804160 120.4444680  27.4406040  84.6777970
 121.0886900  27.6465420  85.3551390 120.8074120  26.6794440  84.2248820
 114.0423850  12.2737350  77.9208190 113.9138480  12.2655250  78.8693110
 113.2185870  12.6120440  77.5699200 121.7176760  25.4438390  83.3955420
 122.3598990  24.7431550  83.5087590 122.2426110  26.2236830  83.2152310
 123.4914380  26.2433290  86.5991480 123.8270620  26.8299980  87.2769400
 122.5714720  26.1126000  86.8289270 111.3448510  29.7553870  73.8939020
 111.7046150  30.3543210  73.2396290 111.2040850  30.3013760  74.6674050
 111.0417780  14.0328470  87.3814890 110.3276300  14.2325390  87.9867500
 111.4612820  13.2568040  87.7529690 111.3290370  28.0208730  88.3681420
 111.4381490  27.0803470  88.2276810 110.6770930  28.2863480  87.7195150
 119.3202960  26.2924620  89.7679540 118.9999830  25.5733860  90.3125230
 118.6461320  26.9679690  89.8415600 117.3617130  27.1385070  74.7112690
 117.3527230  27.8714760  74.0957200 116.4415490  26.8916650  74.8039650
 112.9623770  22.3599960  75.4559450 112.3551720  23.0998860  75.4654750
 113.4373120  22.4499320  74.6297650 122.5356560  16.5250780  85.1316340
 122.9037380  15.7045990  85.4595910 121.6754760  16.5852670  85.5471990
 120.3476730  27.2013310  73.3737880 120.4488710  26.9977300  72.4439860
 119.4478470  26.9471590  73.5785660 117.8702620  17.7593670  77.3561780
 117.1618770  18.2280010  77.7975390 118.1547100  17.1015680  77.9906970
 119.4958550  19.1790370  85.3554310 119.9943800  19.6536190  86.0206160
 119.6381500  18.2553890  85.5624340 121.9018050  14.4844330  78.7957570
 121.7785830  14.5030460  77.8467080 122.8502610  14.5323270  78.9155970
 118.9894840  29.7199630  78.0685550 119.2436340  29.6821020  77.1464920
 118.0407320  29.5932960  78.0613800 116.0737640  16.0678750  74.7312490
 116.9228170  16.5048900  74.6652680 115.7068910  16.3799010  75.5584550
 114.9729060  22.3211110  73.2048020 115.7392330  22.2092470  73.7673450
 115.0503750  21.6249080  72.5524790 113.6675820  19.7536180  73.8880910
 113.7479410  18.8063690  73.9998310 114.5595570  20.0843060  73.9941570
 114.4690530  29.9031570  80.9915450 115.2053010  29.3547030  81.2624020
 114.8531450  30.7687580  80.8521440 111.3536010  25.9705140  76.8656960
 110.4275790  26.2126280  76.8562370 111.8192440  26.7979400  76.7441710
 113.4748810  29.0877640  90.1801030 114.2761540  29.4089690  90.5936430
 112.9600630  28.7273220  90.9020940 117.5792840  29.0761880  72.8141020
 118.3721450  29.3650710  72.3622810 117.0597190  28.6454050  72.1353500
 122.3113440  25.1957510  90.1276440 121.7051600  25.2189110  89.3872190
 122.0067550  24.4640550  90.6643690 123.7413810  28.9237800  88.7385850
 124.6935560  28.8395820  88.6886090 123.5942030  29.5879510  89.4119640
 111.1946620  21.5751100  89.1237080 111.6985640  20.9958380  89.6953310
 110.4554040  21.8591330  89.6613450 118.0970240  24.2965290  72.6783370
 117.9920880  23.6817640  73.4044750 117.9294460  23.7731180  71.8946380
 118.2484560  22.9822090  88.6572600 117.4830230  23.5507090  88.5727270
 118.4300520  22.6898300  87.7640830 121.3372970  23.3585320  73.2825360
 120.7883070  23.8054620  73.9268100 121.9592230  22.8534570  73.8063030
 113.2269700  19.7180690  90.0187150 113.2675040  19.4194560  90.9272380
 114.0815200  20.1188300  89.8594670 117.0048090  22.3176240  75.1790660
 117.4264510  22.1516110  76.0222050 117.1298930  21.5076470  74.6845800
 115.1675510  18.2972790  87.9861640 114.6371970  17.8063740  87.3584980
 115.8363580  18.7256990  87.4519570 119.5175730  21.3413850  72.4267760
 120.0381390  20.6262870  72.0608910 120.1644130  21.9799720  72.7268270
 124.0653570  22.7642250  87.7502830 124.4794590  22.9187330  88.5993250
 123.1304570  22.8897470  87.9128610 124.5375740  20.1038410  89.7541980
 125.1196510  19.3490730  89.6662460 124.7137510  20.6345850  88.9773460
 115.6547810  15.2635160  88.0658930 115.5604680  14.6455910  87.3409800
 115.0745200  15.9901450  87.8388840 118.4209250  13.8208400  85.0986320
 117.9726550  13.8432660  84.2531870 117.7874450  13.4227420  85.6956620
 118.8268800  22.7162730  85.7198760 119.2456910  23.5595460  85.5475000
 117.9077430  22.8534770  85.4905540 121.1632700  20.4478910  87.1036600
 121.2828910  19.8520050  87.8431440 122.0226700  20.4848600  86.6837900
 123.5020600  21.0016100  85.6799110 122.9755820  21.5258720  85.0764250
 123.8451940  21.6343490  86.3108840 115.9006990  18.3909470  72.1248820
 115.6996050  17.5276830  72.4862160 115.7299040  18.3042830  71.1870420
 116.6776220  29.0215740  86.8356490 116.1397310  29.7461800  86.5165190
 116.9310180  28.5446080  86.0453830 117.9301470  16.9900260  88.3612420
 118.5201160  16.6816110  89.0490240 117.1121710  16.5180010  88.5172320
 122.7494900  16.6066070  88.5945440 122.0610420  15.9447610  88.5295430
 123.4700920  16.1604340  89.0393900 123.3795300  13.2017700  74.6535700
 123.6597590  12.3585600  75.0095120 122.6061030  13.4340810  75.1674450
 114.6989790  15.4910090  72.1126700 115.0015690  15.4977520  71.2045850
 115.4384380  15.1407950  72.6094360 119.5338430  30.2566950  87.0943140
 119.4597130  31.1602090  87.4015510 118.6317270  29.9378850  87.0665210
 117.9174720  14.4344710  73.0982900 117.5696720  13.7568700  72.5185350
 118.1187490  13.9734220  73.9126290 120.0823760  29.4225460  74.7169500
 120.9774550  29.7610430  74.7388260 120.1141390  28.7004870  74.0893780
 113.7219920  24.7952510  72.9456500 114.1594790  25.3382180  73.6014080
 114.2067650  23.9699460  72.9552840 110.9365720  27.5841540  80.3976760
 111.2668730  26.7162600  80.1655400 111.3656720  27.7900060  81.2281720
 115.5327640  25.9150550  78.0578730 115.2323180  25.7915520  78.9582640
 115.4265130  25.0559140  77.6494460 111.4255930  28.4512130  83.1358390
 110.9886920  28.6312930  83.9682540 111.9933610  29.2086750  82.9940110
 111.2580360  20.9632360  79.4947270 110.6029200  20.6944000  78.8506970
 112.0958310  20.8536840  79.0449250 124.2070800  15.7573650  73.7165760
 124.6255680  15.5704630  72.8762420 123.9006860  14.9052700  74.0268690
 112.2956290  21.3484930  84.0350610 112.6629330  21.2612330  84.9146630
 111.7267110  20.5851480  83.9357470 111.8472290  18.2594020  87.9409030
 110.9528340  18.2260780  88.2802740 112.3869840  18.4580810  88.7060280
 110.4718440  18.1731290  75.4372600 109.5682520  18.4361490  75.2624260
 110.9559060  18.4442460  74.6572560 113.0145650  17.2296830  73.3466980
 113.7237350  16.8080050  72.8614260 112.2985590  17.2972060  72.7150330
 112.6619810  13.2836160  72.3869630 113.3847940  13.8245100  72.7050850
 112.9344330  13.0099580  71.5111170 112.3512000  12.5342350  82.2892250
 112.9988190  11.9839730  81.8487410 112.7713840  12.7885500  83.1108060
 112.1044000  12.6898020  85.0317570 111.7558820  13.1461840  85.7975750
 111.7731700  11.7955150  85.1140000 113.7108370  25.8617620  89.1970760
 113.6678000  25.4910530  90.0785220 113.8419380  26.7995190  89.3372580
 117.4114400  27.4177210  84.7980480 117.1705760  27.6851770  83.9111000
 118.3517040  27.5882940  84.8531340 119.6168820  13.8809900  88.5536990
 119.5557710  14.4731730  89.3032400 120.5569200  13.7735860  88.4087250
 122.2543380  13.5379960  88.1929280 122.8683790  13.8559250  87.5310360
 122.7992940  13.0528550  88.8125140 112.7764640  12.2174220  88.3068340
 113.3247630  12.0362270  87.5434450 112.8419950  11.4268330  88.8424650
 113.5496400  28.8079870  86.3168540 112.9556720  28.6764570  87.0558580
 113.5420240  27.9718010  85.8510640 122.9951420  12.1012100  84.5198570
 122.1211260  12.4347210  84.3171500 122.8862170  11.6285280  85.3450440
 123.9023400  14.3082970  85.9040290 123.5736760  13.4934730  85.5242020
 124.8505700  14.2652780  85.7805980 113.1808630  26.1738250  85.2676580
 112.4542690  25.5543540  85.2002530 113.2417780  26.5678860  84.3974660
 116.7853730  28.3883250  82.0525990 117.3018750  27.7770610  81.5274250
 117.4351110  28.8912030  82.5437000 119.5249230  29.2791740  82.8794970
 119.8127040  29.0246040  82.0027980 120.0372450  28.7269100  83.4700540
 120.7426240  13.0181940  83.4591480 119.9598030  13.4927440  83.7388240
 120.4489170  12.1136770  83.3504660 111.4638630  29.4912640  78.4773340
 111.2960670  28.8583320  79.1755230 110.5973140  29.6972040  78.1267530
 112.0866650  13.3229420  75.9805200 112.8446010  13.4358300  75.4069230
 111.6243820  14.1598620  75.9348630 118.6280460  15.4368690  78.9707510
 117.8154970  15.0625580  78.6303390 119.1322100  14.6813770  79.2728700
 123.1305440  12.1011140  80.2090580 123.7334810  12.6731350  80.6839100
 122.3898430  12.6650580  79.9864480 113.0701330  28.1845870  75.9223480
 112.5448950  28.5653900  75.2185440 112.9945910  28.8096640  76.6433190
 114.4591800  13.8493470  74.5207170 114.9884560  13.0623270  74.3915120
 115.0920120  14.5284660  74.7542700 116.6529640  13.5868610  77.5752560
 116.0232380  12.8855920  77.7422690 116.1134780  14.3472740  77.3585720
 119.5921590  30.2007840  90.2463170 120.5188900  29.9652110  90.2899130
 119.5772020  31.0279840  89.7649200 116.7785200  12.8652590  90.0105050
 116.4969470  13.3686190  89.2465870 117.1604900  12.0674340  89.6447180
 115.6694300  30.1328250  74.7972730 116.4013120  29.8487530  74.2496620
 115.9287970  29.8941530  75.6872110 114.8309090  26.2492980  74.8019060
 114.2017970  26.7178080  75.3504890 114.9456920  25.4042200  75.2365250
 123.3800660  12.2806170  90.5885520 123.2666110  12.6000780  91.4837040
 124.1970400  12.6818680  90.2922800 122.2858810  20.2998640  60.9520260
 122.2052860  19.3853250  60.6811970 121.8723230  20.7965710  60.2459970
 120.4176850  22.0777660  62.8329530 119.6418950  21.5978100  63.1228100
 121.0689780  21.3983310  62.6585690 114.4342680  22.3897470  63.7105290
 113.6027560  22.1346180  64.1101800 115.0423660  22.4608240  64.4463210
 124.4384280  26.4837850  61.6128660 123.9765810  25.7125090  61.9415830
 125.2509830  26.5103920  62.1181110 114.4143940  26.4237560  63.9063310
 114.7171980  25.5335300  63.7273530 115.1587530  26.9807780  63.6785560
 112.8434630  17.3499360  57.4947680 111.9551330  17.6915330  57.3927560
 113.1275820  17.1499680  56.6028510 110.8067640  19.9505010  63.3787380
 111.3783750  19.1827210  63.3791020 110.8069180  20.2493770  62.4693990
 120.6647590  28.7695860  61.2332650 120.0459030  29.2253360  60.6627090
 121.5199370  28.9247320  60.8322350 119.8585840  24.7534850  62.8399690
 119.7894120  23.8124790  62.6788820 120.6205700  24.8436260  63.4122260
 112.0492510  15.3589370  65.1656310 111.8695350  14.4615120  65.4459070
 111.6472590  15.9061240  65.8403260 120.8891010  17.5605230  63.0668620
 121.2655830  16.6877110  62.9542290 120.7910520  17.8963930  62.1759060
 115.0196020  15.9330860  58.5286060 115.1262770  16.8334590  58.8354820
 114.1088380  15.8848830  58.2380710 112.6679180  17.8549870  63.7738650
 113.3489290  18.1188240  64.3926050 112.3527230  17.0150740  64.1076660
 116.8603750  18.9017230  62.8611240 117.3681970  19.3998200  63.5016260
 117.3916990  18.1252430  62.6850600 115.1439850  13.5415790  67.1274660
 115.1458290  14.0588180  66.3220560 114.3144160  13.0645970  67.1044590
 121.5310940  23.6535100  58.6264560 120.9128210  24.1184550  58.0627280
 122.0434190  24.3462580  59.0434070 116.3942700  23.1810970  65.3048160
 116.0612080  23.8079890  65.9469230 116.5709380  23.7072850  64.5249830
 124.9076610  16.9956050  62.7724500 124.2032180  17.2840940  63.3527610
 125.2688770  17.8056160  62.4124060 114.8255180  15.2525750  65.1345110
 115.1671990  16.0967800  64.8398980 113.8870990  15.4009490  65.2510450
 115.6061800  25.1491770  67.1197340 116.2235800  25.8242850  66.8381790
 114.7454920  25.5579750  67.0284840 110.8994140  24.3391630  56.0004190
 110.5222120  24.8278730  55.2689090 111.1567210  25.0116910  56.6310720
 118.5083070  12.7408020  61.4589700 118.8158050  12.1854910  60.7425200
 117.5783770  12.8752480  61.2762690 124.0598130  28.4575310  63.7497160
 124.0725290  28.0537600  62.8819420 123.5073350  29.2322600  63.6458590
 123.4583570  23.3605150  65.0779770 123.8752360  23.1465260  64.2433230
 124.1823390  23.6177940  65.6488390 120.8963830  20.8056850  58.1949820
 119.9693110  20.7394230  58.4238290 121.0488650  21.7436980  58.0805060
 120.8832910  17.0773850  55.1916980 119.9436580  17.2387810  55.2769440
 121.2016170  17.7959530  54.6452970 124.9261120  22.3677150  58.6985070
 124.3073540  22.0296700  58.0511370 124.9085570  21.7236910  59.4064260
 124.3687680  18.5461690  66.1150880 123.9558860  19.3715400  66.3690870
 123.6363630  17.9606730  65.9227240 116.5020470  21.3321590  60.9769550
 116.0977470  20.6198840  60.4815450 116.5883590  20.9874830  61.8657590
 116.9702170  25.0189150  63.1408760 116.6730460  24.4134620  62.4616540
 117.9201990  25.0566460  63.0298120 115.2149090  18.1064800  64.7568590
 115.7663680  18.2160140  63.9821840 115.7292600  18.4802400  65.4723820
 125.0587780  28.5921020  66.8031860 124.5818340  29.3993210  66.6104470
 124.3749570  27.9399350  66.9558070 116.0620600  24.7570840  69.7916560
 115.1649130  24.9810810  70.0389960 116.0873470  24.8805780  68.8427960
 123.1025820  21.6063960  55.7057820 123.5419100  20.7686390  55.5595640
 123.8154240  22.2393360  55.7921960 114.8891820  21.6284160  68.3673930
 114.7499590  22.5006960  68.7361330 114.0073180  21.2856970  68.2221870
 121.2121200  26.5460030  59.6739060 121.6517110  27.2884360  59.2594450
 121.1508090  26.7886600  60.5978020 116.6872170  27.5705860  70.5759080
 116.6587600  27.9748810  69.7087510 116.5237140  26.6416220  70.4130680
 113.2025100  20.2266570  58.4776200 113.0822700  20.9528660  57.8657470
 112.8925990  19.4569480  58.0004110 110.8410470  23.3981710  64.2844840
 110.9190890  23.5330480  63.3400560 111.4552150  22.6897600  64.4772960
 112.0858100  25.0981900  60.6951020 111.6786180  25.2396490  59.8404620
 112.9771110  24.8142060  60.4922230 121.9036980  29.2473810  67.6018070
 122.4181650  29.1581820  68.4040500 121.0606060  29.5933510  67.8945980
 123.8791380  29.5329150  57.0302070 123.7192520  29.2432090  57.9283900
 123.7138090  28.7569280  56.4947300 116.3579760  29.3127680  58.8073690
 116.1822240  28.3963220  58.5941490 115.5035500  29.6714970  59.0471490
 123.5817510  27.0416710  55.5900070 122.8882670  27.0394000  54.9302350
 124.3240370  26.6176030  55.1594240 123.1467440  28.6679420  59.6648560
 123.6024390  27.8868800  59.9787180 123.4859960  29.3786240  60.2089740
 110.8969990  24.4395880  66.8239300 111.0601030  23.9701240  66.0058670
 111.3622440  23.9319440  67.4888140 115.6688760  13.5701640  61.8599870
 115.2256910  14.3511180  61.5284390 116.2273750  13.8931530  62.5670810
 119.9558570  16.4370160  67.4635190 119.4937940  16.6453180  68.2755130
 119.5536680  15.6229510  67.1605860 124.9563080  17.6579110  68.5931850
 124.1056670  17.3584860  68.9140920 124.7964870  17.9021120  67.6815670
 122.0512790  19.1580860  70.6930640 122.3766200  18.3244610  70.3532870
 122.8393120  19.6809380  70.8408970 118.7847580  13.1912340  56.7405700
 118.1601760  13.1872210  57.4659010 118.6977700  12.3243300  56.3441670
 117.7064660  14.1148970  63.7189470 118.0036990  15.0211800  63.6381490
 118.2550220  13.6267750  63.1049040 115.4602980  18.6935210  59.5881120
 115.2343900  18.4772380  60.4927740 114.6795510  19.1263670  59.2427090
 122.6900740  18.6998580  58.1871770 122.0909630  19.4234380  58.0035390
 123.2380350  18.6375360  57.4048220 117.9002190  19.5920790  70.2541390
 117.8045790  18.6515520  70.1041790 118.7434170  19.8135860  69.8589460
 121.2965610  17.3362120  60.2175050 121.6895180  17.6534320  59.4043740
 121.6582460  16.4574000  60.3319570 113.0312730  16.0034460  68.4075170
 112.6376120  16.8509670  68.6147950 112.3431130  15.3660830  68.5983810
 119.6057780  16.0869430  71.4771910 118.9156100  15.8941630  72.1118000
 120.3490080  16.3704070  72.0096210 110.3329780  13.9262920  62.4405250
 110.0442830  14.4965780  63.1530230 111.0775540  13.4467370  62.8036480
 110.5200010  17.8683040  53.6507970 110.4374680  18.8113800  53.7922960
 110.1683070  17.7257950  52.7720320 121.8820750  19.9267870  64.3125830
 121.1501870  20.4354680  64.6615930 121.4845090  19.1097850  64.0114610
 118.3198140  16.6022070  62.7178320 118.3234200  16.1612020  61.8682860
 119.2149260  16.9239400  62.8250140 114.1700520  16.4848560  61.6772530
 113.8300570  16.9623790  62.4339580 113.4077840  16.0313680  61.3173630
 118.3818290  17.6034150  55.7085080 118.5031110  17.5620630  56.6570900
 117.9966800  18.4658300  55.5531810 122.3446660  15.3801550  63.7248770
 122.3619400  15.8310200  64.5690620 122.0962240  14.4807190  63.9382210
 117.3939790  19.9135290  55.1068380 116.8256690  19.4653540  54.4804290
 118.1028790  20.2728070  54.5733530 112.4708970  23.8147310  68.9835110
 112.0863760  23.1740980  69.5818070 112.7821160  24.5183430  69.5529840
 118.6206110  20.6623850  64.4643730 118.9876240  20.1882420  65.2105070
 118.4311170  21.5365420  64.8052070 111.4846600  15.4067540  60.5937200
 111.1993520  15.0423210  61.4315820 111.4225460  14.6748000  59.9800340
 116.4105480  19.7032490  66.7827940 116.1062550  20.5824470  67.0078300
 117.3651940  19.7632280  66.8185380 114.9387270  23.9093480  57.3794790
 114.1649530  23.3691100  57.2193510 115.6681900  23.3900090  57.0412550
 121.1585190  14.2996800  57.3150570 120.3449800  13.8009970  57.2395880
 120.9647140  15.1395050  56.8986920 121.0794050  22.9767900  69.0590180
 121.0131360  22.0563570  68.8047770 120.4499190  23.0743340  69.7734820
 123.8733580  18.6716450  55.6112730 124.7613200  18.9833680  55.4364070
 123.8438670  17.7988700  55.2193310 114.9824670  23.5773860  61.0173600
 115.5003340  22.7742120  60.9630490 114.5308690  23.5153000  61.8590430
 119.8694170  24.8440140  56.2900900 120.2109870  25.5882370  55.7944220
 119.0406880  25.1571260  56.6525730 112.4669210  20.5435230  67.9299300
 112.1084150  21.2089080  68.5172640 112.1723770  19.7118780  68.3011920
 115.6682330  21.0019470  70.8138850 115.3682470  21.1476650  69.9166670
 116.4393570  20.4424760  70.7212240 121.0110780  25.7988470  68.8093980
 121.0255320  24.8669430  68.5912890 120.3035880  25.8848230  69.4483750
 122.7521580  24.1655980  61.6546410 123.1045400  23.5684110  60.9947780
 121.8683910  23.8400210  61.8254660 118.8384860  24.9253670  59.0616820
 119.5255990  25.4722880  59.4424410 118.0517280  25.4694400  59.0966430
 110.9777260  20.5426490  54.5533900 111.8472110  20.8251290  54.8369820
 110.4867580  21.3562360  54.4382710 118.1412070  21.9299700  58.6742180
 118.5974850  22.7404950  58.9002370 117.7900280  21.6122840  59.5060670
 120.4444680  27.4406040  65.9034480 121.0886900  27.6465420  66.5807900
 120.8074120  26.6794440  65.4505330 114.0423850  12.2737350  59.1464700
 113.9138480  12.2655250  60.0949620 113.2185870  12.6120440  58.7955710
 121.7176760  25.4438390  64.6211930 122.3598990  24.7431550  64.7344100
 122.2426110  26.2236830  64.4408820 123.4914380  26.2433290  67.8247990
 123.8270620  26.8299980  68.5025910 122.5714720  26.1126000  68.0545780
 111.3448510  29.7553870  55.1195530 111.7046150  30.3543210  54.4652800
 111.2040850  30.3013760  55.8930560 111.0417780  14.0328470  68.6071400
 110.3276300  14.2325390  69.2124010 111.4612820  13.2568040  68.9786200
 111.3290370  28.0208730  69.5937930 111.4381490  27.0803470  69.4533320
 110.6770930  28.2863480  68.9451660 119.3202960  26.2924620  70.9936050
 118.9999830  25.5733860  71.5381740 118.6461320  26.9679690  71.0672110
 117.3617130  27.1385070  55.9369200 117.3527230  27.8714760  55.3213710
 116.4415490  26.8916650  56.0296160 112.9623770  22.3599960  56.6815960
 112.3551720  23.0998860  56.6911260 113.4373120  22.4499320  55.8554160
 122.5356560  16.5250780  66.3572850 122.9037380  15.7045990  66.6852420
 121.6754760  16.5852670  66.7728500 120.3476730  27.2013310  54.5994390
 120.4488710  26.9977300  53.6696370 119.4478470  26.9471590  54.8042170
 117.8702620  17.7593670  58.5818290 117.1618770  18.2280010  59.0231900
 118.1547100  17.1015680  59.2163480 119.4958550  19.1790370  66.5810820
 119.9943800  19.6536190  67.2462670 119.6381500  18.2553890  66.7880850
 121.9018050  14.4844330  60.0214080 121.7785830  14.5030460  59.0723590
 122.8502610  14.5323270  60.1412480 118.9894840  29.7199630  59.2942060
 119.2436340  29.6821020  58.3721430 118.0407320  29.5932960  59.2870310
 116.0737640  16.0678750  55.9569000 116.9228170  16.5048900  55.8909190
 115.7068910  16.3799010  56.7841060 114.9729060  22.3211110  54.4304530
 115.7392330  22.2092470  54.9929960 115.0503750  21.6249080  53.7781300
 113.6675820  19.7536180  55.1137420 113.7479410  18.8063690  55.2254820
 114.5595570  20.0843060  55.2198080 114.4690530  29.9031570  62.2171960
 115.2053010  29.3547030  62.4880530 114.8531450  30.7687580  62.0777950
 111.3536010  25.9705140  58.0913470 110.4275790  26.2126280  58.0818880
 111.8192440  26.7979400  57.9698220 113.4748810  29.0877640  71.4057540
 114.2761540  29.4089690  71.8192940 112.9600630  28.7273220  72.1277450
 117.5792840  29.0761880  54.0397530 118.3721450  29.3650710  53.5879320
 117.0597190  28.6454050  53.3610010 122.3113440  25.1957510  71.3532950
 121.7051600  25.2189110  70.6128700 122.0067550  24.4640550  71.8900200
 123.7413810  28.9237800  69.9642360 124.6935560  28.8395820  69.9142600
 123.5942030  29.5879510  70.6376150 111.1946620  21.5751100  70.3493590
 111.6985640  20.9958380  70.9209820 110.4554040  21.8591330  70.8869960
 118.0970240  24.2965290  53.9039880 117.9920880  23.6817640  54.6301260
 117.9294460  23.7731180  53.1202890 118.2484560  22.9822090  69.8829110
 117.4830230  23.5507090  69.7983780 118.4300520  22.6898300  68.9897340
 121.3372970  23.3585320  54.5081870 120.7883070  23.8054620  55.1524610
 121.9592230  22.8534570  55.0319540 113.2269700  19.7180690  71.2443660
 113.2675040  19.4194560  72.1528890 114.0815200  20.1188300  71.0851180
 117.0048090  22.3176240  56.4047170 117.4264510  22.1516110  57.2478560
 117.1298930  21.5076470  55.9102310 115.1675510  18.2972790  69.2118150
 114.6371970  17.8063740  68.5841490 115.8363580  18.7256990  68.6776080
 119.5175730  21.3413850  53.6524270 120.0381390  20.6262870  53.2865420
 120.1644130  21.9799720  53.9524780 124.0653570  22.7642250  68.9759340
 124.4794590  22.9187330  69.8249760 123.1304570  22.8897470  69.1385120
 124.5375740  20.1038410  70.9798490 125.1196510  19.3490730  70.8918970
 124.7137510  20.6345850  70.2029970 115.6547810  15.2635160  69.2915440
 115.5604680  14.6455910  68.5666310 115.0745200  15.9901450  69.0645350
 118.4209250  13.8208400  66.3242830 117.9726550  13.8432660  65.4788380
 117.7874450  13.4227420  66.9213130 118.8268800  22.7162730  66.9455270
 119.2456910  23.5595460  66.7731510 117.9077430  22.8534770  66.7162050
 121.1632700  20.4478910  68.3293110 121.2828910  19.8520050  69.0687950
 122.0226700  20.4848600  67.9094410 123.5020600  21.0016100  66.9055620
 122.9755820  21.5258720  66.3020760 123.8451940  21.6343490  67.5365350
 115.9006990  18.3909470  53.3505330 115.6996050  17.5276830  53.7118670
 115.7299040  18.3042830  52.4126930 116.6776220  29.0215740  68.0613000
 116.1397310  29.7461800  67.7421700 116.9310180  28.5446080  67.2710340
 117.9301470  16.9900260  69.5868930 118.5201160  16.6816110  70.2746750
 117.1121710  16.5180010  69.7428830 122.7494900  16.6066070  69.8201950
 122.0610420  15.9447610  69.7551940 123.4700920  16.1604340  70.2650410
 123.3795300  13.2017700  55.8792210 123.6597590  12.3585600  56.2351630
 122.6061030  13.4340810  56.3930960 114.6989790  15.4910090  53.3383210
 115.0015690  15.4977520  52.4302360 115.4384380  15.1407950  53.8350870
 119.5338430  30.2566950  68.3199650 119.4597130  31.1602090  68.6272020
 118.6317270  29.9378850  68.2921720 117.9174720  14.4344710  54.3239410
 117.5696720  13.7568700  53.7441860 118.1187490  13.9734220  55.1382800
 120.0823760  29.4225460  55.9426010 120.9774550  29.7610430  55.9644770
 120.1141390  28.7004870  55.3150290 113.7219920  24.7952510  54.1713010
 114.1594790  25.3382180  54.8270590 114.2067650  23.9699460  54.1809350
 110.9365720  27.5841540  61.6233270 111.2668730  26.7162600  61.3911910
 111.3656720  27.7900060  62.4538230 115.5327640  25.9150550  59.2835240
 115.2323180  25.7915520  60.1839150 115.4265130  25.0559140  58.8750970
 111.4255930  28.4512130  64.3614900 110.9886920  28.6312930  65.1939050
 111.9933610  29.2086750  64.2196620 111.2580360  20.9632360  60.7203780
 110.6029200  20.6944000  60.0763480 112.0958310  20.8536840  60.2705760
 124.2070800  15.7573650  54.9422270 124.6255680  15.5704630  54.1018930
 123.9006860  14.9052700  55.2525200 112.2956290  21.3484930  65.2607120
 112.6629330  21.2612330  66.1403140 111.7267110  20.5851480  65.1613980
 111.8472290  18.2594020  69.1665540 110.9528340  18.2260780  69.5059250
 112.3869840  18.4580810  69.9316790 110.4718440  18.1731290  56.6629110
 109.5682520  18.4361490  56.4880770 110.9559060  18.4442460  55.8829070
 113.0145650  17.2296830  54.5723490 113.7237350  16.8080050  54.0870770
 112.2985590  17.2972060  53.9406840 112.6619810  13.2836160  53.6126140
 113.3847940  13.8245100  53.9307360 112.9344330  13.0099580  52.7367680
 112.3512000  12.5342350  63.5148760 112.9988190  11.9839730  63.0743920
 112.7713840  12.7885500  64.3364570 112.1044000  12.6898020  66.2574080
 111.7558820  13.1461840  67.0232260 111.7731700  11.7955150  66.3396510
 113.7108370  25.8617620  70.4227270 113.6678000  25.4910530  71.3041730
 113.8419380  26.7995190  70.5629090 117.4114400  27.4177210  66.0236990
 117.1705760  27.6851770  65.1367510 118.3517040  27.5882940  66.0787850
 119.6168820  13.8809900  69.7793500 119.5557710  14.4731730  70.5288910
 120.5569200  13.7735860  69.6343760 122.2543380  13.5379960  69.4185790
 122.8683790  13.8559250  68.7566870 122.7992940  13.0528550  70.0381650
 112.7764640  12.2174220  69.5324850 113.3247630  12.0362270  68.7690960
 112.8419950  11.4268330  70.0681160 113.5496400  28.8079870  67.5425050
 112.9556720  28.6764570  68.2815090 113.5420240  27.9718010  67.0767150
 122.9951420  12.1012100  65.7455080 122.1211260  12.4347210  65.5428010
 122.8862170  11.6285280  66.5706950 123.9023400  14.3082970  67.1296800
 123.5736760  13.4934730  66.7498530 124.8505700  14.2652780  67.0062490
 113.1808630  26.1738250  66.4933090 112.4542690  25.5543540  66.4259040
 113.2417780  26.5678860  65.6231170 116.7853730  28.3883250  63.2782500
 117.3018750  27.7770610  62.7530760 117.4351110  28.8912030  63.7693510
 119.5249230  29.2791740  64.1051480 119.8127040  29.0246040  63.2284490
 120.0372450  28.7269100  64.6957050 120.7426240  13.0181940  64.6847990
 119.9598030  13.4927440  64.9644750 120.4489170  12.1136770  64.5761170
 111.4638630  29.4912640  59.7029850 111.2960670  28.8583320  60.4011740
 110.5973140  29.6972040  59.3524040 112.0866650  13.3229420  57.2061710
 112.8446010  13.4358300  56.6325740 111.6243820  14.1598620  57.1605140
 118.6280460  15.4368690  60.1964020 117.8154970  15.0625580  59.8559900
 119.1322100  14.6813770  60.4985210 123.1305440  12.1011140  61.4347090
 123.7334810  12.6731350  61.9095610 122.3898430  12.6650580  61.2120990
 113.0701330  28.1845870  57.1479990 112.5448950  28.5653900  56.4441950
 112.9945910  28.8096640  57.8689700 114.4591800  13.8493470  55.7463680
 114.9884560  13.0623270  55.6171630 115.0920120  14.5284660  55.9799210
 116.6529640  13.5868610  58.8009070 116.0232380  12.8855920  58.9679200
 116.1134780  14.3472740  58.5842230 119.5921590  30.2007840  71.4719680
 120.5188900  29.9652110  71.5155640 119.5772020  31.0279840  70.9905710
 116.7785200  12.8652590  71.2361560 116.4969470  13.3686190  70.4722380
 117.1604900  12.0674340  70.8703690 115.6694300  30.1328250  56.0229240
 116.4013120  29.8487530  55.4753130 115.9287970  29.8941530  56.9128620
 114.8309090  26.2492980  56.0275570 114.2017970  26.7178080  56.5761400
 114.9456920  25.4042200  56.4621760 123.3800660  12.2806170  71.8142030
 123.2666110  12.6000780  72.7093550 124.1970400  12.6818680  71.5179310
 122.2858810  20.2998640  42.1776770 122.2052860  19.3853250  41.9068480
 121.8723230  20.7965710  41.4716480 120.4176850  22.0777660  44.0586040
 119.6418950  21.5978100  44.3484610 121.0689780  21.3983310  43.8842200
 114.4342680  22.3897470  44.9361800 113.6027560  22.1346180  45.3358310
 115.0423660  22.4608240  45.6719720 124.4384280  26.4837850  42.8385170
 123.9765810  25.7125090  43.1672340 125.2509830  26.5103920  43.3437620
 114.4143940  26.4237560  45.1319820 114.7171980  25.5335300  44.9530040
 115.1587530  26.9807780  44.9042070 112.8434630  17.3499360  38.7204190
 111.9551330  17.6915330  38.6184070 113.1275820  17.1499680  37.8285020
 110.8067640  19.9505010  44.6043890 111.3783750  19.1827210  44.6047530
 110.8069180  20.2493770  43.6950500 120.6647590  28.7695860  42.4589160
 120.0459030  29.2253360  41.8883600 121.5199370  28.9247320  42.0578860
 119.8585840  24.7534850  44.0656200 119.7894120  23.8124790  43.9045330
 120.6205700  24.8436260  44.6378770 112.0492510  15.3589370  46.3912820
 111.8695350  14.4615120  46.6715580 111.6472590  15.9061240  47.0659770
 120.8891010  17.5605230  44.2925130 121.2655830  16.6877110  44.1798800
 120.7910520  17.8963930  43.4015570 115.0196020  15.9330860  39.7542570
 115.1262770  16.8334590  40.0611330 114.1088380  15.8848830  39.4637220
 112.6679180  17.8549870  44.9995160 113.3489290  18.1188240  45.6182560
 112.3527230  17.0150740  45.3333170 116.8603750  18.9017230  44.0867750
 117.3681970  19.3998200  44.7272770 117.3916990  18.1252430  43.9107110
 115.1439850  13.5415790  48.3531170 115.1458290  14.0588180  47.5477070
 114.3144160  13.0645970  48.3301100 121.5310940  23.6535100  39.8521070
 120.9128210  24.1184550  39.2883790 122.0434190  24.3462580  40.2690580
 116.3942700  23.1810970  46.5304670 116.0612080  23.8079890  47.1725740
 116.5709380  23.7072850  45.7506340 124.9076610  16.9956050  43.9981010
 124.2032180  17.2840940  44.5784120 125.2688770  17.8056160  43.6380570
 114.8255180  15.2525750  46.3601620 115.1671990  16.0967800  46.0655490
 113.8870990  15.4009490  46.4766960 115.6061800  25.1491770  48.3453850
 116.2235800  25.8242850  48.0638300 114.7454920  25.5579750  48.2541350
 110.8994140  24.3391630  37.2260700 110.5222120  24.8278730  36.4945600
 111.1567210  25.0116910  37.8567230 118.5083070  12.7408020  42.6846210
 118.8158050  12.1854910  41.9681710 117.5783770  12.8752480  42.5019200
 124.0598130  28.4575310  44.9753670 124.0725290  28.0537600  44.1075930
 123.5073350  29.2322600  44.8715100 123.4583570  23.3605150  46.3036280
 123.8752360  23.1465260  45.4689740 124.1823390  23.6177940  46.8744900
 120.8963830  20.8056850  39.4206330 119.9693110  20.7394230  39.6494800
 121.0488650  21.7436980  39.3061570 120.8832910  17.0773850  36.4173490
 119.9436580  17.2387810  36.5025950 121.2016170  17.7959530  35.8709480
 124.9261120  22.3677150  39.9241580 124.3073540  22.0296700  39.2767880
 124.9085570  21.7236910  40.6320770 124.3687680  18.5461690  47.3407390
 123.9558860  19.3715400  47.5947380 123.6363630  17.9606730  47.1483750
 116.5020470  21.3321590  42.2026060 116.0977470  20.6198840  41.7071960
 116.5883590  20.9874830  43.0914100 116.9702170  25.0189150  44.3665270
 116.6730460  24.4134620  43.6873050 117.9201990  25.0566460  44.2554630
 115.2149090  18.1064800  45.9825100 115.7663680  18.2160140  45.2078350
 115.7292600  18.4802400  46.6980330 125.0587780  28.5921020  48.0288370
 124.5818340  29.3993210  47.8360980 124.3749570  27.9399350  48.1814580
 116.0620600  24.7570840  51.0173070 115.1649130  24.9810810  51.2646470
 116.0873470  24.8805780  50.0684470 123.1025820  21.6063960  36.9314330
 123.5419100  20.7686390  36.7852150 123.8154240  22.2393360  37.0178470
 114.8891820  21.6284160  49.5930440 114.7499590  22.5006960  49.9617840
 114.0073180  21.2856970  49.4478380 121.2121200  26.5460030  40.8995570
 121.6517110  27.2884360  40.4850960 121.1508090  26.7886600  41.8234530
 116.6872170  27.5705860  51.8015590 116.6587600  27.9748810  50.9344020
 116.5237140  26.6416220  51.6387190 113.2025100  20.2266570  39.7032710
 113.0822700  20.9528660  39.0913980 112.8925990  19.4569480  39.2260620
 110.8410470  23.3981710  45.5101350 110.9190890  23.5330480  44.5657070
 111.4552150  22.6897600  45.7029470 112.0858100  25.0981900  41.9207530
 111.6786180  25.2396490  41.0661130 112.9771110  24.8142060  41.7178740
 121.9036980  29.2473810  48.8274580 122.4181650  29.1581820  49.6297010
 121.0606060  29.5933510  49.1202490 123.8791380  29.5329150  38.2558580
 123.7192520  29.2432090  39.1540410 123.7138090  28.7569280  37.7203810
 116.3579760  29.3127680  40.0330200 116.1822240  28.3963220  39.8198000
 115.5035500  29.6714970  40.2728000 123.5817510  27.0416710  36.8156580
 122.8882670  27.0394000  36.1558860 124.3240370  26.6176030  36.3850750
 123.1467440  28.6679420  40.8905070 123.6024390  27.8868800  41.2043690
 123.4859960  29.3786240  41.4346250 110.8969990  24.4395880  48.0495810
 111.0601030  23.9701240  47.2315180 111.3622440  23.9319440  48.7144650
 115.6688760  13.5701640  43.0856380 115.2256910  14.3511180  42.7540900
 116.2273750  13.8931530  43.7927320 119.9558570  16.4370160  48.6891700
 119.4937940  16.6453180  49.5011640 119.5536680  15.6229510  48.3862370
 124.9563080  17.6579110  49.8188360 124.1056670  17.3584860  50.1397430
 124.7964870  17.9021120  48.9072180 122.0512790  19.1580860  51.9187150
 122.3766200  18.3244610  51.5789380 122.8393120  19.6809380  52.0665480
 118.7847580  13.1912340  37.9662210 118.1601760  13.1872210  38.6915520
 118.6977700  12.3243300  37.5698180 117.7064660  14.1148970  44.9445980
 118.0036990  15.0211800  44.8638000 118.2550220  13.6267750  44.3305550
 115.4602980  18.6935210  40.8137630 115.2343900  18.4772380  41.7184250
 114.6795510  19.1263670  40.4683600 122.6900740  18.6998580  39.4128280
 122.0909630  19.4234380  39.2291900 123.2380350  18.6375360  38.6304730
 117.9002190  19.5920790  51.4797900 117.8045790  18.6515520  51.3298300
 118.7434170  19.8135860  51.0845970 121.2965610  17.3362120  41.4431560
 121.6895180  17.6534320  40.6300250 121.6582460  16.4574000  41.5576080
 113.0312730  16.0034460  49.6331680 112.6376120  16.8509670  49.8404460
 112.3431130  15.3660830  49.8240320 119.6057780  16.0869430  52.7028420
 118.9156100  15.8941630  53.3374510 120.3490080  16.3704070  53.2352720
 110.3329780  13.9262920  43.6661760 110.0442830  14.4965780  44.3786740
 111.0775540  13.4467370  44.0292990 110.5200010  17.8683040  34.8764480
 110.4374680  18.8113800  35.0179470 110.1683070  17.7257950  33.9976830
 121.8820750  19.9267870  45.5382340 121.1501870  20.4354680  45.8872440
 121.4845090  19.1097850  45.2371120 118.3198140  16.6022070  43.9434830
 118.3234200  16.1612020  43.0939370 119.2149260  16.9239400  44.0506650
 114.1700520  16.4848560  42.9029040 113.8300570  16.9623790  43.6596090
 113.4077840  16.0313680  42.5430140 118.3818290  17.6034150  36.9341590
 118.5031110  17.5620630  37.8827410 117.9966800  18.4658300  36.7788320
 122.3446660  15.3801550  44.9505280 122.3619400  15.8310200  45.7947130
 122.0962240  14.4807190  45.1638720 117.3939790  19.9135290  36.3324890
 116.8256690  19.4653540  35.7060800 118.1028790  20.2728070  35.7990040
 112.4708970  23.8147310  50.2091620 112.0863760  23.1740980  50.8074580
 112.7821160  24.5183430  50.7786350 118.6206110  20.6623850  45.6900240
 118.9876240  20.1882420  46.4361580 118.4311170  21.5365420  46.0308580
 111.4846600  15.4067540  41.8193710 111.1993520  15.0423210  42.6572330
 111.4225460  14.6748000  41.2056850 116.4105480  19.7032490  48.0084450
 116.1062550  20.5824470  48.2334810 117.3651940  19.7632280  48.0441890
 114.9387270  23.9093480  38.6051300 114.1649530  23.3691100  38.4450020
 115.6681900  23.3900090  38.2669060 121.1585190  14.2996800  38.5407080
 120.3449800  13.8009970  38.4652390 120.9647140  15.1395050  38.1243430
 121.0794050  22.9767900  50.2846690 121.0131360  22.0563570  50.0304280
 120.4499190  23.0743340  50.9991330 123.8733580  18.6716450  36.8369240
 124.7613200  18.9833680  36.6620580 123.8438670  17.7988700  36.4449820
 114.9824670  23.5773860  42.2430110 115.5003340  22.7742120  42.1887000
 114.5308690  23.5153000  43.0846940 119.8694170  24.8440140  37.5157410
 120.2109870  25.5882370  37.0200730 119.0406880  25.1571260  37.8782240
 112.4669210  20.5435230  49.1555810 112.1084150  21.2089080  49.7429150
 112.1723770  19.7118780  49.5268430 115.6682330  21.0019470  52.0395360
 115.3682470  21.1476650  51.1423180 116.4393570  20.4424760  51.9468750
 121.0110780  25.7988470  50.0350490 121.0255320  24.8669430  49.8169400
 120.3035880  25.8848230  50.6740260 122.7521580  24.1655980  42.8802920
 123.1045400  23.5684110  42.2204290 121.8683910  23.8400210  43.0511170
 118.8384860  24.9253670  40.2873330 119.5255990  25.4722880  40.6680920
 118.0517280  25.4694400  40.3222940 110.9777260  20.5426490  35.7790410
 111.8472110  20.8251290  36.0626330 110.4867580  21.3562360  35.6639220
 118.1412070  21.9299700  39.8998690 118.5974850  22.7404950  40.1258880
 117.7900280  21.6122840  40.7317180 120.4444680  27.4406040  47.1290990
 121.0886900  27.6465420  47.8064410 120.8074120  26.6794440  46.6761840
 114.0423850  12.2737350  40.3721210 113.9138480  12.2655250  41.3206130
 113.2185870  12.6120440  40.0212220 121.7176760  25.4438390  45.8468440
 122.3598990  24.7431550  45.9600610 122.2426110  26.2236830  45.6665330
 123.4914380  26.2433290  49.0504500 123.8270620  26.8299980  49.7282420
 122.5714720  26.1126000  49.2802290 111.3448510  29.7553870  36.3452040
 111.7046150  30.3543210  35.6909310 111.2040850  30.3013760  37.1187070
 111.0417780  14.0328470  49.8327910 110.3276300  14.2325390  50.4380520
 111.4612820  13.2568040  50.2042710 111.3290370  28.0208730  50.8194440
 111.4381490  27.0803470  50.6789830 110.6770930  28.2863480  50.1708170
 119.3202960  26.2924620  52.2192560 118.9999830  25.5733860  52.7638250
 118.6461320  26.9679690  52.2928620 117.3617130  27.1385070  37.1625710
 117.3527230  27.8714760  36.5470220 116.4415490  26.8916650  37.2552670
 112.9623770  22.3599960  37.9072470 112.3551720  23.0998860  37.9167770
 113.4373120  22.4499320  37.0810670 122.5356560  16.5250780  47.5829360
 122.9037380  15.7045990  47.9108930 121.6754760  16.5852670  47.9985010
 120.3476730  27.2013310  35.8250900 120.4488710  26.9977300  34.8952880
 119.4478470  26.9471590  36.0298680 117.8702620  17.7593670  39.8074800
 117.1618770  18.2280010  40.2488410 118.1547100  17.1015680  40.4419990
 119.4958550  19.1790370  47.8067330 119.9943800  19.6536190  48.4719180
 119.6381500  18.2553890  48.0137360 121.9018050  14.4844330  41.2470590
 121.7785830  14.5030460  40.2980100 122.8502610  14.5323270  41.3668990
 118.9894840  29.7199630  40.5198570 119.2436340  29.6821020  39.5977940
 118.0407320  29.5932960  40.5126820 116.0737640  16.0678750  37.1825510
 116.9228170  16.5048900  37.1165700 115.7068910  16.3799010  38.0097570
 114.9729060  22.3211110  35.6561040 115.7392330  22.2092470  36.2186470
 115.0503750  21.6249080  35.0037810 113.6675820  19.7536180  36.3393930
 113.7479410  18.8063690  36.4511330 114.5595570  20.0843060  36.4454590
 114.4690530  29.9031570  43.4428470 115.2053010  29.3547030  43.7137040
 114.8531450  30.7687580  43.3034460 111.3536010  25.9705140  39.3169980
 110.4275790  26.2126280  39.3075390 111.8192440  26.7979400  39.1954730
 113.4748810  29.0877640  52.6314050 114.2761540  29.4089690  53.0449450
 112.9600630  28.7273220  53.3533960 117.5792840  29.0761880  35.2654040
 118.3721450  29.3650710  34.8135830 117.0597190  28.6454050  34.5866520
 122.3113440  25.1957510  52.5789460 121.7051600  25.2189110  51.8385210
 122.0067550  24.4640550  53.1156710 123.7413810  28.9237800  51.1898870
 124.6935560  28.8395820  51.1399110 123.5942030  29.5879510  51.8632660
 111.1946620  21.5751100  51.5750100 111.6985640  20.9958380  52.1466330
 110.4554040  21.8591330  52.1126470 118.0970240  24.2965290  35.1296390
 117.9920880  23.6817640  35.8557770 117.9294460  23.7731180  34.3459400
 118.2484560  22.9822090  51.1085620 117.4830230  23.5507090  51.0240290
 118.4300520  22.6898300  50.2153850 121.3372970  23.3585320  35.7338380
 120.7883070  23.8054620  36.3781120 121.9592230  22.8534570  36.2576050
 113.2269700  19.7180690  52.4700170 113.2675040  19.4194560  53.3785400
 114.0815200  20.1188300  52.3107690 117.0048090  22.3176240  37.6303680
 117.4264510  22.1516110  38.4735070 117.1298930  21.5076470  37.1358820
 115.1675510  18.2972790  50.4374660 114.6371970  17.8063740  49.8098000
 115.8363580  18.7256990  49.9032590 119.5175730  21.3413850  34.8780780
 120.0381390  20.6262870  34.5121930 120.1644130  21.9799720  35.1781290
 124.0653570  22.7642250  50.2015850 124.4794590  22.9187330  51.0506270
 123.1304570  22.8897470  50.3641630 124.5375740  20.1038410  52.2055000
 125.1196510  19.3490730  52.1175480 124.7137510  20.6345850  51.4286480
 115.6547810  15.2635160  50.5171950 115.5604680  14.6455910  49.7922820
 115.0745200  15.9901450  50.2901860 118.4209250  13.8208400  47.5499340
 117.9726550  13.8432660  46.7044890 117.7874450  13.4227420  48.1469640
 118.8268800  22.7162730  48.1711780 119.2456910  23.5595460  47.9988020
 117.9077430  22.8534770  47.9418560 121.1632700  20.4478910  49.5549620
 121.2828910  19.8520050  50.2944460 122.0226700  20.4848600  49.1350920
 123.5020600  21.0016100  48.1312130 122.9755820  21.5258720  47.5277270
 123.8451940  21.6343490  48.7621860 115.9006990  18.3909470  34.5761840
 115.6996050  17.5276830  34.9375180 115.7299040  18.3042830  33.6383440
 116.6776220  29.0215740  49.2869510 116.1397310  29.7461800  48.9678210
 116.9310180  28.5446080  48.4966850 117.9301470  16.9900260  50.8125440
 118.5201160  16.6816110  51.5003260 117.1121710  16.5180010  50.9685340
 122.7494900  16.6066070  51.0458460 122.0610420  15.9447610  50.9808450
 123.4700920  16.1604340  51.4906920 123.3795300  13.2017700  37.1048720
 123.6597590  12.3585600  37.4608140 122.6061030  13.4340810  37.6187470
 114.6989790  15.4910090  34.5639720 115.0015690  15.4977520  33.6558870
 115.4384380  15.1407950  35.0607380 119.5338430  30.2566950  49.5456160
 119.4597130  31.1602090  49.8528530 118.6317270  29.9378850  49.5178230
 117.9174720  14.4344710  35.5495920 117.5696720  13.7568700  34.9698370
 118.1187490  13.9734220  36.3639310 120.0823760  29.4225460  37.1682520
 120.9774550  29.7610430  37.1901280 120.1141390  28.7004870  36.5406800
 113.7219920  24.7952510  35.3969520 114.1594790  25.3382180  36.0527100
 114.2067650  23.9699460  35.4065860 110.9365720  27.5841540  42.8489780
 111.2668730  26.7162600  42.6168420 111.3656720  27.7900060  43.6794740
 115.5327640  25.9150550  40.5091750 115.2323180  25.7915520  41.4095660
 115.4265130  25.0559140  40.1007480 111.4255930  28.4512130  45.5871410
 110.9886920  28.6312930  46.4195560 111.9933610  29.2086750  45.4453130
 111.2580360  20.9632360  41.9460290 110.6029200  20.6944000  41.3019990
 112.0958310  20.8536840  41.4962270 124.2070800  15.7573650  36.1678780
 124.6255680  15.5704630  35.3275440 123.9006860  14.9052700  36.4781710
 112.2956290  21.3484930  46.4863630 112.6629330  21.2612330  47.3659650
 111.7267110  20.5851480  46.3870490 111.8472290  18.2594020  50.3922050
 110.9528340  18.2260780  50.7315760 112.3869840  18.4580810  51.1573300
 110.4718440  18.1731290  37.8885620 109.5682520  18.4361490  37.7137280
 110.9559060  18.4442460  37.1085580 113.0145650  17.2296830  35.7980000
 113.7237350  16.8080050  35.3127280 112.2985590  17.2972060  35.1663350
 112.6619810  13.2836160  34.8382650 113.3847940  13.8245100  35.1563870
 112.9344330  13.0099580  33.9624190 112.3512000  12.5342350  44.7405270
 112.9988190  11.9839730  44.3000430 112.7713840  12.7885500  45.5621080
 112.1044000  12.6898020  47.4830590 111.7558820  13.1461840  48.2488770
 111.7731700  11.7955150  47.5653020 113.7108370  25.8617620  51.6483780
 113.6678000  25.4910530  52.5298240 113.8419380  26.7995190  51.7885600
 117.4114400  27.4177210  47.2493500 117.1705760  27.6851770  46.3624020
 118.3517040  27.5882940  47.3044360 119.6168820  13.8809900  51.0050010
 119.5557710  14.4731730  51.7545420 120.5569200  13.7735860  50.8600270
 122.2543380  13.5379960  50.6442300 122.8683790  13.8559250  49.9823380
 122.7992940  13.0528550  51.2638160 112.7764640  12.2174220  50.7581360
 113.3247630  12.0362270  49.9947470 112.8419950  11.4268330  51.2937670
 113.5496400  28.8079870  48.7681560 112.9556720  28.6764570  49.5071600
 113.5420240  27.9718010  48.3023660 122.9951420  12.1012100  46.9711590
 122.1211260  12.4347210  46.7684520 122.8862170  11.6285280  47.7963460
 123.9023400  14.3082970  48.3553310 123.5736760  13.4934730  47.9755040
 124.8505700  14.2652780  48.2319000 113.1808630  26.1738250  47.7189600
 112.4542690  25.5543540  47.6515550 113.2417780  26.5678860  46.8487680
 116.7853730  28.3883250  44.5039010 117.3018750  27.7770610  43.9787270
 117.4351110  28.8912030  44.9950020 119.5249230  29.2791740  45.3307990
 119.8127040  29.0246040  44.4541000 120.0372450  28.7269100  45.9213560
 120.7426240  13.0181940  45.9104500 119.9598030  13.4927440  46.1901260
 120.4489170  12.1136770  45.8017680 111.4638630  29.4912640  40.9286360
 111.2960670  28.8583320  41.6268250 110.5973140  29.6972040  40.5780550
 112.0866650  13.3229420  38.4318220 112.8446010  13.4358300  37.8582250
 111.6243820  14.1598620  38.3861650 118.6280460  15.4368690  41.4220530
 117.8154970  15.0625580  41.0816410 119.1322100  14.6813770  41.7241720
 123.1305440  12.1011140  42.6603600 123.7334810  12.6731350  43.1352120
 122.3898430  12.6650580  42.4377500 113.0701330  28.1845870  38.3736500
 112.5448950  28.5653900  37.6698460 112.9945910  28.8096640  39.0946210
 114.4591800  13.8493470  36.9720190 114.9884560  13.0623270  36.8428140
 115.0920120  14.5284660  37.2055720 116.6529640  13.5868610  40.0265580
 116.0232380  12.8855920  40.1935710 116.1134780  14.3472740  39.8098740
 119.5921590  30.2007840  52.6976190 120.5188900  29.9652110  52.7412150
 119.5772020  31.0279840  52.2162220 116.7785200  12.8652590  52.4618070
 116.4969470  13.3686190  51.6978890 117.1604900  12.0674340  52.0960200
 115.6694300  30.1328250  37.2485750 116.4013120  29.8487530  36.7009640
 115.9287970  29.8941530  38.1385130 114.8309090  26.2492980  37.2532080
 114.2017970  26.7178080  37.8017910 114.9456920  25.4042200  37.6878270
 123.3800660  12.2806170  53.0398540 123.2666110  12.6000780  53.9350060
 124.1970400  12.6818680  52.7435820 122.2858810  20.2998640  23.4033280
 122.2052860  19.3853250  23.1324990 121.8723230  20.7965710  22.6972990
 120.4176850  22.0777660  25.2842550 119.6418950  21.5978100  25.5741120
 121.0689780  21.3983310  25.1098710 114.4342680  22.3897470  26.1618310
 113.6027560  22.1346180  26.5614820 115.0423660  22.4608240  26.8976230
 124.4384280  26.4837850  24.0641680 123.9765810  25.7125090  24.3928850
 125.2509830  26.5103920  24.5694130 114.4143940  26.4237560  26.3576330
 114.7171980  25.5335300  26.1786550 115.1587530  26.9807780  26.1298580
 112.8434630  17.3499360  19.9460700 111.9551330  17.6915330  19.8440580
 113.1275820  17.1499680  19.0541530 110.8067640  19.9505010  25.8300400
 111.3783750  19.1827210  25.8304040 110.8069180  20.2493770  24.9207010
 120.6647590  28.7695860  23.6845670 120.0459030  29.2253360  23.1140110
 121.5199370  28.9247320  23.2835370 119.8585840  24.7534850  25.2912710
 119.7894120  23.8124790  25.1301840 120.6205700  24.8436260  25.8635280
 112.0492510  15.3589370  27.6169330 111.8695350  14.4615120  27.8972090
 111.6472590  15.9061240  28.2916280 120.8891010  17.5605230  25.5181640
 121.2655830  16.6877110  25.4055310 120.7910520  17.8963930  24.6272080
 115.0196020  15.9330860  20.9799080 115.1262770  16.8334590  21.2867840
 114.1088380  15.8848830  20.6893730 112.6679180  17.8549870  26.2251670
 113.3489290  18.1188240  26.8439070 112.3527230  17.0150740  26.5589680
 116.8603750  18.9017230  25.3124260 117.3681970  19.3998200  25.9529280
 117.3916990  18.1252430  25.1363620 115.1439850  13.5415790  29.5787680
 115.1458290  14.0588180  28.7733580 114.3144160  13.0645970  29.5557610
 121.5310940  23.6535100  21.0777580 120.9128210  24.1184550  20.5140300
 122.0434190  24.3462580  21.4947090 116.3942700  23.1810970  27.7561180
 116.0612080  23.8079890  28.3982250 116.5709380  23.7072850  26.9762850
 124.9076610  16.9956050  25.2237520 124.2032180  17.2840940  25.8040630
 125.2688770  17.8056160  24.8637080 114.8255180  15.2525750  27.5858130
 115.1671990  16.0967800  27.2912000 113.8870990  15.4009490  27.7023470
 115.6061800  25.1491770  29.5710360 116.2235800  25.8242850  29.2894810
 114.7454920  25.5579750  29.4797860 110.8994140  24.3391630  18.4517210
 110.5222120  24.8278730  17.7202110 111.1567210  25.0116910  19.0823740
 118.5083070  12.7408020  23.9102720 118.8158050  12.1854910  23.1938220
 117.5783770  12.8752480  23.7275710 124.0598130  28.4575310  26.2010180
 124.0725290  28.0537600  25.3332440 123.5073350  29.2322600  26.0971610
 123.4583570  23.3605150  27.5292790 123.8752360  23.1465260  26.6946250
 124.1823390  23.6177940  28.1001410 120.8963830  20.8056850  20.6462840
 119.9693110  20.7394230  20.8751310 121.0488650  21.7436980  20.5318080
 120.8832910  17.0773850  17.6430000 119.9436580  17.2387810  17.7282460
 121.2016170  17.7959530  17.0965990 124.9261120  22.3677150  21.1498090
 124.3073540  22.0296700  20.5024390 124.9085570  21.7236910  21.8577280
 124.3687680  18.5461690  28.5663900 123.9558860  19.3715400  28.8203890
 123.6363630  17.9606730  28.3740260 116.5020470  21.3321590  23.4282570
 116.0977470  20.6198840  22.9328470 116.5883590  20.9874830  24.3170610
 116.9702170  25.0189150  25.5921780 116.6730460  24.4134620  24.9129560
 117.9201990  25.0566460  25.4811140 115.2149090  18.1064800  27.2081610
 115.7663680  18.2160140  26.4334860 115.7292600  18.4802400  27.9236840
 125.0587780  28.5921020  29.2544880 124.5818340  29.3993210  29.0617490
 124.3749570  27.9399350  29.4071090 116.0620600  24.7570840  32.2429580
 115.1649130  24.9810810  32.4902980 116.0873470  24.8805780  31.2940980
 123.1025820  21.6063960  18.1570840 123.5419100  20.7686390  18.0108660
 123.8154240  22.2393360  18.2434980 114.8891820  21.6284160  30.8186950
 114.7499590  22.5006960  31.1874350 114.0073180  21.2856970  30.6734890
 121.2121200  26.5460030  22.1252080 121.6517110  27.2884360  21.7107470
 121.1508090  26.7886600  23.0491040 116.6872170  27.5705860  33.0272100
 116.6587600  27.9748810  32.1600530 116.5237140  26.6416220  32.8643700
 113.2025100  20.2266570  20.9289220 113.0822700  20.9528660  20.3170490
 112.8925990  19.4569480  20.4517130 110.8410470  23.3981710  26.7357860
 110.9190890  23.5330480  25.7913580 111.4552150  22.6897600  26.9285980
 112.0858100  25.0981900  23.1464040 111.6786180  25.2396490  22.2917640
 112.9771110  24.8142060  22.9435250 121.9036980  29.2473810  30.0531090
 122.4181650  29.1581820  30.8553520 121.0606060  29.5933510  30.3459000
 123.8791380  29.5329150  19.4815090 123.7192520  29.2432090  20.3796920
 123.7138090  28.7569280  18.9460320 116.3579760  29.3127680  21.2586710
 116.1822240  28.3963220  21.0454510 115.5035500  29.6714970  21.4984510
 123.5817510  27.0416710  18.0413090 122.8882670  27.0394000  17.3815370
 124.3240370  26.6176030  17.6107260 123.1467440  28.6679420  22.1161580
 123.6024390  27.8868800  22.4300200 123.4859960  29.3786240  22.6602760
 110.8969990  24.4395880  29.2752320 111.0601030  23.9701240  28.4571690
 111.3622440  23.9319440  29.9401160 115.6688760  13.5701640  24.3112890
 115.2256910  14.3511180  23.9797410 116.2273750  13.8931530  25.0183830
 119.9558570  16.4370160  29.9148210 119.4937940  16.6453180  30.7268150
 119.5536680  15.6229510  29.6118880 124.9563080  17.6579110  31.0444870
 124.1056670  17.3584860  31.3653940 124.7964870  17.9021120  30.1328690
 122.0512790  19.1580860  33.1443660 122.3766200  18.3244610  32.8045890
 122.8393120  19.6809380  33.2921990 118.7847580  13.1912340  19.1918720
 118.1601760  13.1872210  19.9172030 118.6977700  12.3243300  18.7954690
 117.7064660  14.1148970  26.1702490 118.0036990  15.0211800  26.0894510
 118.2550220  13.6267750  25.5562060 115.4602980  18.6935210  22.0394140
 115.2343900  18.4772380  22.9440760 114.6795510  19.1263670  21.6940110
 122.6900740  18.6998580  20.6384790 122.0909630  19.4234380  20.4548410
 123.2380350  18.6375360  19.8561240 117.9002190  19.5920790  32.7054410
 117.8045790  18.6515520  32.5554810 118.7434170  19.8135860  32.3102480
 121.2965610  17.3362120  22.6688070 121.6895180  17.6534320  21.8556760
 121.6582460  16.4574000  22.7832590 113.0312730  16.0034460  30.8588190
 112.6376120  16.8509670  31.0660970 112.3431130  15.3660830  31.0496830
 119.6057780  16.0869430  33.9284930 118.9156100  15.8941630  34.5631020
 120.3490080  16.3704070  34.4609230 110.3329780  13.9262920  24.8918270
 110.0442830  14.4965780  25.6043250 111.0775540  13.4467370  25.2549500
 110.5200010  17.8683040  16.1020990 110.4374680  18.8113800  16.2435980
 110.1683070  17.7257950  15.2233340 121.8820750  19.9267870  26.7638850
 121.1501870  20.4354680  27.1128950 121.4845090  19.1097850  26.4627630
 118.3198140  16.6022070  25.1691340 118.3234200  16.1612020  24.3195880
 119.2149260  16.9239400  25.2763160 114.1700520  16.4848560  24.1285550
 113.8300570  16.9623790  24.8852600 113.4077840  16.0313680  23.7686650
 118.3818290  17.6034150  18.1598100 118.5031110  17.5620630  19.1083920
 117.9966800  18.4658300  18.0044830 122.3446660  15.3801550  26.1761790
 122.3619400  15.8310200  27.0203640 122.0962240  14.4807190  26.3895230
 117.3939790  19.9135290  17.5581400 116.8256690  19.4653540  16.9317310
 118.1028790  20.2728070  17.0246550 112.4708970  23.8147310  31.4348130
 112.0863760  23.1740980  32.0331090 112.7821160  24.5183430  32.0042860
 118.6206110  20.6623850  26.9156750 118.9876240  20.1882420  27.6618090
 118.4311170  21.5365420  27.2565090 111.4846600  15.4067540  23.0450220
 111.1993520  15.0423210  23.8828840 111.4225460  14.6748000  22.4313360
 116.4105480  19.7032490  29.2340960 116.1062550  20.5824470  29.4591320
 117.3651940  19.7632280  29.2698400 114.9387270  23.9093480  19.8307810
 114.1649530  23.3691100  19.6706530 115.6681900  23.3900090  19.4925570
 121.1585190  14.2996800  19.7663590 120.3449800  13.8009970  19.6908900
 120.9647140  15.1395050  19.3499940 121.0794050  22.9767900  31.5103200
 121.0131360  22.0563570  31.2560790 120.4499190  23.0743340  32.2247840
 123.8733580  18.6716450  18.0625750 124.7613200  18.9833680  17.8877090
 123.8438670  17.7988700  17.6706330 114.9824670  23.5773860  23.4686620
 115.5003340  22.7742120  23.4143510 114.5308690  23.5153000  24.3103450
 119.8694170  24.8440140  18.7413920 120.2109870  25.5882370  18.2457240
 119.0406880  25.1571260  19.1038750 112.4669210  20.5435230  30.3812320
 112.1084150  21.2089080  30.9685660 112.1723770  19.7118780  30.7524940
 115.6682330  21.0019470  33.2651870 115.3682470  21.1476650  32.3679690
 116.4393570  20.4424760  33.1725260 121.0110780  25.7988470  31.2607000
 121.0255320  24.8669430  31.0425910 120.3035880  25.8848230  31.8996770
 122.7521580  24.1655980  24.1059430 123.1045400  23.5684110  23.4460800
 121.8683910  23.8400210  24.2767680 118.8384860  24.9253670  21.5129840
 119.5255990  25.4722880  21.8937430 118.0517280  25.4694400  21.5479450
 110.9777260  20.5426490  17.0046920 111.8472110  20.8251290  17.2882840
 110.4867580  21.3562360  16.8895730 118.1412070  21.9299700  21.1255200
 118.5974850  22.7404950  21.3515390 117.7900280  21.6122840  21.9573690
 120.4444680  27.4406040  28.3547500 121.0886900  27.6465420  29.0320920
 120.8074120  26.6794440  27.9018350 114.0423850  12.2737350  21.5977720
 113.9138480  12.2655250  22.5462640 113.2185870  12.6120440  21.2468730
 121.7176760  25.4438390  27.0724950 122.3598990  24.7431550  27.1857120
 122.2426110  26.2236830  26.8921840 123.4914380  26.2433290  30.2761010
 123.8270620  26.8299980  30.9538930 122.5714720  26.1126000  30.5058800
 111.3448510  29.7553870  17.5708550 111.7046150  30.3543210  16.9165820
 111.2040850  30.3013760  18.3443580 111.0417780  14.0328470  31.0584420
 110.3276300  14.2325390  31.6637030 111.4612820  13.2568040  31.4299220
 111.3290370  28.0208730  32.0450950 111.4381490  27.0803470  31.9046340
 110.6770930  28.2863480  31.3964680 119.3202960  26.2924620  33.4449070
 118.9999830  25.5733860  33.9894760 118.6461320  26.9679690  33.5185130
 117.3617130  27.1385070  18.3882220 117.3527230  27.8714760  17.7726730
 116.4415490  26.8916650  18.4809180 112.9623770  22.3599960  19.1328980
 112.3551720  23.0998860  19.1424280 113.4373120  22.4499320  18.3067180
 122.5356560  16.5250780  28.8085870 122.9037380  15.7045990  29.1365440
 121.6754760  16.5852670  29.2241520 120.3476730  27.2013310  17.0507410
 120.4488710  26.9977300  16.1209390 119.4478470  26.9471590  17.2555190
 117.8702620  17.7593670  21.0331310 117.1618770  18.2280010  21.4744920
 118.1547100  17.1015680  21.6676500 119.4958550  19.1790370  29.0323840
 119.9943800  19.6536190  29.6975690 119.6381500  18.2553890  29.2393870
 121.9018050  14.4844330  22.4727100 121.7785830  14.5030460  21.5236610
 122.8502610  14.5323270  22.5925500 118.9894840  29.7199630  21.7455080
 119.2436340  29.6821020  20.8234450 118.0407320  29.5932960  21.7383330
 116.0737640  16.0678750  18.4082020 116.9228170  16.5048900  18.3422210
 115.7068910  16.3799010  19.2354080 114.9729060  22.3211110  16.8817550
 115.7392330  22.2092470  17.4442980 115.0503750  21.6249080  16.2294320
 113.6675820  19.7536180  17.5650440 113.7479410  18.8063690  17.6767840
 114.5595570  20.0843060  17.6711100 114.4690530  29.9031570  24.6684980
 115.2053010  29.3547030  24.9393550 114.8531450  30.7687580  24.5290970
 111.3536010  25.9705140  20.5426490 110.4275790  26.2126280  20.5331900
 111.8192440  26.7979400  20.4211240 113.4748810  29.0877640  33.8570560
 114.2761540  29.4089690  34.2705960 112.9600630  28.7273220  34.5790470
 117.5792840  29.0761880  16.4910550 118.3721450  29.3650710  16.0392340
 117.0597190  28.6454050  15.8123030 122.3113440  25.1957510  33.8045970
 121.7051600  25.2189110  33.0641720 122.0067550  24.4640550  34.3413220
 123.7413810  28.9237800  32.4155380 124.6935560  28.8395820  32.3655620
 123.5942030  29.5879510  33.0889170 111.1946620  21.5751100  32.8006610
 111.6985640  20.9958380  33.3722840 110.4554040  21.8591330  33.3382980
 118.0970240  24.2965290  16.3552900 117.9920880  23.6817640  17.0814280
 117.9294460  23.7731180  15.5715910 118.2484560  22.9822090  32.3342130
 117.4830230  23.5507090  32.2496800 118.4300520  22.6898300  31.4410360
 121.3372970  23.3585320  16.9594890 120.7883070  23.8054620  17.6037630
 121.9592230  22.8534570  17.4832560 113.2269700  19.7180690  33.6956680
 113.2675040  19.4194560  34.6041910 114.0815200  20.1188300  33.5364200
 117.0048090  22.3176240  18.8560190 117.4264510  22.1516110  19.6991580
 117.1298930  21.5076470  18.3615330 115.1675510  18.2972790  31.6631170
 114.6371970  17.8063740  31.0354510 115.8363580  18.7256990  31.1289100
 119.5175730  21.3413850  16.1037290 120.0381390  20.6262870  15.7378440
 120.1644130  21.9799720  16.4037800 124.0653570  22.7642250  31.4272360
 124.4794590  22.9187330  32.2762780 123.1304570  22.8897470  31.5898140
 124.5375740  20.1038410  33.4311510 125.1196510  19.3490730  33.3431990
 124.7137510  20.6345850  32.6542990 115.6547810  15.2635160  31.7428460
 115.5604680  14.6455910  31.0179330 115.0745200  15.9901450  31.5158370
 118.4209250  13.8208400  28.7755850 117.9726550  13.8432660  27.9301400
 117.7874450  13.4227420  29.3726150 118.8268800  22.7162730  29.3968290
 119.2456910  23.5595460  29.2244530 117.9077430  22.8534770  29.1675070
 121.1632700  20.4478910  30.7806130 121.2828910  19.8520050  31.5200970
 122.0226700  20.4848600  30.3607430 123.5020600  21.0016100  29.3568640
 122.9755820  21.5258720  28.7533780 123.8451940  21.6343490  29.9878370
 115.9006990  18.3909470  15.8018350 115.6996050  17.5276830  16.1631690
 115.7299040  18.3042830  14.8639950 116.6776220  29.0215740  30.5126020
 116.1397310  29.7461800  30.1934720 116.9310180  28.5446080  29.7223360
 117.9301470  16.9900260  32.0381950 118.5201160  16.6816110  32.7259770
 117.1121710  16.5180010  32.1941850 122.7494900  16.6066070  32.2714970
 122.0610420  15.9447610  32.2064960 123.4700920  16.1604340  32.7163430
 123.3795300  13.2017700  18.3305230 123.6597590  12.3585600  18.6864650
 122.6061030  13.4340810  18.8443980 114.6989790  15.4910090  15.7896230
 115.0015690  15.4977520  14.8815380 115.4384380  15.1407950  16.2863890
 119.5338430  30.2566950  30.7712670 119.4597130  31.1602090  31.0785040
 118.6317270  29.9378850  30.7434740 117.9174720  14.4344710  16.7752430
 117.5696720  13.7568700  16.1954880 118.1187490  13.9734220  17.5895820
 120.0823760  29.4225460  18.3939030 120.9774550  29.7610430  18.4157790
 120.1141390  28.7004870  17.7663310 113.7219920  24.7952510  16.6226030
 114.1594790  25.3382180  17.2783610 114.2067650  23.9699460  16.6322370
 110.9365720  27.5841540  24.0746290 111.2668730  26.7162600  23.8424930
 111.3656720  27.7900060  24.9051250 115.5327640  25.9150550  21.7348260
 115.2323180  25.7915520  22.6352170 115.4265130  25.0559140  21.3263990
 111.4255930  28.4512130  26.8127920 110.9886920  28.6312930  27.6452070
 111.9933610  29.2086750  26.6709640 111.2580360  20.9632360  23.1716800
 110.6029200  20.6944000  22.5276500 112.0958310  20.8536840  22.7218780
 124.2070800  15.7573650  17.3935290 124.6255680  15.5704630  16.5531950
 123.9006860  14.9052700  17.7038220 112.2956290  21.3484930  27.7120140
 112.6629330  21.2612330  28.5916160 111.7267110  20.5851480  27.6127000
 111.8472290  18.2594020  31.6178560 110.9528340  18.2260780  31.9572270
 112.3869840  18.4580810  32.3829810 110.4718440  18.1731290  19.1142130
 109.5682520  18.4361490  18.9393790 110.9559060  18.4442460  18.3342090
 113.0145650  17.2296830  17.0236510 113.7237350  16.8080050  16.5383790
 112.2985590  17.2972060  16.3919860 112.6619810  13.2836160  16.0639160
 113.3847940  13.8245100  16.3820380 112.9344330  13.0099580  15.1880700
 112.3512000  12.5342350  25.9661780 112.9988190  11.9839730  25.5256940
 112.7713840  12.7885500  26.7877590 112.1044000  12.6898020  28.7087100
 111.7558820  13.1461840  29.4745280 111.7731700  11.7955150  28.7909530
 113.7108370  25.8617620  32.8740290 113.6678000  25.4910530  33.7554750
 113.8419380  26.7995190  33.0142110 117.4114400  27.4177210  28.4750010
 117.1705760  27.6851770  27.5880530 118.3517040  27.5882940  28.5300870
 119.6168820  13.8809900  32.2306520 119.5557710  14.4731730  32.9801930
 120.5569200  13.7735860  32.0856780 122.2543380  13.5379960  31.8698810
 122.8683790  13.8559250  31.2079890 122.7992940  13.0528550  32.4894670
 112.7764640  12.2174220  31.9837870 113.3247630  12.0362270  31.2203980
 112.8419950  11.4268330  32.5194180 113.5496400  28.8079870  29.9938070
 112.9556720  28.6764570  30.7328110 113.5420240  27.9718010  29.5280170
 122.9951420  12.1012100  28.1968100 122.1211260  12.4347210  27.9941030
 122.8862170  11.6285280  29.0219970 123.9023400  14.3082970  29.5809820
 123.5736760  13.4934730  29.2011550 124.8505700  14.2652780  29.4575510
 113.1808630  26.1738250  28.9446110 112.4542690  25.5543540  28.8772060
 113.2417780  26.5678860  28.0744190 116.7853730  28.3883250  25.7295520
 117.3018750  27.7770610  25.2043780 117.4351110  28.8912030  26.2206530
 119.5249230  29.2791740  26.5564500 119.8127040  29.0246040  25.6797510
 120.0372450  28.7269100  27.1470070 120.7426240  13.0181940  27.1361010
 119.9598030  13.4927440  27.4157770 120.4489170  12.1136770  27.0274190
 111.4638630  29.4912640  22.1542870 111.2960670  28.8583320  22.8524760
 110.5973140  29.6972040  21.8037060 112.0866650  13.3229420  19.6574730
 112.8446010  13.4358300  19.0838760 111.6243820  14.1598620  19.6118160
 118.6280460  15.4368690  22.6477040 117.8154970  15.0625580  22.3072920
 119.1322100  14.6813770  22.9498230 123.1305440  12.1011140  23.8860110
 123.7334810  12.6731350  24.3608630 122.3898430  12.6650580  23.6634010
 113.0701330  28.1845870  19.5993010 112.5448950  28.5653900  18.8954970
 112.9945910  28.8096640  20.3202720 114.4591800  13.8493470  18.1976700
 114.9884560  13.0623270  18.0684650 115.0920120  14.5284660  18.4312230
 116.6529640  13.5868610  21.2522090 116.0232380  12.8855920  21.4192220
 116.1134780  14.3472740  21.0355250 119.5921590  30.2007840  33.9232700
 120.5188900  29.9652110  33.9668660 119.5772020  31.0279840  33.4418730
 116.7785200  12.8652590  33.6874580 116.4969470  13.3686190  32.9235400
 117.1604900  12.0674340  33.3216710 115.6694300  30.1328250  18.4742260
 116.4013120  29.8487530  17.9266150 115.9287970  29.8941530  19.3641640
 114.8309090  26.2492980  18.4788590 114.2017970  26.7178080  19.0274420
 114.9456920  25.4042200  18.9134780 123.3800660  12.2806170  34.2655050
 123.2666110  12.6000780  35.1606570 124.1970400  12.6818680  33.9692330
 122.2858810  20.2998640   4.6289790 122.2052860  19.3853250   4.3581500
 121.8723230  20.7965710   3.9229500 120.4176850  22.0777660   6.5099060
 119.6418950  21.5978100   6.7997630 121.0689780  21.3983310   6.3355220
 114.4342680  22.3897470   7.3874820 113.6027560  22.1346180   7.7871330
 115.0423660  22.4608240   8.1232740 124.4384280  26.4837850   5.2898190
 123.9765810  25.7125090   5.6185360 125.2509830  26.5103920   5.7950640
 114.4143940  26.4237560   7.5832840 114.7171980  25.5335300   7.4043060
 115.1587530  26.9807780   7.3555090 110.8067640  19.9505010   7.0556910
 111.3783750  19.1827210   7.0560550 110.8069180  20.2493770   6.1463520
 120.6647590  28.7695860   4.9102180 120.0459030  29.2253360   4.3396620
 121.5199370  28.9247320   4.5091880 119.8585840  24.7534850   6.5169220
 119.7894120  23.8124790   6.3558350 120.6205700  24.8436260   7.0891790
 112.0492510  15.3589370   8.8425840 111.8695350  14.4615120   9.1228600
 111.6472590  15.9061240   9.5172790 120.8891010  17.5605230   6.7438150
 121.2655830  16.6877110   6.6311820 120.7910520  17.8963930   5.8528590
 115.0196020  15.9330860   2.2055590 115.1262770  16.8334590   2.5124350
 114.1088380  15.8848830   1.9150240 112.6679180  17.8549870   7.4508180
 113.3489290  18.1188240   8.0695580 112.3527230  17.0150740   7.7846190
 116.8603750  18.9017230   6.5380770 117.3681970  19.3998200   7.1785790
 117.3916990  18.1252430   6.3620130 115.1439850  13.5415790  10.8044190
 115.1458290  14.0588180   9.9990090 114.3144160  13.0645970  10.7814120
 121.5310940  23.6535100   2.3034090 120.9128210  24.1184550   1.7396810
 122.0434190  24.3462580   2.7203600 116.3942700  23.1810970   8.9817690
 116.0612080  23.8079890   9.6238760 116.5709380  23.7072850   8.2019360
 124.9076610  16.9956050   6.4494030 124.2032180  17.2840940   7.0297140
 125.2688770  17.8056160   6.0893590 114.8255180  15.2525750   8.8114640
 115.1671990  16.0967800   8.5168510 113.8870990  15.4009490   8.9279980
 115.6061800  25.1491770  10.7966870 116.2235800  25.8242850  10.5151320
 114.7454920  25.5579750  10.7054370 118.5083070  12.7408020   5.1359230
 118.8158050  12.1854910   4.4194730 117.5783770  12.8752480   4.9532220
 124.0598130  28.4575310   7.4266690 124.0725290  28.0537600   6.5588950
 123.5073350  29.2322600   7.3228120 123.4583570  23.3605150   8.7549300
 123.8752360  23.1465260   7.9202760 124.1823390  23.6177940   9.3257920
 120.8963830  20.8056850   1.8719350 119.9693110  20.7394230   2.1007820
 121.0488650  21.7436980   1.7574590 124.9261120  22.3677150   2.3754600
 124.3073540  22.0296700   1.7280900 124.9085570  21.7236910   3.0833790
 124.3687680  18.5461690   9.7920410 123.9558860  19.3715400  10.0460400
 123.6363630  17.9606730   9.5996770 116.5020470  21.3321590   4.6539080
 116.0977470  20.6198840   4.1584980 116.5883590  20.9874830   5.5427120
 116.9702170  25.0189150   6.8178290 116.6730460  24.4134620   6.1386070
 117.9201990  25.0566460   6.7067650 115.2149090  18.1064800   8.4338120
 115.7663680  18.2160140   7.6591370 115.7292600  18.4802400   9.1493350
 125.0587780  28.5921020  10.4801390 124.5818340  29.3993210  10.2874000
 124.3749570  27.9399350  10.6327600 116.0620600  24.7570840  13.4686090
 115.1649130  24.9810810  13.7159490 116.0873470  24.8805780  12.5197490
 114.8891820  21.6284160  12.0443460 114.7499590  22.5006960  12.4130860
 114.0073180  21.2856970  11.8991400 121.2121200  26.5460030   3.3508590
 121.6517110  27.2884360   2.9363980 121.1508090  26.7886600   4.2747550
 116.6872170  27.5705860  14.2528610 116.6587600  27.9748810  13.3857040
 116.5237140  26.6416220  14.0900210 113.2025100  20.2266570   2.1545730
 113.0822700  20.9528660   1.5427000 112.8925990  19.4569480   1.6773640
 110.8410470  23.3981710   7.9614370 110.9190890  23.5330480   7.0170090
 111.4552150  22.6897600   8.1542490 112.0858100  25.0981900   4.3720550
 111.6786180  25.2396490   3.5174150 112.9771110  24.8142060   4.1691760
 121.9036980  29.2473810  11.2787600 122.4181650  29.1581820  12.0810030
 121.0606060  29.5933510  11.5715510 116.3579760  29.3127680   2.4843220
 116.1822240  28.3963220   2.2711020 115.5035500  29.6714970   2.7241020
 123.1467440  28.6679420   3.3418090 123.6024390  27.8868800   3.6556710
 123.4859960  29.3786240   3.8859270 110.8969990  24.4395880  10.5008830
 111.0601030  23.9701240   9.6828200 111.3622440  23.9319440  11.1657670
 115.6688760  13.5701640   5.5369400 115.2256910  14.3511180   5.2053920
 116.2273750  13.8931530   6.2440340 119.9558570  16.4370160  11.1404720
 119.4937940  16.6453180  11.9524660 119.5536680  15.6229510  10.8375390
 124.9563080  17.6579110  12.2701380 124.1056670  17.3584860  12.5910450
 124.7964870  17.9021120  11.3585200 122.0512790  19.1580860  14.3700170
 122.3766200  18.3244610  14.0302400 122.8393120  19.6809380  14.5178500
 117.7064660  14.1148970   7.3959000 118.0036990  15.0211800   7.3151020
 118.2550220  13.6267750   6.7818570 115.4602980  18.6935210   3.2650650
 115.2343900  18.4772380   4.1697270 114.6795510  19.1263670   2.9196620
 117.9002190  19.5920790  13.9310920 117.8045790  18.6515520  13.7811320
 118.7434170  19.8135860  13.5358990 121.2965610  17.3362120   3.8944580
 121.6895180  17.6534320   3.0813270 121.6582460  16.4574000   4.0089100
 113.0312730  16.0034460  12.0844700 112.6376120  16.8509670  12.2917480
 112.3431130  15.3660830  12.2753340 119.6057780  16.0869430  15.1541440
 118.9156100  15.8941630  15.7887530 120.3490080  16.3704070  15.6865740
 110.3329780  13.9262920   6.1174780 110.0442830  14.4965780   6.8299760
 111.0775540  13.4467370   6.4806010 121.8820750  19.9267870   7.9895360
 121.1501870  20.4354680   8.3385460 121.4845090  19.1097850   7.6884140
 118.3198140  16.6022070   6.3947850 118.3234200  16.1612020   5.5452390
 119.2149260  16.9239400   6.5019670 114.1700520  16.4848560   5.3542060
 113.8300570  16.9623790   6.1109110 113.4077840  16.0313680   4.9943160
 122.3446660  15.3801550   7.4018300 122.3619400  15.8310200   8.2460150
 122.0962240  14.4807190   7.6151740 112.4708970  23.8147310  12.6604640
 112.0863760  23.1740980  13.2587600 112.7821160  24.5183430  13.2299370
 118.6206110  20.6623850   8.1413260 118.9876240  20.1882420   8.8874600
 118.4311170  21.5365420   8.4821600 111.4846600  15.4067540   4.2706730
 111.1993520  15.0423210   5.1085350 111.4225460  14.6748000   3.6569870
 116.4105480  19.7032490  10.4597470 116.1062550  20.5824470  10.6847830
 117.3651940  19.7632280  10.4954910 121.0794050  22.9767900  12.7359710
 121.0131360  22.0563570  12.4817300 120.4499190  23.0743340  13.4504350
 114.9824670  23.5773860   4.6943130 115.5003340  22.7742120   4.6400020
 114.5308690  23.5153000   5.5359960 112.4669210  20.5435230  11.6068830
 112.1084150  21.2089080  12.1942170 112.1723770  19.7118780  11.9781450
 115.6682330  21.0019470  14.4908380 115.3682470  21.1476650  13.5936200
 116.4393570  20.4424760  14.3981770 121.0110780  25.7988470  12.4863510
 121.0255320  24.8669430  12.2682420 120.3035880  25.8848230  13.1253280
 122.7521580  24.1655980   5.3315940 123.1045400  23.5684110   4.6717310
 121.8683910  23.8400210   5.5024190 118.8384860  24.9253670   2.7386350
 119.5255990  25.4722880   3.1193940 118.0517280  25.4694400   2.7735960
 118.1412070  21.9299700   2.3511710 118.5974850  22.7404950   2.5771900
 117.7900280  21.6122840   3.1830200 120.4444680  27.4406040   9.5804010
 121.0886900  27.6465420  10.2577430 120.8074120  26.6794440   9.1274860
 114.0423850  12.2737350   2.8234230 113.9138480  12.2655250   3.7719150
 113.2185870  12.6120440   2.4725240 121.7176760  25.4438390   8.2981460
 122.3598990  24.7431550   8.4113630 122.2426110  26.2236830   8.1178350
 123.4914380  26.2433290  11.5017520 123.8270620  26.8299980  12.1795440
 122.5714720  26.1126000  11.7315310 111.0417780  14.0328470  12.2840930
 110.3276300  14.2325390  12.8893540 111.4612820  13.2568040  12.6555730
 111.3290370  28.0208730  13.2707460 111.4381490  27.0803470  13.1302850
 110.6770930  28.2863480  12.6221190 119.3202960  26.2924620  14.6705580
 118.9999830  25.5733860  15.2151270 118.6461320  26.9679690  14.7441640
 122.5356560  16.5250780  10.0342380 122.9037380  15.7045990  10.3621950
 121.6754760  16.5852670  10.4498030 117.8702620  17.7593670   2.2587820
 117.1618770  18.2280010   2.7001430 118.1547100  17.1015680   2.8933010
 119.4958550  19.1790370  10.2580350 119.9943800  19.6536190  10.9232200
 119.6381500  18.2553890  10.4650380 121.9018050  14.4844330   3.6983610
 121.7785830  14.5030460   2.7493120 122.8502610  14.5323270   3.8182010
 118.9894840  29.7199630   2.9711590 119.2436340  29.6821020   2.0490960
 118.0407320  29.5932960   2.9639840 114.4690530  29.9031570   5.8941490
 115.2053010  29.3547030   6.1650060 114.8531450  30.7687580   5.7547480
 111.3536010  25.9705140   1.7683000 110.4275790  26.2126280   1.7588410
 111.8192440  26.7979400   1.6467750 113.4748810  29.0877640  15.0827070
 114.2761540  29.4089690  15.4962470 112.9600630  28.7273220  15.8046980
 122.3113440  25.1957510  15.0302480 121.7051600  25.2189110  14.2898230
 122.0067550  24.4640550  15.5669730 123.7413810  28.9237800  13.6411890
 124.6935560  28.8395820  13.5912130 123.5942030  29.5879510  14.3145680
 111.1946620  21.5751100  14.0263120 111.6985640  20.9958380  14.5979350
 110.4554040  21.8591330  14.5639490 118.2484560  22.9822090  13.5598640
 117.4830230  23.5507090  13.4753310 118.4300520  22.6898300  12.6666870
 113.2269700  19.7180690  14.9213190 113.2675040  19.4194560  15.8298420
 114.0815200  20.1188300  14.7620710 115.1675510  18.2972790  12.8887680
 114.6371970  17.8063740  12.2611020 115.8363580  18.7256990  12.3545610
 124.0653570  22.7642250  12.6528870 124.4794590  22.9187330  13.5019290
 123.1304570  22.8897470  12.8154650 124.5375740  20.1038410  14.6568020
 125.1196510  19.3490730  14.5688500 124.7137510  20.6345850  13.8799500
 115.6547810  15.2635160  12.9684970 115.5604680  14.6455910  12.2435840
 115.0745200  15.9901450  12.7414880 118.4209250  13.8208400  10.0012360
 117.9726550  13.8432660   9.1557910 117.7874450  13.4227420  10.5982660
 118.8268800  22.7162730  10.6224800 119.2456910  23.5595460  10.4501040
 117.9077430  22.8534770  10.3931580 121.1632700  20.4478910  12.0062640
 121.2828910  19.8520050  12.7457480 122.0226700  20.4848600  11.5863940
 123.5020600  21.0016100  10.5825150 122.9755820  21.5258720   9.9790290
 123.8451940  21.6343490  11.2134880 116.6776220  29.0215740  11.7382530
 116.1397310  29.7461800  11.4191230 116.9310180  28.5446080  10.9479870
 117.9301470  16.9900260  13.2638460 118.5201160  16.6816110  13.9516280
 117.1121710  16.5180010  13.4198360 122.7494900  16.6066070  13.4971480
 122.0610420  15.9447610  13.4321470 123.4700920  16.1604340  13.9419940
 119.5338430  30.2566950  11.9969180 119.4597130  31.1602090  12.3041550
 118.6317270  29.9378850  11.9691250 110.9365720  27.5841540   5.3002800
 111.2668730  26.7162600   5.0681440 111.3656720  27.7900060   6.1307760
 115.5327640  25.9150550   2.9604770 115.2323180  25.7915520   3.8608680
 115.4265130  25.0559140   2.5520500 111.4255930  28.4512130   8.0384430
 110.9886920  28.6312930   8.8708580 111.9933610  29.2086750   7.8966150
 111.2580360  20.9632360   4.3973310 110.6029200  20.6944000   3.7533010
 112.0958310  20.8536840   3.9475290 112.2956290  21.3484930   8.9376650
 112.6629330  21.2612330   9.8172670 111.7267110  20.5851480   8.8383510
 111.8472290  18.2594020  12.8435070 110.9528340  18.2260780  13.1828780
 112.3869840  18.4580810  13.6086320 112.3512000  12.5342350   7.1918290
 112.9988190  11.9839730   6.7513450 112.7713840  12.7885500   8.0134100
 112.1044000  12.6898020   9.9343610 111.7558820  13.1461840  10.7001790
 111.7731700  11.7955150  10.0166040 113.7108370  25.8617620  14.0996800
 113.6678000  25.4910530  14.9811260 113.8419380  26.7995190  14.2398620
 117.4114400  27.4177210   9.7006520 117.1705760  27.6851770   8.8137040
 118.3517040  27.5882940   9.7557380 119.6168820  13.8809900  13.4563030
 119.5557710  14.4731730  14.2058440 120.5569200  13.7735860  13.3113290
 122.2543380  13.5379960  13.0955320 122.8683790  13.8559250  12.4336400
 122.7992940  13.0528550  13.7151180 112.7764640  12.2174220  13.2094380
 113.3247630  12.0362270  12.4460490 112.8419950  11.4268330  13.7450690
 113.5496400  28.8079870  11.2194580 112.9556720  28.6764570  11.9584620
 113.5420240  27.9718010  10.7536680 122.9951420  12.1012100   9.4224610
 122.1211260  12.4347210   9.2197540 122.8862170  11.6285280  10.2476480
 123.9023400  14.3082970  10.8066330 123.5736760  13.4934730  10.4268060
 124.8505700  14.2652780  10.6832020 113.1808630  26.1738250  10.1702620
 112.4542690  25.5543540  10.1028570 113.2417780  26.5678860   9.3000700
 116.7853730  28.3883250   6.9552030 117.3018750  27.7770610   6.4300290
 117.4351110  28.8912030   7.4463040 119.5249230  29.2791740   7.7821010
 119.8127040  29.0246040   6.9054020 120.0372450  28.7269100   8.3726580
 120.7426240  13.0181940   8.3617520 119.9598030  13.4927440   8.6414280
 120.4489170  12.1136770   8.2530700 111.4638630  29.4912640   3.3799380
 111.2960670  28.8583320   4.0781270 110.5973140  29.6972040   3.0293570
 118.6280460  15.4368690   3.8733550 117.8154970  15.0625580   3.5329430
 119.1322100  14.6813770   4.1754740 123.1305440  12.1011140   5.1116620
 123.7334810  12.6731350   5.5865140 122.3898430  12.6650580   4.8890520
 116.6529640  13.5868610   2.4778600 116.0232380  12.8855920   2.6448730
 116.1134780  14.3472740   2.2611760 119.5921590  30.2007840  15.1489210
 120.5188900  29.9652110  15.1925170 119.5772020  31.0279840  14.6675240
 116.7785200  12.8652590  14.9131090 116.4969470  13.3686190  14.1491910
 117.1604900  12.0674340  14.5473220 123.3800660  12.2806170  15.4911560
 123.2666110  12.6000780  16.3863080 124.1970400  12.6818680  15.1948840
 120.4176850   3.3034170 100.3816510 119.6418950   2.8234610 100.6715080
 121.0689780   2.6239820 100.2072670 114.4342680   3.6153980 101.2592270
 113.6027560   3.3602690 101.6588780 115.0423660   3.6864750 101.9950190
 124.4384280   7.7094360  99.1615640 123.9765810   6.9381600  99.4902810
 125.2509830   7.7360430  99.6668090 114.4143940   7.6494070 101.4550290
 114.7171980   6.7591810 101.2760510 115.1587530   8.2064290 101.2272540
 120.6647590   9.9952370  98.7819630 120.0459030  10.4509870  98.2114070
 121.5199370  10.1503830  98.3809330 119.8585840   5.9791360 100.3886670
 119.7894120   5.0381300 100.2275800 120.6205700   6.0692770 100.9609240
 121.5310940   4.8791610  96.1751540 120.9128210   5.3441060  95.6114260
 122.0434190   5.5719090  96.5921050 116.3942700   4.4067480 102.8535140
 116.0612080   5.0336400 103.4956210 116.5709380   4.9329360 102.0736810
 115.6061800   6.3748280 104.6684320 116.2235800   7.0499360 104.3868770
 114.7454920   6.7836260 104.5771820 110.8994140   5.5648140  93.5491170
 110.5222120   6.0535240  92.8176070 111.1567210   6.2373420  94.1797700
 124.0598130   9.6831820 101.2984140 124.0725290   9.2794110 100.4306400
 123.5073350  10.4579110 101.1945570 123.4583570   4.5861660 102.6266750
 123.8752360   4.3721770 101.7920210 124.1823390   4.8434450 103.1975370
 120.8963830   2.0313360  95.7436800 119.9693110   1.9650740  95.9725270
 121.0488650   2.9693490  95.6292040 124.9261120   3.5933660  96.2472050
 124.3073540   3.2553210  95.5998350 124.9085570   2.9493420  96.9551240
 116.5020470   2.5578100  98.5256530 116.0977470   1.8455350  98.0302430
 116.5883590   2.2131340  99.4144570 116.9702170   6.2445660 100.6895740
 116.6730460   5.6391130 100.0103520 117.9201990   6.2822970 100.5785100
 125.0587780   9.8177530 104.3518840 124.5818340  10.6249720 104.1591450
 124.3749570   9.1655860 104.5045050 123.1025820   2.8320470  93.2544800
 123.5419100   1.9942900  93.1082620 123.8154240   3.4649870  93.3408940
 121.2121200   7.7716540  97.2226040 121.6517110   8.5140870  96.8081430
 121.1508090   8.0143110  98.1465000 110.8410470   4.6238220 101.8331820
 110.9190890   4.7586990 100.8887540 111.4552150   3.9154110 102.0259940
 112.0858100   6.3238410  98.2438000 111.6786180   6.4653000  97.3891600
 112.9771110   6.0398570  98.0409210 123.8791380  10.7585660  94.5789050
 123.7192520  10.4688600  95.4770880 123.7138090   9.9825790  94.0434280
 116.3579760  10.5384190  96.3560670 116.1822240   9.6219730  96.1428470
 115.5035500  10.8971480  96.5958470 123.5817510   8.2673220  93.1387050
 122.8882670   8.2650510  92.4789330 124.3240370   7.8432540  92.7081220
 123.1467440   9.8935930  97.2135540 123.6024390   9.1125310  97.5274160
 123.4859960  10.6042750  97.7576720 114.9387270   5.1349990  94.9281770
 114.1649530   4.5947610  94.7680490 115.6681900   4.6156600  94.5899530
 114.9824670   4.8030370  98.5660580 115.5003340   3.9998630  98.5117470
 114.5308690   4.7409510  99.4077410 119.8694170   6.0696650  93.8387880
 120.2109870   6.8138880  93.3431200 119.0406880   6.3827770  94.2012710
 122.7521580   5.3912490  99.2033390 123.1045400   4.7940620  98.5434760
 121.8683910   5.0656720  99.3741640 118.8384860   6.1510180  96.6103800
 119.5255990   6.6979390  96.9911390 118.0517280   6.6950910  96.6453410
 110.9777260   1.7683000  92.1020880 111.8472110   2.0507800  92.3856800
 110.4867580   2.5818870  91.9869690 118.1412070   3.1556210  96.2229160
 118.5974850   3.9661460  96.4489350 117.7900280   2.8379350  97.0547650
 120.4444680   8.6662550 103.4521460 121.0886900   8.8721930 104.1294880
 120.8074120   7.9050950 102.9992310 121.7176760   6.6694900 102.1698910
 122.3598990   5.9688060 102.2831080 122.2426110   7.4493340 101.9895800
 111.3448510  10.9810380  92.6682510 111.7046150  11.5799720  92.0139780
 111.2040850  11.5270270  93.4417540 117.3617130   8.3641580  93.4856180
 117.3527230   9.0971270  92.8700690 116.4415490   8.1173160  93.5783140
 112.9623770   3.5856470  94.2302940 112.3551720   4.3255370  94.2398240
 113.4373120   3.6755830  93.4041140 120.3476730   8.4269820  92.1481370
 120.4488710   8.2233810  91.2183350 119.4478470   8.1728100  92.3529150
 118.9894840  10.9456140  96.8429040 119.2436340  10.9077530  95.9208410
 118.0407320  10.8189470  96.8357290 114.9729060   3.5467620  91.9791510
 115.7392330   3.4348980  92.5416940 115.0503750   2.8505590  91.3268280
 114.4690530  11.1288080  99.7658940 115.2053010  10.5803540 100.0367510
 114.8531450  11.9944090  99.6264930 111.3536010   7.1961650  95.6400450
 110.4275790   7.4382790  95.6305860 111.8192440   8.0235910  95.5185200
 117.5792840  10.3018390  91.5884510 118.3721450  10.5907220  91.1366300
 117.0597190   9.8710560  90.9096990 118.0970240   5.5221800  91.4526860
 117.9920880   4.9074150  92.1788240 117.9294460   4.9987690  90.6689870
 121.3372970   4.5841830  92.0568850 120.7883070   5.0311130  92.7011590
 121.9592230   4.0791080  92.5806520 117.0048090   3.5432750  93.9534150
 117.4264510   3.3772620  94.7965540 117.1298930   2.7332980  93.4589290
 119.5175730   2.5670360  91.2011250 120.0381390   1.8519380  90.8352400
 120.1644130   3.2056230  91.5011760 118.8268800   3.9419240 104.4942250
 119.2456910   4.7851970 104.3218490 117.9077430   4.0791280 104.2649030
 120.0823760  10.6481970  93.4912990 120.9774550  10.9866940  93.5131750
 120.1141390   9.9261380  92.8637270 113.7219920   6.0209020  91.7199990
 114.1594790   6.5638690  92.3757570 114.2067650   5.1955970  91.7296330
 110.9365720   8.8098050  99.1720250 111.2668730   7.9419110  98.9398890
 111.3656720   9.0156570 100.0025210 115.5327640   7.1407060  96.8322220
 115.2323180   7.0172030  97.7326130 115.4265130   6.2815650  96.4237950
 111.4255930   9.6768640 101.9101880 110.9886920   9.8569440 102.7426030
 111.9933610  10.4343260 101.7683600 111.2580360   2.1888870  98.2690760
 110.6029200   1.9200510  97.6250460 112.0958310   2.0793350  97.8192740
 112.2956290   2.5741440 102.8094100 112.6629330   2.4868840 103.6890120
 111.7267110   1.8107990 102.7100960 117.4114400   8.6433720 103.5723970
 117.1705760   8.9108280 102.6854490 118.3517040   8.8139450 103.6274830
 113.1808630   7.3994760 104.0420070 112.4542690   6.7800050 103.9746020
 113.2417780   7.7935370 103.1718150 116.7853730   9.6139760 100.8269480
 117.3018750   9.0027120 100.3017740 117.4351110  10.1168540 101.3180490
 119.5249230  10.5048250 101.6538460 119.8127040  10.2502550 100.7771470
 120.0372450   9.9525610 102.2444030 111.4638630  10.7169150  97.2516830
 111.2960670  10.0839830  97.9498720 110.5973140  10.9228550  96.9011020
 113.0701330   9.4102380  94.6966970 112.5448950   9.7910410  93.9928930
 112.9945910  10.0353150  95.4176680 115.6694300  11.3584760  93.5716220
 116.4013120  11.0744040  93.0240110 115.9287970  11.1198040  94.4615600
 114.8309090   7.4749490  93.5762550 114.2017970   7.9434590  94.1248380
 114.9456920   6.6298710  94.0108740 120.4176850   3.3034170  81.6073020
 119.6418950   2.8234610  81.8971590 121.0689780   2.6239820  81.4329180
 114.4342680   3.6153980  82.4848780 113.6027560   3.3602690  82.8845290
 115.0423660   3.6864750  83.2206700 124.4384280   7.7094360  80.3872150
 123.9765810   6.9381600  80.7159320 125.2509830   7.7360430  80.8924600
 114.4143940   7.6494070  82.6806800 114.7171980   6.7591810  82.5017020
 115.1587530   8.2064290  82.4529050 120.6647590   9.9952370  80.0076140
 120.0459030  10.4509870  79.4370580 121.5199370  10.1503830  79.6065840
 119.8585840   5.9791360  81.6143180 119.7894120   5.0381300  81.4532310
 120.6205700   6.0692770  82.1865750 121.5310940   4.8791610  77.4008050
 120.9128210   5.3441060  76.8370770 122.0434190   5.5719090  77.8177560
 116.3942700   4.4067480  84.0791650 116.0612080   5.0336400  84.7212720
 116.5709380   4.9329360  83.2993320 115.6061800   6.3748280  85.8940830
 116.2235800   7.0499360  85.6125280 114.7454920   6.7836260  85.8028330
 110.8994140   5.5648140  74.7747680 110.5222120   6.0535240  74.0432580
 111.1567210   6.2373420  75.4054210 124.0598130   9.6831820  82.5240650
 124.0725290   9.2794110  81.6562910 123.5073350  10.4579110  82.4202080
 123.4583570   4.5861660  83.8523260 123.8752360   4.3721770  83.0176720
 124.1823390   4.8434450  84.4231880 120.8963830   2.0313360  76.9693310
 119.9693110   1.9650740  77.1981780 121.0488650   2.9693490  76.8548550
 124.9261120   3.5933660  77.4728560 124.3073540   3.2553210  76.8254860
 124.9085570   2.9493420  78.1807750 116.5020470   2.5578100  79.7513040
 116.0977470   1.8455350  79.2558940 116.5883590   2.2131340  80.6401080
 116.9702170   6.2445660  81.9152250 116.6730460   5.6391130  81.2360030
 117.9201990   6.2822970  81.8041610 125.0587780   9.8177530  85.5775350
 124.5818340  10.6249720  85.3847960 124.3749570   9.1655860  85.7301560
 116.0620600   5.9827350  88.5660050 115.1649130   6.2067320  88.8133450
 116.0873470   6.1062290  87.6171450 123.1025820   2.8320470  74.4801310
 123.5419100   1.9942900  74.3339130 123.8154240   3.4649870  74.5665450
 114.8891820   2.8540670  87.1417420 114.7499590   3.7263470  87.5104820
 114.0073180   2.5113480  86.9965360 121.2121200   7.7716540  78.4482550
 121.6517110   8.5140870  78.0337940 121.1508090   8.0143110  79.3721510
 116.6872170   8.7962370  89.3502570 116.6587600   9.2005320  88.4831000
 116.5237140   7.8672730  89.1874170 110.8410470   4.6238220  83.0588330
 110.9190890   4.7586990  82.1144050 111.4552150   3.9154110  83.2516450
 112.0858100   6.3238410  79.4694510 111.6786180   6.4653000  78.6148110
 112.9771110   6.0398570  79.2665720 121.9036980  10.4730320  86.3761560
 122.4181650  10.3838330  87.1783990 121.0606060  10.8190020  86.6689470
 123.8791380  10.7585660  75.8045560 123.7192520  10.4688600  76.7027390
 123.7138090   9.9825790  75.2690790 116.3579760  10.5384190  77.5817180
 116.1822240   9.6219730  77.3684980 115.5035500  10.8971480  77.8214980
 123.5817510   8.2673220  74.3643560 122.8882670   8.2650510  73.7045840
 124.3240370   7.8432540  73.9337730 123.1467440   9.8935930  78.4392050
 123.6024390   9.1125310  78.7530670 123.4859960  10.6042750  78.9833230
 110.8969990   5.6652390  85.5982790 111.0601030   5.1957750  84.7802160
 111.3622440   5.1575950  86.2631630 112.4708970   5.0403820  87.7578600
 112.0863760   4.3997490  88.3561560 112.7821160   5.7439940  88.3273330
 114.9387270   5.1349990  76.1538280 114.1649530   4.5947610  75.9937000
 115.6681900   4.6156600  75.8156040 121.0794050   4.2024410  87.8333670
 121.0131360   3.2820080  87.5791260 120.4499190   4.2999850  88.5478310
 114.9824670   4.8030370  79.7917090 115.5003340   3.9998630  79.7373980
 114.5308690   4.7409510  80.6333920 119.8694170   6.0696650  75.0644390
 120.2109870   6.8138880  74.5687710 119.0406880   6.3827770  75.4269220
 115.6682330   2.2275980  89.5882340 115.3682470   2.3733160  88.6910160
 116.4393570   1.6681270  89.4955730 121.0110780   7.0244980  87.5837470
 121.0255320   6.0925940  87.3656380 120.3035880   7.1104740  88.2227240
 122.7521580   5.3912490  80.4289900 123.1045400   4.7940620  79.7691270
 121.8683910   5.0656720  80.5998150 118.8384860   6.1510180  77.8360310
 119.5255990   6.6979390  78.2167900 118.0517280   6.6950910  77.8709920
 110.9777260   1.7683000  73.3277390 111.8472110   2.0507800  73.6113310
 110.4867580   2.5818870  73.2126200 118.1412070   3.1556210  77.4485670
 118.5974850   3.9661460  77.6745860 117.7900280   2.8379350  78.2804160
 120.4444680   8.6662550  84.6777970 121.0886900   8.8721930  85.3551390
 120.8074120   7.9050950  84.2248820 121.7176760   6.6694900  83.3955420
 122.3598990   5.9688060  83.5087590 122.2426110   7.4493340  83.2152310
 123.4914380   7.4689800  86.5991480 123.8270620   8.0556490  87.2769400
 122.5714720   7.3382510  86.8289270 111.3448510  10.9810380  73.8939020
 111.7046150  11.5799720  73.2396290 111.2040850  11.5270270  74.6674050
 111.3290370   9.2465240  88.3681420 111.4381490   8.3059980  88.2276810
 110.6770930   9.5119990  87.7195150 119.3202960   7.5181130  89.7679540
 118.9999830   6.7990370  90.3125230 118.6461320   8.1936200  89.8415600
 117.3617130   8.3641580  74.7112690 117.3527230   9.0971270  74.0957200
 116.4415490   8.1173160  74.8039650 112.9623770   3.5856470  75.4559450
 112.3551720   4.3255370  75.4654750 113.4373120   3.6755830  74.6297650
 120.3476730   8.4269820  73.3737880 120.4488710   8.2233810  72.4439860
 119.4478470   8.1728100  73.5785660 118.9894840  10.9456140  78.0685550
 119.2436340  10.9077530  77.1464920 118.0407320  10.8189470  78.0613800
 114.9729060   3.5467620  73.2048020 115.7392330   3.4348980  73.7673450
 115.0503750   2.8505590  72.5524790 114.4690530  11.1288080  80.9915450
 115.2053010  10.5803540  81.2624020 114.8531450  11.9944090  80.8521440
 111.3536010   7.1961650  76.8656960 110.4275790   7.4382790  76.8562370
 111.8192440   8.0235910  76.7441710 113.4748810  10.3134150  90.1801030
 114.2761540  10.6346200  90.5936430 112.9600630   9.9529730  90.9020940
 117.5792840  10.3018390  72.8141020 118.3721450  10.5907220  72.3622810
 117.0597190   9.8710560  72.1353500 122.3113440   6.4214020  90.1276440
 121.7051600   6.4445620  89.3872190 122.0067550   5.6897060  90.6643690
 123.7413810  10.1494310  88.7385850 124.6935560  10.0652330  88.6886090
 123.5942030  10.8136020  89.4119640 111.1946620   2.8007610  89.1237080
 111.6985640   2.2214890  89.6953310 110.4554040   3.0847840  89.6613450
 118.0970240   5.5221800  72.6783370 117.9920880   4.9074150  73.4044750
 117.9294460   4.9987690  71.8946380 118.2484560   4.2078600  88.6572600
 117.4830230   4.7763600  88.5727270 118.4300520   3.9154810  87.7640830
 121.3372970   4.5841830  73.2825360 120.7883070   5.0311130  73.9268100
 121.9592230   4.0791080  73.8063030 117.0048090   3.5432750  75.1790660
 117.4264510   3.3772620  76.0222050 117.1298930   2.7332980  74.6845800
 119.5175730   2.5670360  72.4267760 120.0381390   1.8519380  72.0608910
 120.1644130   3.2056230  72.7268270 124.0653570   3.9898760  87.7502830
 124.4794590   4.1443840  88.5993250 123.1304570   4.1153980  87.9128610
 118.8268800   3.9419240  85.7198760 119.2456910   4.7851970  85.5475000
 117.9077430   4.0791280  85.4905540 123.5020600   2.2272610  85.6799110
 122.9755820   2.7515230  85.0764250 123.8451940   2.8600000  86.3108840
 116.6776220  10.2472250  86.8356490 116.1397310  10.9718310  86.5165190
 116.9310180   9.7702590  86.0453830 119.5338430  11.4823460  87.0943140
 119.4597130  12.3858600  87.4015510 118.6317270  11.1635360  87.0665210
 120.0823760  10.6481970  74.7169500 120.9774550  10.9866940  74.7388260
 120.1141390   9.9261380  74.0893780 113.7219920   6.0209020  72.9456500
 114.1594790   6.5638690  73.6014080 114.2067650   5.1955970  72.9552840
 110.9365720   8.8098050  80.3976760 111.2668730   7.9419110  80.1655400
 111.3656720   9.0156570  81.2281720 115.5327640   7.1407060  78.0578730
 115.2323180   7.0172030  78.9582640 115.4265130   6.2815650  77.6494460
 111.4255930   9.6768640  83.1358390 110.9886920   9.8569440  83.9682540
 111.9933610  10.4343260  82.9940110 111.2580360   2.1888870  79.4947270
 110.6029200   1.9200510  78.8506970 112.0958310   2.0793350  79.0449250
 112.2956290   2.5741440  84.0350610 112.6629330   2.4868840  84.9146630
 111.7267110   1.8107990  83.9357470 113.7108370   7.0874130  89.1970760
 113.6678000   6.7167040  90.0785220 113.8419380   8.0251700  89.3372580
 117.4114400   8.6433720  84.7980480 117.1705760   8.9108280  83.9111000
 118.3517040   8.8139450  84.8531340 113.5496400  10.0336380  86.3168540
 112.9556720   9.9021080  87.0558580 113.5420240   9.1974520  85.8510640
 113.1808630   7.3994760  85.2676580 112.4542690   6.7800050  85.2002530
 113.2417780   7.7935370  84.3974660 116.7853730   9.6139760  82.0525990
 117.3018750   9.0027120  81.5274250 117.4351110  10.1168540  82.5437000
 119.5249230  10.5048250  82.8794970 119.8127040  10.2502550  82.0027980
 120.0372450   9.9525610  83.4700540 111.4638630  10.7169150  78.4773340
 111.2960670  10.0839830  79.1755230 110.5973140  10.9228550  78.1267530
 113.0701330   9.4102380  75.9223480 112.5448950   9.7910410  75.2185440
 112.9945910  10.0353150  76.6433190 119.5921590  11.4264350  90.2463170
 120.5188900  11.1908620  90.2899130 119.5772020  12.2536350  89.7649200
 115.6694300  11.3584760  74.7972730 116.4013120  11.0744040  74.2496620
 115.9287970  11.1198040  75.6872110 114.8309090   7.4749490  74.8019060
 114.2017970   7.9434590  75.3504890 114.9456920   6.6298710  75.2365250
 120.4176850   3.3034170  62.8329530 119.6418950   2.8234610  63.1228100
 121.0689780   2.6239820  62.6585690 114.4342680   3.6153980  63.7105290
 113.6027560   3.3602690  64.1101800 115.0423660   3.6864750  64.4463210
 124.4384280   7.7094360  61.6128660 123.9765810   6.9381600  61.9415830
 125.2509830   7.7360430  62.1181110 114.4143940   7.6494070  63.9063310
 114.7171980   6.7591810  63.7273530 115.1587530   8.2064290  63.6785560
 120.6647590   9.9952370  61.2332650 120.0459030  10.4509870  60.6627090
 121.5199370  10.1503830  60.8322350 119.8585840   5.9791360  62.8399690
 119.7894120   5.0381300  62.6788820 120.6205700   6.0692770  63.4122260
 121.5310940   4.8791610  58.6264560 120.9128210   5.3441060  58.0627280
 122.0434190   5.5719090  59.0434070 116.3942700   4.4067480  65.3048160
 116.0612080   5.0336400  65.9469230 116.5709380   4.9329360  64.5249830
 115.6061800   6.3748280  67.1197340 116.2235800   7.0499360  66.8381790
 114.7454920   6.7836260  67.0284840 110.8994140   5.5648140  56.0004190
 110.5222120   6.0535240  55.2689090 111.1567210   6.2373420  56.6310720
 124.0598130   9.6831820  63.7497160 124.0725290   9.2794110  62.8819420
 123.5073350  10.4579110  63.6458590 123.4583570   4.5861660  65.0779770
 123.8752360   4.3721770  64.2433230 124.1823390   4.8434450  65.6488390
 120.8963830   2.0313360  58.1949820 119.9693110   1.9650740  58.4238290
 121.0488650   2.9693490  58.0805060 124.9261120   3.5933660  58.6985070
 124.3073540   3.2553210  58.0511370 124.9085570   2.9493420  59.4064260
 116.5020470   2.5578100  60.9769550 116.0977470   1.8455350  60.4815450
 116.5883590   2.2131340  61.8657590 116.9702170   6.2445660  63.1408760
 116.6730460   5.6391130  62.4616540 117.9201990   6.2822970  63.0298120
 125.0587780   9.8177530  66.8031860 124.5818340  10.6249720  66.6104470
 124.3749570   9.1655860  66.9558070 116.0620600   5.9827350  69.7916560
 115.1649130   6.2067320  70.0389960 116.0873470   6.1062290  68.8427960
 123.1025820   2.8320470  55.7057820 123.5419100   1.9942900  55.5595640
 123.8154240   3.4649870  55.7921960 114.8891820   2.8540670  68.3673930
 114.7499590   3.7263470  68.7361330 114.0073180   2.5113480  68.2221870
 121.2121200   7.7716540  59.6739060 121.6517110   8.5140870  59.2594450
 121.1508090   8.0143110  60.5978020 116.6872170   8.7962370  70.5759080
 116.6587600   9.2005320  69.7087510 116.5237140   7.8672730  70.4130680
 110.8410470   4.6238220  64.2844840 110.9190890   4.7586990  63.3400560
 111.4552150   3.9154110  64.4772960 112.0858100   6.3238410  60.6951020
 111.6786180   6.4653000  59.8404620 112.9771110   6.0398570  60.4922230
 121.9036980  10.4730320  67.6018070 122.4181650  10.3838330  68.4040500
 121.0606060  10.8190020  67.8945980 123.8791380  10.7585660  57.0302070
 123.7192520  10.4688600  57.9283900 123.7138090   9.9825790  56.4947300
 116.3579760  10.5384190  58.8073690 116.1822240   9.6219730  58.5941490
 115.5035500  10.8971480  59.0471490 123.5817510   8.2673220  55.5900070
 122.8882670   8.2650510  54.9302350 124.3240370   7.8432540  55.1594240
 123.1467440   9.8935930  59.6648560 123.6024390   9.1125310  59.9787180
 123.4859960  10.6042750  60.2089740 110.8969990   5.6652390  66.8239300
 111.0601030   5.1957750  66.0058670 111.3622440   5.1575950  67.4888140
 112.4708970   5.0403820  68.9835110 112.0863760   4.3997490  69.5818070
 112.7821160   5.7439940  69.5529840 114.9387270   5.1349990  57.3794790
 114.1649530   4.5947610  57.2193510 115.6681900   4.6156600  57.0412550
 121.0794050   4.2024410  69.0590180 121.0131360   3.2820080  68.8047770
 120.4499190   4.2999850  69.7734820 114.9824670   4.8030370  61.0173600
 115.5003340   3.9998630  60.9630490 114.5308690   4.7409510  61.8590430
 119.8694170   6.0696650  56.2900900 120.2109870   6.8138880  55.7944220
 119.0406880   6.3827770  56.6525730 115.6682330   2.2275980  70.8138850
 115.3682470   2.3733160  69.9166670 116.4393570   1.6681270  70.7212240
 121.0110780   7.0244980  68.8093980 121.0255320   6.0925940  68.5912890
 120.3035880   7.1104740  69.4483750 122.7521580   5.3912490  61.6546410
 123.1045400   4.7940620  60.9947780 121.8683910   5.0656720  61.8254660
 118.8384860   6.1510180  59.0616820 119.5255990   6.6979390  59.4424410
 118.0517280   6.6950910  59.0966430 110.9777260   1.7683000  54.5533900
 111.8472110   2.0507800  54.8369820 110.4867580   2.5818870  54.4382710
 118.1412070   3.1556210  58.6742180 118.5974850   3.9661460  58.9002370
 117.7900280   2.8379350  59.5060670 120.4444680   8.6662550  65.9034480
 121.0886900   8.8721930  66.5807900 120.8074120   7.9050950  65.4505330
 121.7176760   6.6694900  64.6211930 122.3598990   5.9688060  64.7344100
 122.2426110   7.4493340  64.4408820 123.4914380   7.4689800  67.8247990
 123.8270620   8.0556490  68.5025910 122.5714720   7.3382510  68.0545780
 111.3448510  10.9810380  55.1195530 111.7046150  11.5799720  54.4652800
 111.2040850  11.5270270  55.8930560 111.3290370   9.2465240  69.5937930
 111.4381490   8.3059980  69.4533320 110.6770930   9.5119990  68.9451660
 119.3202960   7.5181130  70.9936050 118.9999830   6.7990370  71.5381740
 118.6461320   8.1936200  71.0672110 117.3617130   8.3641580  55.9369200
 117.3527230   9.0971270  55.3213710 116.4415490   8.1173160  56.0296160
 112.9623770   3.5856470  56.6815960 112.3551720   4.3255370  56.6911260
 113.4373120   3.6755830  55.8554160 120.3476730   8.4269820  54.5994390
 120.4488710   8.2233810  53.6696370 119.4478470   8.1728100  54.8042170
 118.9894840  10.9456140  59.2942060 119.2436340  10.9077530  58.3721430
 118.0407320  10.8189470  59.2870310 114.9729060   3.5467620  54.4304530
 115.7392330   3.4348980  54.9929960 115.0503750   2.8505590  53.7781300
 114.4690530  11.1288080  62.2171960 115.2053010  10.5803540  62.4880530
 114.8531450  11.9944090  62.0777950 111.3536010   7.1961650  58.0913470
 110.4275790   7.4382790  58.0818880 111.8192440   8.0235910  57.9698220
 113.4748810  10.3134150  71.4057540 114.2761540  10.6346200  71.8192940
 112.9600630   9.9529730  72.1277450 117.5792840  10.3018390  54.0397530
 118.3721450  10.5907220  53.5879320 117.0597190   9.8710560  53.3610010
 122.3113440   6.4214020  71.3532950 121.7051600   6.4445620  70.6128700
 122.0067550   5.6897060  71.8900200 123.7413810  10.1494310  69.9642360
 124.6935560  10.0652330  69.9142600 123.5942030  10.8136020  70.6376150
 111.1946620   2.8007610  70.3493590 111.6985640   2.2214890  70.9209820
 110.4554040   3.0847840  70.8869960 118.0970240   5.5221800  53.9039880
 117.9920880   4.9074150  54.6301260 117.9294460   4.9987690  53.1202890
 118.2484560   4.2078600  69.8829110 117.4830230   4.7763600  69.7983780
 118.4300520   3.9154810  68.9897340 121.3372970   4.5841830  54.5081870
 120.7883070   5.0311130  55.1524610 121.9592230   4.0791080  55.0319540
 117.0048090   3.5432750  56.4047170 117.4264510   3.3772620  57.2478560
 117.1298930   2.7332980  55.9102310 119.5175730   2.5670360  53.6524270
 120.0381390   1.8519380  53.2865420 120.1644130   3.2056230  53.9524780
 124.0653570   3.9898760  68.9759340 124.4794590   4.1443840  69.8249760
 123.1304570   4.1153980  69.1385120 118.8268800   3.9419240  66.9455270
 119.2456910   4.7851970  66.7731510 117.9077430   4.0791280  66.7162050
 123.5020600   2.2272610  66.9055620 122.9755820   2.7515230  66.3020760
 123.8451940   2.8600000  67.5365350 116.6776220  10.2472250  68.0613000
 116.1397310  10.9718310  67.7421700 116.9310180   9.7702590  67.2710340
 119.5338430  11.4823460  68.3199650 119.4597130  12.3858600  68.6272020
 118.6317270  11.1635360  68.2921720 120.0823760  10.6481970  55.9426010
 120.9774550  10.9866940  55.9644770 120.1141390   9.9261380  55.3150290
 113.7219920   6.0209020  54.1713010 114.1594790   6.5638690  54.8270590
 114.2067650   5.1955970  54.1809350 110.9365720   8.8098050  61.6233270
 111.2668730   7.9419110  61.3911910 111.3656720   9.0156570  62.4538230
 115.5327640   7.1407060  59.2835240 115.2323180   7.0172030  60.1839150
 115.4265130   6.2815650  58.8750970 111.4255930   9.6768640  64.3614900
 110.9886920   9.8569440  65.1939050 111.9933610  10.4343260  64.2196620
 111.2580360   2.1888870  60.7203780 110.6029200   1.9200510  60.0763480
 112.0958310   2.0793350  60.2705760 112.2956290   2.5741440  65.2607120
 112.6629330   2.4868840  66.1403140 111.7267110   1.8107990  65.1613980
 113.7108370   7.0874130  70.4227270 113.6678000   6.7167040  71.3041730
 113.8419380   8.0251700  70.5629090 117.4114400   8.6433720  66.0236990
 117.1705760   8.9108280  65.1367510 118.3517040   8.8139450  66.0787850
 113.5496400  10.0336380  67.5425050 112.9556720   9.9021080  68.2815090
 113.5420240   9.1974520  67.0767150 113.1808630   7.3994760  66.4933090
 112.4542690   6.7800050  66.4259040 113.2417780   7.7935370  65.6231170
 116.7853730   9.6139760  63.2782500 117.3018750   9.0027120  62.7530760
 117.4351110  10.1168540  63.7693510 119.5249230  10.5048250  64.1051480
 119.8127040  10.2502550  63.2284490 120.0372450   9.9525610  64.6957050
 111.4638630  10.7169150  59.7029850 111.2960670  10.0839830  60.4011740
 110.5973140  10.9228550  59.3524040 113.0701330   9.4102380  57.1479990
 112.5448950   9.7910410  56.4441950 112.9945910  10.0353150  57.8689700
 119.5921590  11.4264350  71.4719680 120.5188900  11.1908620  71.5155640
 119.5772020  12.2536350  70.9905710 115.6694300  11.3584760  56.0229240
 116.4013120  11.0744040  55.4753130 115.9287970  11.1198040  56.9128620
 114.8309090   7.4749490  56.0275570 114.2017970   7.9434590  56.5761400
 114.9456920   6.6298710  56.4621760 120.4176850   3.3034170  44.0586040
 119.6418950   2.8234610  44.3484610 121.0689780   2.6239820  43.8842200
 114.4342680   3.6153980  44.9361800 113.6027560   3.3602690  45.3358310
 115.0423660   3.6864750  45.6719720 124.4384280   7.7094360  42.8385170
 123.9765810   6.9381600  43.1672340 125.2509830   7.7360430  43.3437620
 114.4143940   7.6494070  45.1319820 114.7171980   6.7591810  44.9530040
 115.1587530   8.2064290  44.9042070 120.6647590   9.9952370  42.4589160
 120.0459030  10.4509870  41.8883600 121.5199370  10.1503830  42.0578860
 119.8585840   5.9791360  44.0656200 119.7894120   5.0381300  43.9045330
 120.6205700   6.0692770  44.6378770 121.5310940   4.8791610  39.8521070
 120.9128210   5.3441060  39.2883790 122.0434190   5.5719090  40.2690580
 116.3942700   4.4067480  46.5304670 116.0612080   5.0336400  47.1725740
 116.5709380   4.9329360  45.7506340 115.6061800   6.3748280  48.3453850
 116.2235800   7.0499360  48.0638300 114.7454920   6.7836260  48.2541350
 110.8994140   5.5648140  37.2260700 110.5222120   6.0535240  36.4945600
 111.1567210   6.2373420  37.8567230 124.0598130   9.6831820  44.9753670
 124.0725290   9.2794110  44.1075930 123.5073350  10.4579110  44.8715100
 123.4583570   4.5861660  46.3036280 123.8752360   4.3721770  45.4689740
 124.1823390   4.8434450  46.8744900 120.8963830   2.0313360  39.4206330
 119.9693110   1.9650740  39.6494800 121.0488650   2.9693490  39.3061570
 124.9261120   3.5933660  39.9241580 124.3073540   3.2553210  39.2767880
 124.9085570   2.9493420  40.6320770 116.5020470   2.5578100  42.2026060
 116.0977470   1.8455350  41.7071960 116.5883590   2.2131340  43.0914100
 116.9702170   6.2445660  44.3665270 116.6730460   5.6391130  43.6873050
 117.9201990   6.2822970  44.2554630 125.0587780   9.8177530  48.0288370
 124.5818340  10.6249720  47.8360980 124.3749570   9.1655860  48.1814580
 116.0620600   5.9827350  51.0173070 115.1649130   6.2067320  51.2646470
 116.0873470   6.1062290  50.0684470 123.1025820   2.8320470  36.9314330
 123.5419100   1.9942900  36.7852150 123.8154240   3.4649870  37.0178470
 114.8891820   2.8540670  49.5930440 114.7499590   3.7263470  49.9617840
 114.0073180   2.5113480  49.4478380 121.2121200   7.7716540  40.8995570
 121.6517110   8.5140870  40.4850960 121.1508090   8.0143110  41.8234530
 116.6872170   8.7962370  51.8015590 116.6587600   9.2005320  50.9344020
 116.5237140   7.8672730  51.6387190 110.8410470   4.6238220  45.5101350
 110.9190890   4.7586990  44.5657070 111.4552150   3.9154110  45.7029470
 112.0858100   6.3238410  41.9207530 111.6786180   6.4653000  41.0661130
 112.9771110   6.0398570  41.7178740 121.9036980  10.4730320  48.8274580
 122.4181650  10.3838330  49.6297010 121.0606060  10.8190020  49.1202490
 123.8791380  10.7585660  38.2558580 123.7192520  10.4688600  39.1540410
 123.7138090   9.9825790  37.7203810 116.3579760  10.5384190  40.0330200
 116.1822240   9.6219730  39.8198000 115.5035500  10.8971480  40.2728000
 123.5817510   8.2673220  36.8156580 122.8882670   8.2650510  36.1558860
 124.3240370   7.8432540  36.3850750 123.1467440   9.8935930  40.8905070
 123.6024390   9.1125310  41.2043690 123.4859960  10.6042750  41.4346250
 110.8969990   5.6652390  48.0495810 111.0601030   5.1957750  47.2315180
 111.3622440   5.1575950  48.7144650 112.4708970   5.0403820  50.2091620
 112.0863760   4.3997490  50.8074580 112.7821160   5.7439940  50.7786350
 114.9387270   5.1349990  38.6051300 114.1649530   4.5947610  38.4450020
 115.6681900   4.6156600  38.2669060 121.0794050   4.2024410  50.2846690
 121.0131360   3.2820080  50.0304280 120.4499190   4.2999850  50.9991330
 114.9824670   4.8030370  42.2430110 115.5003340   3.9998630  42.1887000
 114.5308690   4.7409510  43.0846940 119.8694170   6.0696650  37.5157410
 120.2109870   6.8138880  37.0200730 119.0406880   6.3827770  37.8782240
 115.6682330   2.2275980  52.0395360 115.3682470   2.3733160  51.1423180
 116.4393570   1.6681270  51.9468750 121.0110780   7.0244980  50.0350490
 121.0255320   6.0925940  49.8169400 120.3035880   7.1104740  50.6740260
 122.7521580   5.3912490  42.8802920 123.1045400   4.7940620  42.2204290
 121.8683910   5.0656720  43.0511170 118.8384860   6.1510180  40.2873330
 119.5255990   6.6979390  40.6680920 118.0517280   6.6950910  40.3222940
 110.9777260   1.7683000  35.7790410 111.8472110   2.0507800  36.0626330
 110.4867580   2.5818870  35.6639220 118.1412070   3.1556210  39.8998690
 118.5974850   3.9661460  40.1258880 117.7900280   2.8379350  40.7317180
 120.4444680   8.6662550  47.1290990 121.0886900   8.8721930  47.8064410
 120.8074120   7.9050950  46.6761840 121.7176760   6.6694900  45.8468440
 122.3598990   5.9688060  45.9600610 122.2426110   7.4493340  45.6665330
 123.4914380   7.4689800  49.0504500 123.8270620   8.0556490  49.7282420
 122.5714720   7.3382510  49.2802290 111.3448510  10.9810380  36.3452040
 111.7046150  11.5799720  35.6909310 111.2040850  11.5270270  37.1187070
 111.3290370   9.2465240  50.8194440 111.4381490   8.3059980  50.6789830
 110.6770930   9.5119990  50.1708170 119.3202960   7.5181130  52.2192560
 118.9999830   6.7990370  52.7638250 118.6461320   8.1936200  52.2928620
 117.3617130   8.3641580  37.1625710 117.3527230   9.0971270  36.5470220
 116.4415490   8.1173160  37.2552670 112.9623770   3.5856470  37.9072470
 112.3551720   4.3255370  37.9167770 113.4373120   3.6755830  37.0810670
 120.3476730   8.4269820  35.8250900 120.4488710   8.2233810  34.8952880
 119.4478470   8.1728100  36.0298680 118.9894840  10.9456140  40.5198570
 119.2436340  10.9077530  39.5977940 118.0407320  10.8189470  40.5126820
 114.9729060   3.5467620  35.6561040 115.7392330   3.4348980  36.2186470
 115.0503750   2.8505590  35.0037810 114.4690530  11.1288080  43.4428470
 115.2053010  10.5803540  43.7137040 114.8531450  11.9944090  43.3034460
 111.3536010   7.1961650  39.3169980 110.4275790   7.4382790  39.3075390
 111.8192440   8.0235910  39.1954730 113.4748810  10.3134150  52.6314050
 114.2761540  10.6346200  53.0449450 112.9600630   9.9529730  53.3533960
 117.5792840  10.3018390  35.2654040 118.3721450  10.5907220  34.8135830
 117.0597190   9.8710560  34.5866520 122.3113440   6.4214020  52.5789460
 121.7051600   6.4445620  51.8385210 122.0067550   5.6897060  53.1156710
 123.7413810  10.1494310  51.1898870 124.6935560  10.0652330  51.1399110
 123.5942030  10.8136020  51.8632660 111.1946620   2.8007610  51.5750100
 111.6985640   2.2214890  52.1466330 110.4554040   3.0847840  52.1126470
 118.0970240   5.5221800  35.1296390 117.9920880   4.9074150  35.8557770
 117.9294460   4.9987690  34.3459400 118.2484560   4.2078600  51.1085620
 117.4830230   4.7763600  51.0240290 118.4300520   3.9154810  50.2153850
 121.3372970   4.5841830  35.7338380 120.7883070   5.0311130  36.3781120
 121.9592230   4.0791080  36.2576050 117.0048090   3.5432750  37.6303680
 117.4264510   3.3772620  38.4735070 117.1298930   2.7332980  37.1358820
 119.5175730   2.5670360  34.8780780 120.0381390   1.8519380  34.5121930
 120.1644130   3.2056230  35.1781290 124.0653570   3.9898760  50.2015850
 124.4794590   4.1443840  51.0506270 123.1304570   4.1153980  50.3641630
 118.8268800   3.9419240  48.1711780 119.2456910   4.7851970  47.9988020
 117.9077430   4.0791280  47.9418560 123.5020600   2.2272610  48.1312130
 122.9755820   2.7515230  47.5277270 123.8451940   2.8600000  48.7621860
 116.6776220  10.2472250  49.2869510 116.1397310  10.9718310  48.9678210
 116.9310180   9.7702590  48.4966850 119.5338430  11.4823460  49.5456160
 119.4597130  12.3858600  49.8528530 118.6317270  11.1635360  49.5178230
 120.0823760  10.6481970  37.1682520 120.9774550  10.9866940  37.1901280
 120.1141390   9.9261380  36.5406800 113.7219920   6.0209020  35.3969520
 114.1594790   6.5638690  36.0527100 114.2067650   5.1955970  35.4065860
 110.9365720   8.8098050  42.8489780 111.2668730   7.9419110  42.6168420
 111.3656720   9.0156570  43.6794740 115.5327640   7.1407060  40.5091750
 115.2323180   7.0172030  41.4095660 115.4265130   6.2815650  40.1007480
 111.4255930   9.6768640  45.5871410 110.9886920   9.8569440  46.4195560
 111.9933610  10.4343260  45.4453130 111.2580360   2.1888870  41.9460290
 110.6029200   1.9200510  41.3019990 112.0958310   2.0793350  41.4962270
 112.2956290   2.5741440  46.4863630 112.6629330   2.4868840  47.3659650
 111.7267110   1.8107990  46.3870490 113.7108370   7.0874130  51.6483780
 113.6678000   6.7167040  52.5298240 113.8419380   8.0251700  51.7885600
 117.4114400   8.6433720  47.2493500 117.1705760   8.9108280  46.3624020
 118.3517040   8.8139450  47.3044360 113.5496400  10.0336380  48.7681560
 112.9556720   9.9021080  49.5071600 113.5420240   9.1974520  48.3023660
 113.1808630   7.3994760  47.7189600 112.4542690   6.7800050  47.6515550
 113.2417780   7.7935370  46.8487680 116.7853730   9.6139760  44.5039010
 117.3018750   9.0027120  43.9787270 117.4351110  10.1168540  44.9950020
 119.5249230  10.5048250  45.3307990 119.8127040  10.2502550  44.4541000
 120.0372450   9.9525610  45.9213560 111.4638630  10.7169150  40.9286360
 111.2960670  10.0839830  41.6268250 110.5973140  10.9228550  40.5780550
 113.0701330   9.4102380  38.3736500 112.5448950   9.7910410  37.6698460
 112.9945910  10.0353150  39.0946210 119.5921590  11.4264350  52.6976190
 120.5188900  11.1908620  52.7412150 119.5772020  12.2536350  52.2162220
 115.6694300  11.3584760  37.2485750 116.4013120  11.0744040  36.7009640
 115.9287970  11.1198040  38.1385130 114.8309090   7.4749490  37.2532080
 114.2017970   7.9434590  37.8017910 114.9456920   6.6298710  37.6878270
 120.4176850   3.3034170  25.2842550 119.6418950   2.8234610  25.5741120
 121.0689780   2.6239820  25.1098710 114.4342680   3.6153980  26.1618310
 113.6027560   3.3602690  26.5614820 115.0423660   3.6864750  26.8976230
 124.4384280   7.7094360  24.0641680 123.9765810   6.9381600  24.3928850
 125.2509830   7.7360430  24.5694130 114.4143940   7.6494070  26.3576330
 114.7171980   6.7591810  26.1786550 115.1587530   8.2064290  26.1298580
 120.6647590   9.9952370  23.6845670 120.0459030  10.4509870  23.1140110
 121.5199370  10.1503830  23.2835370 119.8585840   5.9791360  25.2912710
 119.7894120   5.0381300  25.1301840 120.6205700   6.0692770  25.8635280
 121.5310940   4.8791610  21.0777580 120.9128210   5.3441060  20.5140300
 122.0434190   5.5719090  21.4947090 116.3942700   4.4067480  27.7561180
 116.0612080   5.0336400  28.3982250 116.5709380   4.9329360  26.9762850
 115.6061800   6.3748280  29.5710360 116.2235800   7.0499360  29.2894810
 114.7454920   6.7836260  29.4797860 110.8994140   5.5648140  18.4517210
 110.5222120   6.0535240  17.7202110 111.1567210   6.2373420  19.0823740
 124.0598130   9.6831820  26.2010180 124.0725290   9.2794110  25.3332440
 123.5073350  10.4579110  26.0971610 123.4583570   4.5861660  27.5292790
 123.8752360   4.3721770  26.6946250 124.1823390   4.8434450  28.1001410
 120.8963830   2.0313360  20.6462840 119.9693110   1.9650740  20.8751310
 121.0488650   2.9693490  20.5318080 124.9261120   3.5933660  21.1498090
 124.3073540   3.2553210  20.5024390 124.9085570   2.9493420  21.8577280
 116.5020470   2.5578100  23.4282570 116.0977470   1.8455350  22.9328470
 116.5883590   2.2131340  24.3170610 116.9702170   6.2445660  25.5921780
 116.6730460   5.6391130  24.9129560 117.9201990   6.2822970  25.4811140
 125.0587780   9.8177530  29.2544880 124.5818340  10.6249720  29.0617490
 124.3749570   9.1655860  29.4071090 116.0620600   5.9827350  32.2429580
 115.1649130   6.2067320  32.4902980 116.0873470   6.1062290  31.2940980
 123.1025820   2.8320470  18.1570840 123.5419100   1.9942900  18.0108660
 123.8154240   3.4649870  18.2434980 114.8891820   2.8540670  30.8186950
 114.7499590   3.7263470  31.1874350 114.0073180   2.5113480  30.6734890
 121.2121200   7.7716540  22.1252080 121.6517110   8.5140870  21.7107470
 121.1508090   8.0143110  23.0491040 116.6872170   8.7962370  33.0272100
 116.6587600   9.2005320  32.1600530 116.5237140   7.8672730  32.8643700
 110.8410470   4.6238220  26.7357860 110.9190890   4.7586990  25.7913580
 111.4552150   3.9154110  26.9285980 112.0858100   6.3238410  23.1464040
 111.6786180   6.4653000  22.2917640 112.9771110   6.0398570  22.9435250
 121.9036980  10.4730320  30.0531090 122.4181650  10.3838330  30.8553520
 121.0606060  10.8190020  30.3459000 123.8791380  10.7585660  19.4815090
 123.7192520  10.4688600  20.3796920 123.7138090   9.9825790  18.9460320
 116.3579760  10.5384190  21.2586710 116.1822240   9.6219730  21.0454510
 115.5035500  10.8971480  21.4984510 123.5817510   8.2673220  18.0413090
 122.8882670   8.2650510  17.3815370 124.3240370   7.8432540  17.6107260
 123.1467440   9.8935930  22.1161580 123.6024390   9.1125310  22.4300200
 123.4859960  10.6042750  22.6602760 110.8969990   5.6652390  29.2752320
 111.0601030   5.1957750  28.4571690 111.3622440   5.1575950  29.9401160
 112.4708970   5.0403820  31.4348130 112.0863760   4.3997490  32.0331090
 112.7821160   5.7439940  32.0042860 114.9387270   5.1349990  19.8307810
 114.1649530   4.5947610  19.6706530 115.6681900   4.6156600  19.4925570
 121.0794050   4.2024410  31.5103200 121.0131360   3.2820080  31.2560790
 120.4499190   4.2999850  32.2247840 114.9824670   4.8030370  23.4686620
 115.5003340   3.9998630  23.4143510 114.5308690   4.7409510  24.3103450
 119.8694170   6.0696650  18.7413920 120.2109870   6.8138880  18.2457240
 119.0406880   6.3827770  19.1038750 115.6682330   2.2275980  33.2651870
 115.3682470   2.3733160  32.3679690 116.4393570   1.6681270  33.1725260
 121.0110780   7.0244980  31.2607000 121.0255320   6.0925940  31.0425910
 120.3035880   7.1104740  31.8996770 122.7521580   5.3912490  24.1059430
 123.1045400   4.7940620  23.4460800 121.8683910   5.0656720  24.2767680
 118.8384860   6.1510180  21.5129840 119.5255990   6.6979390  21.8937430
 118.0517280   6.6950910  21.5479450 110.9777260   1.7683000  17.0046920
 111.8472110   2.0507800  17.2882840 110.4867580   2.5818870  16.8895730
 118.1412070   3.1556210  21.1255200 118.5974850   3.9661460  21.3515390
 117.7900280   2.8379350  21.9573690 120.4444680   8.6662550  28.3547500
 121.0886900   8.8721930  29.0320920 120.8074120   7.9050950  27.9018350
 121.7176760   6.6694900  27.0724950 122.3598990   5.9688060  27.1857120
 122.2426110   7.4493340  26.8921840 123.4914380   7.4689800  30.2761010
 123.8270620   8.0556490  30.9538930 122.5714720   7.3382510  30.5058800
 111.3448510  10.9810380  17.5708550 111.7046150  11.5799720  16.9165820
 111.2040850  11.5270270  18.3443580 111.3290370   9.2465240  32.0450950
 111.4381490   8.3059980  31.9046340 110.6770930   9.5119990  31.3964680
 119.3202960   7.5181130  33.4449070 118.9999830   6.7990370  33.9894760
 118.6461320   8.1936200  33.5185130 117.3617130   8.3641580  18.3882220
 117.3527230   9.0971270  17.7726730 116.4415490   8.1173160  18.4809180
 112.9623770   3.5856470  19.1328980 112.3551720   4.3255370  19.1424280
 113.4373120   3.6755830  18.3067180 120.3476730   8.4269820  17.0507410
 120.4488710   8.2233810  16.1209390 119.4478470   8.1728100  17.2555190
 118.9894840  10.9456140  21.7455080 119.2436340  10.9077530  20.8234450
 118.0407320  10.8189470  21.7383330 114.9729060   3.5467620  16.8817550
 115.7392330   3.4348980  17.4442980 115.0503750   2.8505590  16.2294320
 114.4690530  11.1288080  24.6684980 115.2053010  10.5803540  24.9393550
 114.8531450  11.9944090  24.5290970 111.3536010   7.1961650  20.5426490
 110.4275790   7.4382790  20.5331900 111.8192440   8.0235910  20.4211240
 113.4748810  10.3134150  33.8570560 114.2761540  10.6346200  34.2705960
 112.9600630   9.9529730  34.5790470 117.5792840  10.3018390  16.4910550
 118.3721450  10.5907220  16.0392340 117.0597190   9.8710560  15.8123030
 122.3113440   6.4214020  33.8045970 121.7051600   6.4445620  33.0641720
 122.0067550   5.6897060  34.3413220 123.7413810  10.1494310  32.4155380
 124.6935560  10.0652330  32.3655620 123.5942030  10.8136020  33.0889170
 111.1946620   2.8007610  32.8006610 111.6985640   2.2214890  33.3722840
 110.4554040   3.0847840  33.3382980 118.0970240   5.5221800  16.3552900
 117.9920880   4.9074150  17.0814280 117.9294460   4.9987690  15.5715910
 118.2484560   4.2078600  32.3342130 117.4830230   4.7763600  32.2496800
 118.4300520   3.9154810  31.4410360 121.3372970   4.5841830  16.9594890
 120.7883070   5.0311130  17.6037630 121.9592230   4.0791080  17.4832560
 117.0048090   3.5432750  18.8560190 117.4264510   3.3772620  19.6991580
 117.1298930   2.7332980  18.3615330 119.5175730   2.5670360  16.1037290
 120.0381390   1.8519380  15.7378440 120.1644130   3.2056230  16.4037800
 124.0653570   3.9898760  31.4272360 124.4794590   4.1443840  32.2762780
 123.1304570   4.1153980  31.5898140 118.8268800   3.9419240  29.3968290
 119.2456910   4.7851970  29.2244530 117.9077430   4.0791280  29.1675070
 123.5020600   2.2272610  29.3568640 122.9755820   2.7515230  28.7533780
 123.8451940   2.8600000  29.9878370 116.6776220  10.2472250  30.5126020
 116.1397310  10.9718310  30.1934720 116.9310180   9.7702590  29.7223360
 119.5338430  11.4823460  30.7712670 119.4597130  12.3858600  31.0785040
 118.6317270  11.1635360  30.7434740 120.0823760  10.6481970  18.3939030
 120.9774550  10.9866940  18.4157790 120.1141390   9.9261380  17.7663310
 113.7219920   6.0209020  16.6226030 114.1594790   6.5638690  17.2783610
 114.2067650   5.1955970  16.6322370 110.9365720   8.8098050  24.0746290
 111.2668730   7.9419110  23.8424930 111.3656720   9.0156570  24.9051250
 115.5327640   7.1407060  21.7348260 115.2323180   7.0172030  22.6352170
 115.4265130   6.2815650  21.3263990 111.4255930   9.6768640  26.8127920
 110.9886920   9.8569440  27.6452070 111.9933610  10.4343260  26.6709640
 111.2580360   2.1888870  23.1716800 110.6029200   1.9200510  22.5276500
 112.0958310   2.0793350  22.7218780 112.2956290   2.5741440  27.7120140
 112.6629330   2.4868840  28.5916160 111.7267110   1.8107990  27.6127000
 113.7108370   7.0874130  32.8740290 113.6678000   6.7167040  33.7554750
 113.8419380   8.0251700  33.0142110 117.4114400   8.6433720  28.4750010
 117.1705760   8.9108280  27.5880530 118.3517040   8.8139450  28.5300870
 113.5496400  10.0336380  29.9938070 112.9556720   9.9021080  30.7328110
 113.5420240   9.1974520  29.5280170 113.1808630   7.3994760  28.9446110
 112.4542690   6.7800050  28.8772060 113.2417780   7.7935370  28.0744190
 116.7853730   9.6139760  25.7295520 117.3018750   9.0027120  25.2043780
 117.4351110  10.1168540  26.2206530 119.5249230  10.5048250  26.5564500
 119.8127040  10.2502550  25.6797510 120.0372450   9.9525610  27.1470070
 111.4638630  10.7169150  22.1542870 111.2960670  10.0839830  22.8524760
 110.5973140  10.9228550  21.8037060 113.0701330   9.4102380  19.5993010
 112.5448950   9.7910410  18.8954970 112.9945910  10.0353150  20.3202720
 119.5921590  11.4264350  33.9232700 120.5188900  11.1908620  33.9668660
 119.5772020  12.2536350  33.4418730 115.6694300  11.3584760  18.4742260
 116.4013120  11.0744040  17.9266150 115.9287970  11.1198040  19.3641640
 114.8309090   7.4749490  18.4788590 114.2017970   7.9434590  19.0274420
 114.9456920   6.6298710  18.9134780 120.4176850   3.3034170   6.5099060
 119.6418950   2.8234610   6.7997630 121.0689780   2.6239820   6.3355220
 114.4342680   3.6153980   7.3874820 113.6027560   3.3602690   7.7871330
 115.0423660   3.6864750   8.1232740 124.4384280   7.7094360   5.2898190
 123.9765810   6.9381600   5.6185360 125.2509830   7.7360430   5.7950640
 114.4143940   7.6494070   7.5832840 114.7171980   6.7591810   7.4043060
 115.1587530   8.2064290   7.3555090 120.6647590   9.9952370   4.9102180
 120.0459030  10.4509870   4.3396620 121.5199370  10.1503830   4.5091880
 119.8585840   5.9791360   6.5169220 119.7894120   5.0381300   6.3558350
 120.6205700   6.0692770   7.0891790 121.5310940   4.8791610   2.3034090
 120.9128210   5.3441060   1.7396810 122.0434190   5.5719090   2.7203600
 116.3942700   4.4067480   8.9817690 116.0612080   5.0336400   9.6238760
 116.5709380   4.9329360   8.2019360 115.6061800   6.3748280  10.7966870
 116.2235800   7.0499360  10.5151320 114.7454920   6.7836260  10.7054370
 124.0598130   9.6831820   7.4266690 124.0725290   9.2794110   6.5588950
 123.5073350  10.4579110   7.3228120 123.4583570   4.5861660   8.7549300
 123.8752360   4.3721770   7.9202760 124.1823390   4.8434450   9.3257920
 120.8963830   2.0313360   1.8719350 119.9693110   1.9650740   2.1007820
 121.0488650   2.9693490   1.7574590 124.9261120   3.5933660   2.3754600
 124.3073540   3.2553210   1.7280900 124.9085570   2.9493420   3.0833790
 116.5020470   2.5578100   4.6539080 116.0977470   1.8455350   4.1584980
 116.5883590   2.2131340   5.5427120 116.9702170   6.2445660   6.8178290
 116.6730460   5.6391130   6.1386070 117.9201990   6.2822970   6.7067650
 125.0587780   9.8177530  10.4801390 124.5818340  10.6249720  10.2874000
 124.3749570   9.1655860  10.6327600 116.0620600   5.9827350  13.4686090
 115.1649130   6.2067320  13.7159490 116.0873470   6.1062290  12.5197490
 114.8891820   2.8540670  12.0443460 114.7499590   3.7263470  12.4130860
 114.0073180   2.5113480  11.8991400 121.2121200   7.7716540   3.3508590
 121.6517110   8.5140870   2.9363980 121.1508090   8.0143110   4.2747550
 116.6872170   8.7962370  14.2528610 116.6587600   9.2005320  13.3857040
 116.5237140   7.8672730  14.0900210 110.8410470   4.6238220   7.9614370
 110.9190890   4.7586990   7.0170090 111.4552150   3.9154110   8.1542490
 112.0858100   6.3238410   4.3720550 111.6786180   6.4653000   3.5174150
 112.9771110   6.0398570   4.1691760 121.9036980  10.4730320  11.2787600
 122.4181650  10.3838330  12.0810030 121.0606060  10.8190020  11.5715510
 116.3579760  10.5384190   2.4843220 116.1822240   9.6219730   2.2711020
 115.5035500  10.8971480   2.7241020 123.1467440   9.8935930   3.3418090
 123.6024390   9.1125310   3.6556710 123.4859960  10.6042750   3.8859270
 110.8969990   5.6652390  10.5008830 111.0601030   5.1957750   9.6828200
 111.3622440   5.1575950  11.1657670 112.4708970   5.0403820  12.6604640
 112.0863760   4.3997490  13.2587600 112.7821160   5.7439940  13.2299370
 121.0794050   4.2024410  12.7359710 121.0131360   3.2820080  12.4817300
 120.4499190   4.2999850  13.4504350 114.9824670   4.8030370   4.6943130
 115.5003340   3.9998630   4.6400020 114.5308690   4.7409510   5.5359960
 115.6682330   2.2275980  14.4908380 115.3682470   2.3733160  13.5936200
 116.4393570   1.6681270  14.3981770 121.0110780   7.0244980  12.4863510
 121.0255320   6.0925940  12.2682420 120.3035880   7.1104740  13.1253280
 122.7521580   5.3912490   5.3315940 123.1045400   4.7940620   4.6717310
 121.8683910   5.0656720   5.5024190 118.8384860   6.1510180   2.7386350
 119.5255990   6.6979390   3.1193940 118.0517280   6.6950910   2.7735960
 118.1412070   3.1556210   2.3511710 118.5974850   3.9661460   2.5771900
 117.7900280   2.8379350   3.1830200 120.4444680   8.6662550   9.5804010
 121.0886900   8.8721930  10.2577430 120.8074120   7.9050950   9.1274860
 121.7176760   6.6694900   8.2981460 122.3598990   5.9688060   8.4113630
 122.2426110   7.4493340   8.1178350 123.4914380   7.4689800  11.5017520
 123.8270620   8.0556490  12.1795440 122.5714720   7.3382510  11.7315310
 111.3290370   9.2465240  13.2707460 111.4381490   8.3059980  13.1302850
 110.6770930   9.5119990  12.6221190 119.3202960   7.5181130  14.6705580
 118.9999830   6.7990370  15.2151270 118.6461320   8.1936200  14.7441640
 118.9894840  10.9456140   2.9711590 119.2436340  10.9077530   2.0490960
 118.0407320  10.8189470   2.9639840 114.4690530  11.1288080   5.8941490
 115.2053010  10.5803540   6.1650060 114.8531450  11.9944090   5.7547480
 111.3536010   7.1961650   1.7683000 110.4275790   7.4382790   1.7588410
 111.8192440   8.0235910   1.6467750 113.4748810  10.3134150  15.0827070
 114.2761540  10.6346200  15.4962470 112.9600630   9.9529730  15.8046980
 122.3113440   6.4214020  15.0302480 121.7051600   6.4445620  14.2898230
 122.0067550   5.6897060  15.5669730 123.7413810  10.1494310  13.6411890
 124.6935560  10.0652330  13.5912130 123.5942030  10.8136020  14.3145680
 111.1946620   2.8007610  14.0263120 111.6985640   2.2214890  14.5979350
 110.4554040   3.0847840  14.5639490 118.2484560   4.2078600  13.5598640
 117.4830230   4.7763600  13.4753310 118.4300520   3.9154810  12.6666870
 124.0653570   3.9898760  12.6528870 124.4794590   4.1443840  13.5019290
 123.1304570   4.1153980  12.8154650 118.8268800   3.9419240  10.6224800
 119.2456910   4.7851970  10.4501040 117.9077430   4.0791280  10.3931580
 123.5020600   2.2272610  10.5825150 122.9755820   2.7515230   9.9790290
 123.8451940   2.8600000  11.2134880 116.6776220  10.2472250  11.7382530
 116.1397310  10.9718310  11.4191230 116.9310180   9.7702590  10.9479870
 119.5338430  11.4823460  11.9969180 119.4597130  12.3858600  12.3041550
 118.6317270  11.1635360  11.9691250 110.9365720   8.8098050   5.3002800
 111.2668730   7.9419110   5.0681440 111.3656720   9.0156570   6.1307760
 115.5327640   7.1407060   2.9604770 115.2323180   7.0172030   3.8608680
 115.4265130   6.2815650   2.5520500 111.4255930   9.6768640   8.0384430
 110.9886920   9.8569440   8.8708580 111.9933610  10.4343260   7.8966150
 111.2580360   2.1888870   4.3973310 110.6029200   1.9200510   3.7533010
 112.0958310   2.0793350   3.9475290 112.2956290   2.5741440   8.9376650
 112.6629330   2.4868840   9.8172670 111.7267110   1.8107990   8.8383510
 113.7108370   7.0874130  14.0996800 113.6678000   6.7167040  14.9811260
 113.8419380   8.0251700  14.2398620 117.4114400   8.6433720   9.7006520
 117.1705760   8.9108280   8.8137040 118.3517040   8.8139450   9.7557380
 113.5496400  10.0336380  11.2194580 112.9556720   9.9021080  11.9584620
 113.5420240   9.1974520  10.7536680 113.1808630   7.3994760  10.1702620
 112.4542690   6.7800050  10.1028570 113.2417780   7.7935370   9.3000700
 116.7853730   9.6139760   6.9552030 117.3018750   9.0027120   6.4300290
 117.4351110  10.1168540   7.4463040 119.5249230  10.5048250   7.7821010
 119.8127040  10.2502550   6.9054020 120.0372450   9.9525610   8.3726580
 111.4638630  10.7169150   3.3799380 111.2960670  10.0839830   4.0781270
 110.5973140  10.9228550   3.0293570 119.5921590  11.4264350  15.1489210
 120.5188900  11.1908620  15.1925170 119.5772020  12.2536350  14.6675240
 103.5115320  95.3972600  98.5007240 103.4309370  94.4827210  98.2298950
 103.0979740  95.8939670  97.7946950  94.0691140  92.4473320  95.0434660
  93.1807840  92.7889290  94.9414540  94.3532330  92.2473640  94.1515490
  92.0324150  95.0478970 100.9274360  92.6040260  94.2801170 100.9278000
  92.0325690  95.3467730 100.0180970  93.2749020  90.4563330 102.7143290
  93.0951860  89.5589080 102.9946050  92.8729100  91.0035200 103.3890240
 102.1147520  92.6579190 100.6155600 102.4912340  91.7851070 100.5029270
 102.0167030  92.9937890  99.7246040  96.2452530  91.0304820  96.0773040
  96.3519280  91.9308550  96.3841800  95.3344890  90.9822790  95.7867690
 105.8971640  90.1529630  97.5483940 106.7181260  89.6626200  97.5909420
 105.9305720  90.7427290  98.3015780  93.8935690  92.9523830 101.3225630
  94.5745800  93.2162200 101.9413030  93.5783740  92.1124700 101.6563640
  98.0860260  93.9991190 100.4098220  98.5938480  94.4972160 101.0503240
  98.6173500  93.2226390 100.2337580 110.1871190  92.1696380 104.1127570
 109.4823360  92.5578090 103.5942680 110.4529110  92.8646670 104.7148500
  96.3696360  88.6389750 104.6761640  96.3714800  89.1562140 103.8707540
  95.5400670  88.1619930 104.6531570 106.1333120  92.0930010 100.3211480
 105.4288690  92.3814900 100.9014590 106.4945280  92.9030120  99.9611040
  96.0511690  90.3499710 102.6832090  96.3928500  91.1941760 102.3885960
  95.1127500  90.4983450 102.7997430 109.2020040  91.5384800 100.7120690
 108.2544950  91.5723780 100.8436120 109.5270030  92.3523750 101.0970050
  99.7339580  87.8381980  99.0076680 100.0414560  87.2828870  98.2912180
  98.8040280  87.9726440  98.8249670 102.1220340  95.9030810  95.7436800
 101.1949620  95.8368190  95.9725270 102.2745160  96.8410940  95.6292040
 102.1089420  92.1747810  92.7403960 101.1693090  92.3361770  92.8256420
 102.4272680  92.8933490  92.1939950 105.5944190  93.6435650 103.6637860
 105.1815370  94.4689360 103.9177850 104.8620140  93.0580690 103.4714220
  97.7276980  96.4295550  98.5256530  97.3233980  95.7172800  98.0302430
  97.8140100  96.0848790  99.4144570  96.4405600  93.2038760 102.3055570
  96.9920190  93.3134100 101.5308820  96.9549110  93.5776360 103.0210800
 107.9099470  87.9580730  91.5685840 107.5972130  88.0507560  92.4684910
 108.6711940  88.5361760  91.5183270  94.4281610  95.3240530  96.0263180
  94.3079210  96.0502620  95.4144450  94.1182500  94.5543440  95.5491090
  96.8945270  88.6675600  99.4086850  96.4513420  89.4485140  99.0771370
  97.4530260  88.9905490 100.1157790 100.0104090  88.2886300  94.2892680
  99.3858270  88.2846170  95.0145990  99.9234210  87.4217260  93.8928650
  98.9321170  89.2122930 101.2676450  99.2293500  90.1185760 101.1868470
  99.4806730  88.7241710 100.6536020  96.6859490  93.7909170  97.1368100
  96.4600410  93.5746340  98.0414720  95.9052020  94.2237630  96.7914070
 103.9157250  93.7972540  95.7358750 103.3166140  94.5208340  95.5522370
 104.4636860  93.7349320  94.9535200 102.5222120  92.4336080  97.7662030
 102.9151690  92.7508280  96.9530720 102.8838970  91.5547960  97.8806550
  91.5586290  89.0236880  99.9892230  91.2699340  89.5939740 100.7017210
  92.3032050  88.5441330 100.3523460  91.7456520  92.9657000  91.1994950
  91.6631190  93.9087760  91.3409940  91.3939580  92.8231910  90.3207300
 103.1077260  95.0241830 101.8612810 102.3758380  95.5328640 102.2102910
 102.7101600  94.2071810 101.5601590  99.5454650  91.6996030 100.2665300
  99.5490710  91.2585980  99.4169840 100.4405770  92.0213360 100.3737120
  95.3957030  91.5822520  99.2259510  95.0557080  92.0597750  99.9826560
  94.6334350  91.1287640  98.8660610  99.6074800  92.7008110  93.2572060
  99.7287620  92.6594590  94.2057880  99.2223310  93.5632260  93.1018790
 103.5703170  90.4775510 101.2735750 103.5875910  90.9284160 102.1177600
 103.3218750  89.5781150 101.4869190  98.6196300  95.0109250  92.6555360
  98.0513200  94.5627500  92.0291270  99.3285300  95.3702030  92.1220510
  99.8462620  95.7597810 102.0130710 100.2132750  95.2856380 102.7592050
  99.6567680  96.6339380 102.3539050  92.7103110  90.5041500  98.1424180
  92.4250030  90.1397170  98.9802800  92.6481970  89.7721960  97.5287320
  97.6361990  94.8006450 104.3314920  97.3319060  95.6798430 104.5565280
  98.5908450  94.8606240 104.3672360 102.3841700  89.3970760  94.8637550
 101.5706310  88.8983930  94.7882860 102.1903650  90.2369010  94.4473900
 105.0990090  93.7690410  93.1599710 105.9869710  94.0807640  92.9851050
 105.0695180  92.8962660  92.7680290 107.3704360  95.0802250  92.6279570
 107.2868080  95.5116470  91.7776010 108.0898550  95.5400600  93.0606390
  92.2033770  95.6400450  92.1020880  93.0728620  95.9225250  92.3856800
  91.7124090  96.4536320  91.9869690  95.2680360  87.3711310  96.6951680
  95.1394990  87.3629210  97.6436600  94.4442380  87.7094400  96.3442690
 103.7613070  91.6224740 103.9059830 104.1293890  90.8019950 104.2339400
 102.9011270  91.6826630 104.3215480 107.1275100  90.5781680  94.7147390
 106.4988260  90.6827350  94.0005620 106.6327020  90.7978460  95.5041270
  99.0959130  92.8567630  96.1305270  98.3875280  93.3253970  96.5718880
  99.3803610  92.1989640  96.7650460 100.7215060  94.2764330 104.1297800
 101.2200310  94.7510150 104.7949650 100.8638010  93.3527850 104.3367830
 103.1274560  89.5818290  97.5701060 103.0042340  89.6004420  96.6210570
 104.0759120  89.6297230  97.6899460  97.2994150  91.1652710  93.5055980
  98.1484680  91.6022860  93.4396170  96.9325420  91.4772970  94.3328040
 106.2203930  95.7365470  98.4187550 105.2794070  95.7515700  98.5935240
 106.5348000  94.9501430  98.8647850  94.8932330  94.8510140  92.6624400
  94.9735920  93.9037650  92.7741800  95.7852080  95.1817020  92.7685060
  99.6465760  88.9182360 103.8729810  99.1983060  88.9406620 103.0275360
  99.0130960  88.5201380 104.4700110  97.1263500  93.4883430  90.8992310
  96.9252560  92.6250790  91.2605650  96.9555550  93.4016790  89.9613910
 104.6051810  88.2991660  93.4279190 104.8854100  87.4559560  93.7838610
 103.8317540  88.5314770  93.9417940  95.9246300  90.5884050  90.8870190
  96.2272200  90.5951480  89.9789340  96.6640890  90.2381910  91.3837850
  99.1431230  89.5318670  91.8726390  98.7953230  88.8542660  91.2928840
  99.3444000  89.0708180  92.6869780  92.4836870  96.0606320  98.2690760
  91.8285710  95.7917960  97.6250460  93.3214820  95.9510800  97.8192740
 105.4327310  90.8547610  92.4909250 105.8512190  90.6678590  91.6505910
 105.1263370  90.0026660  92.8012180 108.9317040  95.7671750  96.1885050
 108.5560640  94.9999680  95.7566340 108.2020160  96.1494450  96.6759980
  93.5212800  96.4458890 102.8094100  93.8885840  96.3586290 103.6890120
  92.9523620  95.6825440 102.7100960  91.6974950  93.2705250  94.2116090
  90.7939030  93.5335450  94.0367750  92.1815570  93.5416420  93.4316050
 108.2068000  93.9929240  99.4892290 108.7305480  93.4991890  98.8582460
 108.7927420  94.1279600 100.2339860 108.3857720  94.0769110 103.0111840
 107.4360430  94.0432650 103.1256830 108.5670730  94.9869220 102.7761610
  94.2402160  92.3270790  92.1210470  94.9493860  91.9054010  91.6357750
  93.5242100  92.3946020  91.4893820  93.8876320  88.3810120  91.1613120
  94.6104450  88.9219060  91.4794340  94.1600840  88.1073540  90.2854660
 107.6967970  93.2502590  95.4284700 108.1927090  93.0173460  96.2133580
 107.4984040  92.4114430  95.0122340  93.5768510  87.6316310 101.0635740
  94.2244700  87.0813690 100.6230900  93.9970350  87.8859460 101.8851550
 109.1255130  91.8863540  97.9622380 109.0154410  91.7319580  98.9004650
 109.8862720  91.3584480  97.7197790 107.4720850  87.8257670 104.4205380
 108.1093070  88.4391810 104.7864570 107.6195740  87.8618330 103.4754610
 110.0145400  89.7171460  91.2028520 110.9394710  89.5852640  90.9946810
 109.9921190  89.7964280  92.1564970 110.0883890  90.4882120  93.8285230
 109.2935390  90.4227240  94.3578140 110.2927170  91.4232760  93.8170580
  93.3300510  87.7871980 103.8061060  92.9815330  88.2435800 104.5719240
  92.9988210  86.8929110 103.8883490 104.2207930  87.1986060 103.2942060
 103.3467770  87.5321170 103.0914990 104.1118680  86.7259240 104.1193930
 105.1279910  89.4056930 104.6783780 104.7993270  88.5908690 104.2985510
 106.0762210  89.3626740 104.5549470 101.9682750  88.1155900 102.2334970
 101.1854540  88.5901400 102.5131730 101.6745680  87.2110730 102.1248150
 106.5203820  88.8179000 100.2784060 106.9611910  88.7624100  99.4305660
 106.2511410  89.7337010 100.3494240 108.3842390  88.4494240  98.2892880
 108.3230790  87.5055460  98.1423900 109.1634420  88.5574330  98.8346340
  93.3123160  88.4203380  94.7548690  94.0702520  88.5332260  94.1812720
  92.8500330  89.2572580  94.7092120  99.8536970  90.5342650  97.7451000
  99.0411480  90.1599540  97.4046880 100.3578610  89.7787730  98.0472190
 104.3561950  87.1985100  98.9834070 104.9591320  87.7705310  99.4582590
 103.6154940  87.7624540  98.7607970 107.4996550  87.6006660  94.2574350
 107.6947180  88.4990110  94.5241780 106.7126420  87.3693740  94.7507300
  95.6848310  88.9467430  93.2950660  96.2141070  88.1597230  93.1658610
  96.3176630  89.6258620  93.5286190  97.8786150  88.6842570  96.3496050
  97.2488890  87.9829880  96.5166180  97.3391290  89.4446700  96.1329210
 103.5115320  95.3972600  79.7263750 103.4309370  94.4827210  79.4555460
 103.0979740  95.8939670  79.0203460  94.0691140  92.4473320  76.2691170
  93.1807840  92.7889290  76.1671050  94.3532330  92.2473640  75.3772000
  92.0324150  95.0478970  82.1530870  92.6040260  94.2801170  82.1534510
  92.0325690  95.3467730  81.2437480  93.2749020  90.4563330  83.9399800
  93.0951860  89.5589080  84.2202560  92.8729100  91.0035200  84.6146750
 102.1147520  92.6579190  81.8412110 102.4912340  91.7851070  81.7285780
 102.0167030  92.9937890  80.9502550  96.2452530  91.0304820  77.3029550
  96.3519280  91.9308550  77.6098310  95.3344890  90.9822790  77.0124200
 105.8971640  90.1529630  78.7740450 106.7181260  89.6626200  78.8165930
 105.9305720  90.7427290  79.5272290  93.8935690  92.9523830  82.5482140
  94.5745800  93.2162200  83.1669540  93.5783740  92.1124700  82.8820150
  98.0860260  93.9991190  81.6354730  98.5938480  94.4972160  82.2759750
  98.6173500  93.2226390  81.4594090 110.1871190  92.1696380  85.3384080
 109.4823360  92.5578090  84.8199190 110.4529110  92.8646670  85.9405010
  96.3696360  88.6389750  85.9018150  96.3714800  89.1562140  85.0964050
  95.5400670  88.1619930  85.8788080 106.1333120  92.0930010  81.5467990
 105.4288690  92.3814900  82.1271100 106.4945280  92.9030120  81.1867550
  96.0511690  90.3499710  83.9088600  96.3928500  91.1941760  83.6142470
  95.1127500  90.4983450  84.0253940 109.2020040  91.5384800  81.9377200
 108.2544950  91.5723780  82.0692630 109.5270030  92.3523750  82.3226560
  99.7339580  87.8381980  80.2333190 100.0414560  87.2828870  79.5168690
  98.8040280  87.9726440  80.0506180 102.1220340  95.9030810  76.9693310
 101.1949620  95.8368190  77.1981780 102.2745160  96.8410940  76.8548550
 102.1089420  92.1747810  73.9660470 101.1693090  92.3361770  74.0512930
 102.4272680  92.8933490  73.4196460 105.5944190  93.6435650  84.8894370
 105.1815370  94.4689360  85.1434360 104.8620140  93.0580690  84.6970730
  97.7276980  96.4295550  79.7513040  97.3233980  95.7172800  79.2558940
  97.8140100  96.0848790  80.6401080  96.4405600  93.2038760  83.5312080
  96.9920190  93.3134100  82.7565330  96.9549110  93.5776360  84.2467310
 107.9099470  87.9580730  72.7942350 107.5972130  88.0507560  73.6941420
 108.6711940  88.5361760  72.7439780  94.4281610  95.3240530  77.2519690
  94.3079210  96.0502620  76.6400960  94.1182500  94.5543440  76.7747600
 109.1200760  92.6952230  88.7716490 108.5045030  93.2031900  88.2431950
 108.7997180  91.7950560  88.7142430  96.8945270  88.6675600  80.6343360
  96.4513420  89.4485140  80.3027880  97.4530260  88.9905490  81.3414300
 101.1815080  91.5344120  86.2378680 100.7194450  91.7427140  87.0498620
 100.7793190  90.7203470  85.9349350 106.1819590  92.7553070  87.3675340
 105.3313180  92.4558820  87.6884410 106.0221380  92.9995080  86.4559160
 103.2769300  94.2554820  89.4674130 103.6022710  93.4218570  89.1276360
 104.0649630  94.7783340  89.6152460 100.0104090  88.2886300  75.5149190
  99.3858270  88.2846170  76.2402500  99.9234210  87.4217260  75.1185160
  98.9321170  89.2122930  82.4932960  99.2293500  90.1185760  82.4124980
  99.4806730  88.7241710  81.8792530  96.6859490  93.7909170  78.3624610
  96.4600410  93.5746340  79.2671230  95.9052020  94.2237630  78.0170580
 103.9157250  93.7972540  76.9615260 103.3166140  94.5208340  76.7778880
 104.4636860  93.7349320  76.1791710  99.1258700  94.6894750  89.0284880
  99.0302300  93.7489480  88.8785280  99.9690680  94.9109820  88.6332950
 102.5222120  92.4336080  78.9918540 102.9151690  92.7508280  78.1787230
 102.8838970  91.5547960  79.1063060  94.2569240  91.1008420  87.1818660
  93.8632630  91.9483630  87.3891440  93.5687640  90.4634790  87.3727300
 100.8314290  91.1843390  90.2515400 100.1412610  90.9915590  90.8861490
 101.5746590  91.4678030  90.7839700  91.5586290  89.0236880  81.2148740
  91.2699340  89.5939740  81.9273720  92.3032050  88.5441330  81.5779970
  91.7456520  92.9657000  72.4251460  91.6631190  93.9087760  72.5666450
  91.3939580  92.8231910  71.5463810 103.1077260  95.0241830  83.0869320
 102.3758380  95.5328640  83.4359420 102.7101600  94.2071810  82.7858100
  99.5454650  91.6996030  81.4921810  99.5490710  91.2585980  80.6426350
 100.4405770  92.0213360  81.5993630  95.3957030  91.5822520  80.4516020
  95.0557080  92.0597750  81.2083070  94.6334350  91.1287640  80.0917120
  99.6074800  92.7008110  74.4828570  99.7287620  92.6594590  75.4314390
  99.2223310  93.5632260  74.3275300 103.5703170  90.4775510  82.4992260
 103.5875910  90.9284160  83.3434110 103.3218750  89.5781150  82.7125700
  98.6196300  95.0109250  73.8811870  98.0513200  94.5627500  73.2547780
  99.3285300  95.3702030  73.3477020 106.9973920  87.8907690  88.3378640
 107.3219690  87.1597350  88.8636620 107.0330430  87.5721330  87.4359630
  99.8462620  95.7597810  83.2387220 100.2132750  95.2856380  83.9848560
  99.6567680  96.6339380  83.5795560  92.7103110  90.5041500  79.3680690
  92.4250030  90.1397170  80.2059310  92.6481970  89.7721960  78.7543830
  97.6361990  94.8006450  85.5571430  97.3319060  95.6798430  85.7821790
  98.5908450  94.8606240  85.5928870 102.3841700  89.3970760  76.0894060
 101.5706310  88.8983930  76.0139370 102.1903650  90.2369010  75.6730410
 105.0990090  93.7690410  74.3856220 105.9869710  94.0807640  74.2107560
 105.0695180  92.8962660  73.9936800  93.6925720  95.6409190  86.7042790
  93.3340660  96.3063040  87.2916130  93.3980280  94.8092740  87.0755410
  96.8938840  96.0993430  89.5882340  96.5938980  96.2450610  88.6910160
  97.6650080  95.5398720  89.4955730 107.3704360  95.0802250  73.8536080
 107.2868080  95.5116470  73.0032520 108.0898550  95.5400600  74.2862900
  92.2033770  95.6400450  73.3277390  93.0728620  95.9225250  73.6113310
  91.7124090  96.4536320  73.2126200  95.2680360  87.3711310  77.9208190
  95.1394990  87.3629210  78.8693110  94.4442380  87.7094400  77.5699200
  92.2674290  89.1302430  87.3814890  91.5532810  89.3299350  87.9867500
  92.6869330  88.3542000  87.7529690 103.7613070  91.6224740  85.1316340
 104.1293890  90.8019950  85.4595910 102.9011270  91.6826630  85.5471990
 107.1275100  90.5781680  75.9403900 106.4988260  90.6827350  75.2262130
 106.6327020  90.7978460  76.7297780  99.0959130  92.8567630  77.3561780
  98.3875280  93.3253970  77.7975390  99.3803610  92.1989640  77.9906970
 100.7215060  94.2764330  85.3554310 101.2200310  94.7510150  86.0206160
 100.8638010  93.3527850  85.5624340 103.1274560  89.5818290  78.7957570
 103.0042340  89.6004420  77.8467080 104.0759120  89.6297230  78.9155970
  97.2994150  91.1652710  74.7312490  98.1484680  91.6022860  74.6652680
  96.9325420  91.4772970  75.5584550 107.9281920  90.4932290  86.1982700
 107.4255520  91.2337690  86.5376510 108.7438580  90.8816290  85.8819490
 106.2203930  95.7365470  79.6444060 105.2794070  95.7515700  79.8191750
 106.5348000  94.9501430  80.0904360  94.8932330  94.8510140  73.8880910
  94.9735920  93.9037650  73.9998310  95.7852080  95.1817020  73.9941570
  92.4203130  96.6725060  89.1237080  92.9242150  96.0932340  89.6953310
  91.6810550  96.9565290  89.6613450  94.4526210  94.8154650  90.0187150
  94.4931550  94.5168520  90.9272380  95.3071710  95.2162260  89.8594670
  96.3932020  93.3946750  87.9861640  95.8628480  92.9037700  87.3584980
  97.0620090  93.8230950  87.4519570 105.7632250  95.2012370  89.7541980
 106.3453020  94.4464690  89.6662460 105.9394020  95.7319810  88.9773460
  96.8804320  90.3609120  88.0658930  96.7861190  89.7429870  87.3409800
  96.3001710  91.0875410  87.8388840  99.6465760  88.9182360  85.0986320
  99.1983060  88.9406620  84.2531870  99.0130960  88.5201380  85.6956620
 102.3889210  95.5452870  87.1036600 102.5085420  94.9494010  87.8431440
 103.2483210  95.5822560  86.6837900 104.7277110  96.0990060  85.6799110
 104.2012330  96.6232680  85.0764250 105.0708450  96.7317450  86.3108840
  97.1263500  93.4883430  72.1248820  96.9252560  92.6250790  72.4862160
  96.9555550  93.4016790  71.1870420  99.1557980  92.0874220  88.3612420
  99.7457670  91.7790070  89.0490240  98.3378220  91.6153970  88.5172320
 103.9751410  91.7040030  88.5945440 103.2866930  91.0421570  88.5295430
 104.6957430  91.2578300  89.0393900 104.6051810  88.2991660  74.6535700
 104.8854100  87.4559560  75.0095120 103.8317540  88.5314770  75.1674450
  95.9246300  90.5884050  72.1126700  96.2272200  90.5951480  71.2045850
  96.6640890  90.2381910  72.6094360  99.1431230  89.5318670  73.0982900
  98.7953230  88.8542660  72.5185350  99.3444000  89.0708180  73.9126290
  92.4836870  96.0606320  79.4947270  91.8285710  95.7917960  78.8506970
  93.3214820  95.9510800  79.0449250 105.4327310  90.8547610  73.7165760
 105.8512190  90.6678590  72.8762420 105.1263370  90.0026660  74.0268690
 108.9317040  95.7671750  77.4141560 108.5560640  94.9999680  76.9822850
 108.2020160  96.1494450  77.9016490  93.5212800  96.4458890  84.0350610
  93.8885840  96.3586290  84.9146630  92.9523620  95.6825440  83.9357470
 108.3216660  94.9143270  87.0481080 108.0902750  94.6856020  86.1479030
 108.5821210  95.8342820  87.0025970  93.0728800  93.3567980  87.9409030
  92.1784850  93.3234740  88.2802740  93.6126350  93.5554770  88.7060280
 106.7604730  90.1399700  89.8260780 107.6374910  90.1483100  90.2094780
 106.7725570  89.4030540  89.2153130  91.6974950  93.2705250  75.4372600
  90.7939030  93.5335450  75.2624260  92.1815570  93.5416420  74.6572560
 108.2068000  93.9929240  80.7148800 108.7305480  93.4991890  80.0838970
 108.7927420  94.1279600  81.4596370 108.3857720  94.0769110  84.2368350
 107.4360430  94.0432650  84.3513340 108.5670730  94.9869220  84.0018120
  94.2402160  92.3270790  73.3466980  94.9493860  91.9054010  72.8614260
  93.5242100  92.3946020  72.7150330  93.8876320  88.3810120  72.3869630
  94.6104450  88.9219060  72.7050850  94.1600840  88.1073540  71.5111170
 107.6967970  93.2502590  76.6541210 108.1927090  93.0173460  77.4390090
 107.4984040  92.4114430  76.2378850  93.5768510  87.6316310  82.2892250
  94.2244700  87.0813690  81.8487410  93.9970350  87.8859460  83.1108060
 109.1255130  91.8863540  79.1878890 109.0154410  91.7319580  80.1261160
 109.8862720  91.3584480  78.9454300 107.4720850  87.8257670  85.6461890
 108.1093070  88.4391810  86.0121080 107.6195740  87.8618330  84.7011120
 110.0145400  89.7171460  72.4285030 110.9394710  89.5852640  72.2203320
 109.9921190  89.7964280  73.3821480 110.0883890  90.4882120  75.0541740
 109.2935390  90.4227240  75.5834650 110.2927170  91.4232760  75.0427090
  93.3300510  87.7871980  85.0317570  92.9815330  88.2435800  85.7975750
  92.9988210  86.8929110  85.1140000 100.8425330  88.9783860  88.5536990
 100.7814220  89.5705690  89.3032400 101.7825710  88.8709820  88.4087250
 103.4799890  88.6353920  88.1929280 104.0940300  88.9533210  87.5310360
 104.0249450  88.1502510  88.8125140  94.0021150  87.3148180  88.3068340
  94.5504140  87.1336230  87.5434450  94.0676460  86.5242290  88.8424650
 104.2207930  87.1986060  84.5198570 103.3467770  87.5321170  84.3171500
 104.1118680  86.7259240  85.3450440 105.1279910  89.4056930  85.9040290
 104.7993270  88.5908690  85.5242020 106.0762210  89.3626740  85.7805980
 101.9682750  88.1155900  83.4591480 101.1854540  88.5901400  83.7388240
 101.6745680  87.2110730  83.3504660 106.5203820  88.8179000  81.5040570
 106.9611910  88.7624100  80.6562170 106.2511410  89.7337010  81.5750750
 108.3842390  88.4494240  79.5149390 108.3230790  87.5055460  79.3680410
 109.1634420  88.5574330  80.0602850  93.3123160  88.4203380  75.9805200
  94.0702520  88.5332260  75.4069230  92.8500330  89.2572580  75.9348630
  99.8536970  90.5342650  78.9707510  99.0411480  90.1599540  78.6303390
 100.3578610  89.7787730  79.2728700 104.3561950  87.1985100  80.2090580
 104.9591320  87.7705310  80.6839100 103.6154940  87.7624540  79.9864480
 107.4996550  87.6006660  75.4830860 107.6947180  88.4990110  75.7498290
 106.7126420  87.3693740  75.9763810  95.6848310  88.9467430  74.5207170
  96.2141070  88.1597230  74.3915120  96.3176630  89.6258620  74.7542700
  97.8786150  88.6842570  77.5752560  97.2488890  87.9829880  77.7422690
  97.3391290  89.4446700  77.3585720  98.0041710  87.9626550  90.0105050
  97.7225980  88.4660150  89.2465870  98.3861410  87.1648300  89.6447180
 104.6057170  87.3780130  90.5885520 104.4922620  87.6974740  91.4837040
 105.4226910  87.7792640  90.2922800 103.5115320  95.3972600  60.9520260
 103.4309370  94.4827210  60.6811970 103.0979740  95.8939670  60.2459970
  94.0691140  92.4473320  57.4947680  93.1807840  92.7889290  57.3927560
  94.3532330  92.2473640  56.6028510  92.0324150  95.0478970  63.3787380
  92.6040260  94.2801170  63.3791020  92.0325690  95.3467730  62.4693990
  93.2749020  90.4563330  65.1656310  93.0951860  89.5589080  65.4459070
  92.8729100  91.0035200  65.8403260 102.1147520  92.6579190  63.0668620
 102.4912340  91.7851070  62.9542290 102.0167030  92.9937890  62.1759060
  96.2452530  91.0304820  58.5286060  96.3519280  91.9308550  58.8354820
  95.3344890  90.9822790  58.2380710 105.8971640  90.1529630  59.9996960
 106.7181260  89.6626200  60.0422440 105.9305720  90.7427290  60.7528800
  93.8935690  92.9523830  63.7738650  94.5745800  93.2162200  64.3926050
  93.5783740  92.1124700  64.1076660  98.0860260  93.9991190  62.8611240
  98.5938480  94.4972160  63.5016260  98.6173500  93.2226390  62.6850600
 110.1871190  92.1696380  66.5640590 109.4823360  92.5578090  66.0455700
 110.4529110  92.8646670  67.1661520  96.3696360  88.6389750  67.1274660
  96.3714800  89.1562140  66.3220560  95.5400670  88.1619930  67.1044590
 106.1333120  92.0930010  62.7724500 105.4288690  92.3814900  63.3527610
 106.4945280  92.9030120  62.4124060  96.0511690  90.3499710  65.1345110
  96.3928500  91.1941760  64.8398980  95.1127500  90.4983450  65.2510450
 109.2020040  91.5384800  63.1633710 108.2544950  91.5723780  63.2949140
 109.5270030  92.3523750  63.5483070  99.7339580  87.8381980  61.4589700
 100.0414560  87.2828870  60.7425200  98.8040280  87.9726440  61.2762690
 102.1220340  95.9030810  58.1949820 101.1949620  95.8368190  58.4238290
 102.2745160  96.8410940  58.0805060 102.1089420  92.1747810  55.1916980
 101.1693090  92.3361770  55.2769440 102.4272680  92.8933490  54.6452970
 105.5944190  93.6435650  66.1150880 105.1815370  94.4689360  66.3690870
 104.8620140  93.0580690  65.9227240  97.7276980  96.4295550  60.9769550
  97.3233980  95.7172800  60.4815450  97.8140100  96.0848790  61.8657590
  96.4405600  93.2038760  64.7568590  96.9920190  93.3134100  63.9821840
  96.9549110  93.5776360  65.4723820 107.9099470  87.9580730  54.0198860
 107.5972130  88.0507560  54.9197930 108.6711940  88.5361760  53.9696290
  94.4281610  95.3240530  58.4776200  94.3079210  96.0502620  57.8657470
  94.1182500  94.5543440  58.0004110 109.1200760  92.6952230  69.9973000
 108.5045030  93.2031900  69.4688460 108.7997180  91.7950560  69.9398940
  96.8945270  88.6675600  61.8599870  96.4513420  89.4485140  61.5284390
  97.4530260  88.9905490  62.5670810 101.1815080  91.5344120  67.4635190
 100.7194450  91.7427140  68.2755130 100.7793190  90.7203470  67.1605860
 106.1819590  92.7553070  68.5931850 105.3313180  92.4558820  68.9140920
 106.0221380  92.9995080  67.6815670 103.2769300  94.2554820  70.6930640
 103.6022710  93.4218570  70.3532870 104.0649630  94.7783340  70.8408970
 100.0104090  88.2886300  56.7405700  99.3858270  88.2846170  57.4659010
  99.9234210  87.4217260  56.3441670  98.9321170  89.2122930  63.7189470
  99.2293500  90.1185760  63.6381490  99.4806730  88.7241710  63.1049040
  96.6859490  93.7909170  59.5881120  96.4600410  93.5746340  60.4927740
  95.9052020  94.2237630  59.2427090 103.9157250  93.7972540  58.1871770
 103.3166140  94.5208340  58.0035390 104.4636860  93.7349320  57.4048220
  99.1258700  94.6894750  70.2541390  99.0302300  93.7489480  70.1041790
  99.9690680  94.9109820  69.8589460 102.5222120  92.4336080  60.2175050
 102.9151690  92.7508280  59.4043740 102.8838970  91.5547960  60.3319570
  94.2569240  91.1008420  68.4075170  93.8632630  91.9483630  68.6147950
  93.5687640  90.4634790  68.5983810 100.8314290  91.1843390  71.4771910
 100.1412610  90.9915590  72.1118000 101.5746590  91.4678030  72.0096210
  91.5586290  89.0236880  62.4405250  91.2699340  89.5939740  63.1530230
  92.3032050  88.5441330  62.8036480  91.7456520  92.9657000  53.6507970
  91.6631190  93.9087760  53.7922960  91.3939580  92.8231910  52.7720320
 103.1077260  95.0241830  64.3125830 102.3758380  95.5328640  64.6615930
 102.7101600  94.2071810  64.0114610  99.5454650  91.6996030  62.7178320
  99.5490710  91.2585980  61.8682860 100.4405770  92.0213360  62.8250140
  95.3957030  91.5822520  61.6772530  95.0557080  92.0597750  62.4339580
  94.6334350  91.1287640  61.3173630  99.6074800  92.7008110  55.7085080
  99.7287620  92.6594590  56.6570900  99.2223310  93.5632260  55.5531810
 103.5703170  90.4775510  63.7248770 103.5875910  90.9284160  64.5690620
 103.3218750  89.5781150  63.9382210  98.6196300  95.0109250  55.1068380
  98.0513200  94.5627500  54.4804290  99.3285300  95.3702030  54.5733530
 106.9973920  87.8907690  69.5635150 107.3219690  87.1597350  70.0893130
 107.0330430  87.5721330  68.6616140  99.8462620  95.7597810  64.4643730
 100.2132750  95.2856380  65.2105070  99.6567680  96.6339380  64.8052070
  92.7103110  90.5041500  60.5937200  92.4250030  90.1397170  61.4315820
  92.6481970  89.7721960  59.9800340  97.6361990  94.8006450  66.7827940
  97.3319060  95.6798430  67.0078300  98.5908450  94.8606240  66.8185380
 102.3841700  89.3970760  57.3150570 101.5706310  88.8983930  57.2395880
 102.1903650  90.2369010  56.8986920 105.0990090  93.7690410  55.6112730
 105.9869710  94.0807640  55.4364070 105.0695180  92.8962660  55.2193310
  93.6925720  95.6409190  67.9299300  93.3340660  96.3063040  68.5172640
  93.3980280  94.8092740  68.3011920  96.8938840  96.0993430  70.8138850
  96.5938980  96.2450610  69.9166670  97.6650080  95.5398720  70.7212240
 107.3704360  95.0802250  55.0792590 107.2868080  95.5116470  54.2289030
 108.0898550  95.5400600  55.5119410  92.2033770  95.6400450  54.5533900
  93.0728620  95.9225250  54.8369820  91.7124090  96.4536320  54.4382710
  95.2680360  87.3711310  59.1464700  95.1394990  87.3629210  60.0949620
  94.4442380  87.7094400  58.7955710  92.2674290  89.1302430  68.6071400
  91.5532810  89.3299350  69.2124010  92.6869330  88.3542000  68.9786200
 103.7613070  91.6224740  66.3572850 104.1293890  90.8019950  66.6852420
 102.9011270  91.6826630  66.7728500 107.1275100  90.5781680  57.1660410
 106.4988260  90.6827350  56.4518640 106.6327020  90.7978460  57.9554290
  99.0959130  92.8567630  58.5818290  98.3875280  93.3253970  59.0231900
  99.3803610  92.1989640  59.2163480 100.7215060  94.2764330  66.5810820
 101.2200310  94.7510150  67.2462670 100.8638010  93.3527850  66.7880850
 103.1274560  89.5818290  60.0214080 103.0042340  89.6004420  59.0723590
 104.0759120  89.6297230  60.1412480  97.2994150  91.1652710  55.9569000
  98.1484680  91.6022860  55.8909190  96.9325420  91.4772970  56.7841060
 107.9281920  90.4932290  67.4239210 107.4255520  91.2337690  67.7633020
 108.7438580  90.8816290  67.1076000 106.2203930  95.7365470  60.8700570
 105.2794070  95.7515700  61.0448260 106.5348000  94.9501430  61.3160870
  94.8932330  94.8510140  55.1137420  94.9735920  93.9037650  55.2254820
  95.7852080  95.1817020  55.2198080  92.4203130  96.6725060  70.3493590
  92.9242150  96.0932340  70.9209820  91.6810550  96.9565290  70.8869960
  94.4526210  94.8154650  71.2443660  94.4931550  94.5168520  72.1528890
  95.3071710  95.2162260  71.0851180  96.3932020  93.3946750  69.2118150
  95.8628480  92.9037700  68.5841490  97.0620090  93.8230950  68.6776080
 105.7632250  95.2012370  70.9798490 106.3453020  94.4464690  70.8918970
 105.9394020  95.7319810  70.2029970  96.8804320  90.3609120  69.2915440
  96.7861190  89.7429870  68.5666310  96.3001710  91.0875410  69.0645350
  99.6465760  88.9182360  66.3242830  99.1983060  88.9406620  65.4788380
  99.0130960  88.5201380  66.9213130 102.3889210  95.5452870  68.3293110
 102.5085420  94.9494010  69.0687950 103.2483210  95.5822560  67.9094410
 104.7277110  96.0990060  66.9055620 104.2012330  96.6232680  66.3020760
 105.0708450  96.7317450  67.5365350  97.1263500  93.4883430  53.3505330
  96.9252560  92.6250790  53.7118670  96.9555550  93.4016790  52.4126930
  99.1557980  92.0874220  69.5868930  99.7457670  91.7790070  70.2746750
  98.3378220  91.6153970  69.7428830 103.9751410  91.7040030  69.8201950
 103.2866930  91.0421570  69.7551940 104.6957430  91.2578300  70.2650410
 104.6051810  88.2991660  55.8792210 104.8854100  87.4559560  56.2351630
 103.8317540  88.5314770  56.3930960  95.9246300  90.5884050  53.3383210
  96.2272200  90.5951480  52.4302360  96.6640890  90.2381910  53.8350870
  99.1431230  89.5318670  54.3239410  98.7953230  88.8542660  53.7441860
  99.3444000  89.0708180  55.1382800  92.4836870  96.0606320  60.7203780
  91.8285710  95.7917960  60.0763480  93.3214820  95.9510800  60.2705760
 105.4327310  90.8547610  54.9422270 105.8512190  90.6678590  54.1018930
 105.1263370  90.0026660  55.2525200 108.9317040  95.7671750  58.6398070
 108.5560640  94.9999680  58.2079360 108.2020160  96.1494450  59.1273000
  93.5212800  96.4458890  65.2607120  93.8885840  96.3586290  66.1403140
  92.9523620  95.6825440  65.1613980 108.3216660  94.9143270  68.2737590
 108.0902750  94.6856020  67.3735540 108.5821210  95.8342820  68.2282480
  93.0728800  93.3567980  69.1665540  92.1784850  93.3234740  69.5059250
  93.6126350  93.5554770  69.9316790 106.7604730  90.1399700  71.0517290
 107.6374910  90.1483100  71.4351290 106.7725570  89.4030540  70.4409640
  91.6974950  93.2705250  56.6629110  90.7939030  93.5335450  56.4880770
  92.1815570  93.5416420  55.8829070 108.2068000  93.9929240  61.9405310
 108.7305480  93.4991890  61.3095480 108.7927420  94.1279600  62.6852880
 108.3857720  94.0769110  65.4624860 107.4360430  94.0432650  65.5769850
 108.5670730  94.9869220  65.2274630  94.2402160  92.3270790  54.5723490
  94.9493860  91.9054010  54.0870770  93.5242100  92.3946020  53.9406840
  93.8876320  88.3810120  53.6126140  94.6104450  88.9219060  53.9307360
  94.1600840  88.1073540  52.7367680 107.6967970  93.2502590  57.8797720
 108.1927090  93.0173460  58.6646600 107.4984040  92.4114430  57.4635360
  93.5768510  87.6316310  63.5148760  94.2244700  87.0813690  63.0743920
  93.9970350  87.8859460  64.3364570 109.1255130  91.8863540  60.4135400
 109.0154410  91.7319580  61.3517670 109.8862720  91.3584480  60.1710810
 107.4720850  87.8257670  66.8718400 108.1093070  88.4391810  67.2377590
 107.6195740  87.8618330  65.9267630 110.0145400  89.7171460  53.6541540
 110.9394710  89.5852640  53.4459830 109.9921190  89.7964280  54.6077990
 110.0883890  90.4882120  56.2798250 109.2935390  90.4227240  56.8091160
 110.2927170  91.4232760  56.2683600  93.3300510  87.7871980  66.2574080
  92.9815330  88.2435800  67.0232260  92.9988210  86.8929110  66.3396510
 100.8425330  88.9783860  69.7793500 100.7814220  89.5705690  70.5288910
 101.7825710  88.8709820  69.6343760 103.4799890  88.6353920  69.4185790
 104.0940300  88.9533210  68.7566870 104.0249450  88.1502510  70.0381650
  94.0021150  87.3148180  69.5324850  94.5504140  87.1336230  68.7690960
  94.0676460  86.5242290  70.0681160 104.2207930  87.1986060  65.7455080
 103.3467770  87.5321170  65.5428010 104.1118680  86.7259240  66.5706950
 105.1279910  89.4056930  67.1296800 104.7993270  88.5908690  66.7498530
 106.0762210  89.3626740  67.0062490 101.9682750  88.1155900  64.6847990
 101.1854540  88.5901400  64.9644750 101.6745680  87.2110730  64.5761170
 106.5203820  88.8179000  62.7297080 106.9611910  88.7624100  61.8818680
 106.2511410  89.7337010  62.8007260 108.3842390  88.4494240  60.7405900
 108.3230790  87.5055460  60.5936920 109.1634420  88.5574330  61.2859360
  93.3123160  88.4203380  57.2061710  94.0702520  88.5332260  56.6325740
  92.8500330  89.2572580  57.1605140  99.8536970  90.5342650  60.1964020
  99.0411480  90.1599540  59.8559900 100.3578610  89.7787730  60.4985210
 104.3561950  87.1985100  61.4347090 104.9591320  87.7705310  61.9095610
 103.6154940  87.7624540  61.2120990 107.4996550  87.6006660  56.7087370
 107.6947180  88.4990110  56.9754800 106.7126420  87.3693740  57.2020320
  95.6848310  88.9467430  55.7463680  96.2141070  88.1597230  55.6171630
  96.3176630  89.6258620  55.9799210  97.8786150  88.6842570  58.8009070
  97.2488890  87.9829880  58.9679200  97.3391290  89.4446700  58.5842230
  98.0041710  87.9626550  71.2361560  97.7225980  88.4660150  70.4722380
  98.3861410  87.1648300  70.8703690 104.6057170  87.3780130  71.8142030
 104.4922620  87.6974740  72.7093550 105.4226910  87.7792640  71.5179310
 103.5115320  95.3972600  42.1776770 103.4309370  94.4827210  41.9068480
 103.0979740  95.8939670  41.4716480  94.0691140  92.4473320  38.7204190
  93.1807840  92.7889290  38.6184070  94.3532330  92.2473640  37.8285020
  92.0324150  95.0478970  44.6043890  92.6040260  94.2801170  44.6047530
  92.0325690  95.3467730  43.6950500  93.2749020  90.4563330  46.3912820
  93.0951860  89.5589080  46.6715580  92.8729100  91.0035200  47.0659770
 102.1147520  92.6579190  44.2925130 102.4912340  91.7851070  44.1798800
 102.0167030  92.9937890  43.4015570  96.2452530  91.0304820  39.7542570
  96.3519280  91.9308550  40.0611330  95.3344890  90.9822790  39.4637220
 105.8971640  90.1529630  41.2253470 106.7181260  89.6626200  41.2678950
 105.9305720  90.7427290  41.9785310  93.8935690  92.9523830  44.9995160
  94.5745800  93.2162200  45.6182560  93.5783740  92.1124700  45.3333170
  98.0860260  93.9991190  44.0867750  98.5938480  94.4972160  44.7272770
  98.6173500  93.2226390  43.9107110 110.1871190  92.1696380  47.7897100
 109.4823360  92.5578090  47.2712210 110.4529110  92.8646670  48.3918030
  96.3696360  88.6389750  48.3531170  96.3714800  89.1562140  47.5477070
  95.5400670  88.1619930  48.3301100 106.1333120  92.0930010  43.9981010
 105.4288690  92.3814900  44.5784120 106.4945280  92.9030120  43.6380570
  96.0511690  90.3499710  46.3601620  96.3928500  91.1941760  46.0655490
  95.1127500  90.4983450  46.4766960 109.2020040  91.5384800  44.3890220
 108.2544950  91.5723780  44.5205650 109.5270030  92.3523750  44.7739580
  99.7339580  87.8381980  42.6846210 100.0414560  87.2828870  41.9681710
  98.8040280  87.9726440  42.5019200 102.1220340  95.9030810  39.4206330
 101.1949620  95.8368190  39.6494800 102.2745160  96.8410940  39.3061570
 102.1089420  92.1747810  36.4173490 101.1693090  92.3361770  36.5025950
 102.4272680  92.8933490  35.8709480 105.5944190  93.6435650  47.3407390
 105.1815370  94.4689360  47.5947380 104.8620140  93.0580690  47.1483750
  97.7276980  96.4295550  42.2026060  97.3233980  95.7172800  41.7071960
  97.8140100  96.0848790  43.0914100  96.4405600  93.2038760  45.9825100
  96.9920190  93.3134100  45.2078350  96.9549110  93.5776360  46.6980330
 107.9099470  87.9580730  35.2455370 107.5972130  88.0507560  36.1454440
 108.6711940  88.5361760  35.1952800  94.4281610  95.3240530  39.7032710
  94.3079210  96.0502620  39.0913980  94.1182500  94.5543440  39.2260620
 109.1200760  92.6952230  51.2229510 108.5045030  93.2031900  50.6944970
 108.7997180  91.7950560  51.1655450  96.8945270  88.6675600  43.0856380
  96.4513420  89.4485140  42.7540900  97.4530260  88.9905490  43.7927320
 101.1815080  91.5344120  48.6891700 100.7194450  91.7427140  49.5011640
 100.7793190  90.7203470  48.3862370 106.1819590  92.7553070  49.8188360
 105.3313180  92.4558820  50.1397430 106.0221380  92.9995080  48.9072180
 103.2769300  94.2554820  51.9187150 103.6022710  93.4218570  51.5789380
 104.0649630  94.7783340  52.0665480 100.0104090  88.2886300  37.9662210
  99.3858270  88.2846170  38.6915520  99.9234210  87.4217260  37.5698180
  98.9321170  89.2122930  44.9445980  99.2293500  90.1185760  44.8638000
  99.4806730  88.7241710  44.3305550  96.6859490  93.7909170  40.8137630
  96.4600410  93.5746340  41.7184250  95.9052020  94.2237630  40.4683600
 103.9157250  93.7972540  39.4128280 103.3166140  94.5208340  39.2291900
 104.4636860  93.7349320  38.6304730  99.1258700  94.6894750  51.4797900
  99.0302300  93.7489480  51.3298300  99.9690680  94.9109820  51.0845970
 102.5222120  92.4336080  41.4431560 102.9151690  92.7508280  40.6300250
 102.8838970  91.5547960  41.5576080  94.2569240  91.1008420  49.6331680
  93.8632630  91.9483630  49.8404460  93.5687640  90.4634790  49.8240320
 100.8314290  91.1843390  52.7028420 100.1412610  90.9915590  53.3374510
 101.5746590  91.4678030  53.2352720  91.5586290  89.0236880  43.6661760
  91.2699340  89.5939740  44.3786740  92.3032050  88.5441330  44.0292990
  91.7456520  92.9657000  34.8764480  91.6631190  93.9087760  35.0179470
  91.3939580  92.8231910  33.9976830 103.1077260  95.0241830  45.5382340
 102.3758380  95.5328640  45.8872440 102.7101600  94.2071810  45.2371120
  99.5454650  91.6996030  43.9434830  99.5490710  91.2585980  43.0939370
 100.4405770  92.0213360  44.0506650  95.3957030  91.5822520  42.9029040
  95.0557080  92.0597750  43.6596090  94.6334350  91.1287640  42.5430140
  99.6074800  92.7008110  36.9341590  99.7287620  92.6594590  37.8827410
  99.2223310  93.5632260  36.7788320 103.5703170  90.4775510  44.9505280
 103.5875910  90.9284160  45.7947130 103.3218750  89.5781150  45.1638720
  98.6196300  95.0109250  36.3324890  98.0513200  94.5627500  35.7060800
  99.3285300  95.3702030  35.7990040 106.9973920  87.8907690  50.7891660
 107.3219690  87.1597350  51.3149640 107.0330430  87.5721330  49.8872650
  99.8462620  95.7597810  45.6900240 100.2132750  95.2856380  46.4361580
  99.6567680  96.6339380  46.0308580  92.7103110  90.5041500  41.8193710
  92.4250030  90.1397170  42.6572330  92.6481970  89.7721960  41.2056850
  97.6361990  94.8006450  48.0084450  97.3319060  95.6798430  48.2334810
  98.5908450  94.8606240  48.0441890 102.3841700  89.3970760  38.5407080
 101.5706310  88.8983930  38.4652390 102.1903650  90.2369010  38.1243430
 105.0990090  93.7690410  36.8369240 105.9869710  94.0807640  36.6620580
 105.0695180  92.8962660  36.4449820  93.6925720  95.6409190  49.1555810
  93.3340660  96.3063040  49.7429150  93.3980280  94.8092740  49.5268430
  96.8938840  96.0993430  52.0395360  96.5938980  96.2450610  51.1423180
  97.6650080  95.5398720  51.9468750 107.3704360  95.0802250  36.3049100
 107.2868080  95.5116470  35.4545540 108.0898550  95.5400600  36.7375920
  92.2033770  95.6400450  35.7790410  93.0728620  95.9225250  36.0626330
  91.7124090  96.4536320  35.6639220  95.2680360  87.3711310  40.3721210
  95.1394990  87.3629210  41.3206130  94.4442380  87.7094400  40.0212220
  92.2674290  89.1302430  49.8327910  91.5532810  89.3299350  50.4380520
  92.6869330  88.3542000  50.2042710 103.7613070  91.6224740  47.5829360
 104.1293890  90.8019950  47.9108930 102.9011270  91.6826630  47.9985010
 107.1275100  90.5781680  38.3916920 106.4988260  90.6827350  37.6775150
 106.6327020  90.7978460  39.1810800  99.0959130  92.8567630  39.8074800
  98.3875280  93.3253970  40.2488410  99.3803610  92.1989640  40.4419990
 100.7215060  94.2764330  47.8067330 101.2200310  94.7510150  48.4719180
 100.8638010  93.3527850  48.0137360 103.1274560  89.5818290  41.2470590
 103.0042340  89.6004420  40.2980100 104.0759120  89.6297230  41.3668990
  97.2994150  91.1652710  37.1825510  98.1484680  91.6022860  37.1165700
  96.9325420  91.4772970  38.0097570 107.9281920  90.4932290  48.6495720
 107.4255520  91.2337690  48.9889530 108.7438580  90.8816290  48.3332510
 106.2203930  95.7365470  42.0957080 105.2794070  95.7515700  42.2704770
 106.5348000  94.9501430  42.5417380  94.8932330  94.8510140  36.3393930
  94.9735920  93.9037650  36.4511330  95.7852080  95.1817020  36.4454590
  92.4203130  96.6725060  51.5750100  92.9242150  96.0932340  52.1466330
  91.6810550  96.9565290  52.1126470  94.4526210  94.8154650  52.4700170
  94.4931550  94.5168520  53.3785400  95.3071710  95.2162260  52.3107690
  96.3932020  93.3946750  50.4374660  95.8628480  92.9037700  49.8098000
  97.0620090  93.8230950  49.9032590 105.7632250  95.2012370  52.2055000
 106.3453020  94.4464690  52.1175480 105.9394020  95.7319810  51.4286480
  96.8804320  90.3609120  50.5171950  96.7861190  89.7429870  49.7922820
  96.3001710  91.0875410  50.2901860  99.6465760  88.9182360  47.5499340
  99.1983060  88.9406620  46.7044890  99.0130960  88.5201380  48.1469640
 102.3889210  95.5452870  49.5549620 102.5085420  94.9494010  50.2944460
 103.2483210  95.5822560  49.1350920 104.7277110  96.0990060  48.1312130
 104.2012330  96.6232680  47.5277270 105.0708450  96.7317450  48.7621860
  97.1263500  93.4883430  34.5761840  96.9252560  92.6250790  34.9375180
  96.9555550  93.4016790  33.6383440  99.1557980  92.0874220  50.8125440
  99.7457670  91.7790070  51.5003260  98.3378220  91.6153970  50.9685340
 103.9751410  91.7040030  51.0458460 103.2866930  91.0421570  50.9808450
 104.6957430  91.2578300  51.4906920 104.6051810  88.2991660  37.1048720
 104.8854100  87.4559560  37.4608140 103.8317540  88.5314770  37.6187470
  95.9246300  90.5884050  34.5639720  96.2272200  90.5951480  33.6558870
  96.6640890  90.2381910  35.0607380  99.1431230  89.5318670  35.5495920
  98.7953230  88.8542660  34.9698370  99.3444000  89.0708180  36.3639310
  92.4836870  96.0606320  41.9460290  91.8285710  95.7917960  41.3019990
  93.3214820  95.9510800  41.4962270 105.4327310  90.8547610  36.1678780
 105.8512190  90.6678590  35.3275440 105.1263370  90.0026660  36.4781710
 108.9317040  95.7671750  39.8654580 108.5560640  94.9999680  39.4335870
 108.2020160  96.1494450  40.3529510  93.5212800  96.4458890  46.4863630
  93.8885840  96.3586290  47.3659650  92.9523620  95.6825440  46.3870490
 108.3216660  94.9143270  49.4994100 108.0902750  94.6856020  48.5992050
 108.5821210  95.8342820  49.4538990  93.0728800  93.3567980  50.3922050
  92.1784850  93.3234740  50.7315760  93.6126350  93.5554770  51.1573300
 106.7604730  90.1399700  52.2773800 107.6374910  90.1483100  52.6607800
 106.7725570  89.4030540  51.6666150  91.6974950  93.2705250  37.8885620
  90.7939030  93.5335450  37.7137280  92.1815570  93.5416420  37.1085580
 108.2068000  93.9929240  43.1661820 108.7305480  93.4991890  42.5351990
 108.7927420  94.1279600  43.9109390 108.3857720  94.0769110  46.6881370
 107.4360430  94.0432650  46.8026360 108.5670730  94.9869220  46.4531140
  94.2402160  92.3270790  35.7980000  94.9493860  91.9054010  35.3127280
  93.5242100  92.3946020  35.1663350  93.8876320  88.3810120  34.8382650
  94.6104450  88.9219060  35.1563870  94.1600840  88.1073540  33.9624190
 107.6967970  93.2502590  39.1054230 108.1927090  93.0173460  39.8903110
 107.4984040  92.4114430  38.6891870  93.5768510  87.6316310  44.7405270
  94.2244700  87.0813690  44.3000430  93.9970350  87.8859460  45.5621080
 109.1255130  91.8863540  41.6391910 109.0154410  91.7319580  42.5774180
 109.8862720  91.3584480  41.3967320 107.4720850  87.8257670  48.0974910
 108.1093070  88.4391810  48.4634100 107.6195740  87.8618330  47.1524140
 110.0145400  89.7171460  34.8798050 110.9394710  89.5852640  34.6716340
 109.9921190  89.7964280  35.8334500 110.0883890  90.4882120  37.5054760
 109.2935390  90.4227240  38.0347670 110.2927170  91.4232760  37.4940110
  93.3300510  87.7871980  47.4830590  92.9815330  88.2435800  48.2488770
  92.9988210  86.8929110  47.5653020 100.8425330  88.9783860  51.0050010
 100.7814220  89.5705690  51.7545420 101.7825710  88.8709820  50.8600270
 103.4799890  88.6353920  50.6442300 104.0940300  88.9533210  49.9823380
 104.0249450  88.1502510  51.2638160  94.0021150  87.3148180  50.7581360
  94.5504140  87.1336230  49.9947470  94.0676460  86.5242290  51.2937670
 104.2207930  87.1986060  46.9711590 103.3467770  87.5321170  46.7684520
 104.1118680  86.7259240  47.7963460 105.1279910  89.4056930  48.3553310
 104.7993270  88.5908690  47.9755040 106.0762210  89.3626740  48.2319000
 101.9682750  88.1155900  45.9104500 101.1854540  88.5901400  46.1901260
 101.6745680  87.2110730  45.8017680 106.5203820  88.8179000  43.9553590
 106.9611910  88.7624100  43.1075190 106.2511410  89.7337010  44.0263770
 108.3842390  88.4494240  41.9662410 108.3230790  87.5055460  41.8193430
 109.1634420  88.5574330  42.5115870  93.3123160  88.4203380  38.4318220
  94.0702520  88.5332260  37.8582250  92.8500330  89.2572580  38.3861650
  99.8536970  90.5342650  41.4220530  99.0411480  90.1599540  41.0816410
 100.3578610  89.7787730  41.7241720 104.3561950  87.1985100  42.6603600
 104.9591320  87.7705310  43.1352120 103.6154940  87.7624540  42.4377500
 107.4996550  87.6006660  37.9343880 107.6947180  88.4990110  38.2011310
 106.7126420  87.3693740  38.4276830  95.6848310  88.9467430  36.9720190
  96.2141070  88.1597230  36.8428140  96.3176630  89.6258620  37.2055720
  97.8786150  88.6842570  40.0265580  97.2488890  87.9829880  40.1935710
  97.3391290  89.4446700  39.8098740  98.0041710  87.9626550  52.4618070
  97.7225980  88.4660150  51.6978890  98.3861410  87.1648300  52.0960200
 104.6057170  87.3780130  53.0398540 104.4922620  87.6974740  53.9350060
 105.4226910  87.7792640  52.7435820 103.5115320  95.3972600  23.4033280
 103.4309370  94.4827210  23.1324990 103.0979740  95.8939670  22.6972990
  94.0691140  92.4473320  19.9460700  93.1807840  92.7889290  19.8440580
  94.3532330  92.2473640  19.0541530  92.0324150  95.0478970  25.8300400
  92.6040260  94.2801170  25.8304040  92.0325690  95.3467730  24.9207010
  93.2749020  90.4563330  27.6169330  93.0951860  89.5589080  27.8972090
  92.8729100  91.0035200  28.2916280 102.1147520  92.6579190  25.5181640
 102.4912340  91.7851070  25.4055310 102.0167030  92.9937890  24.6272080
  96.2452530  91.0304820  20.9799080  96.3519280  91.9308550  21.2867840
  95.3344890  90.9822790  20.6893730 105.8971640  90.1529630  22.4509980
 106.7181260  89.6626200  22.4935460 105.9305720  90.7427290  23.2041820
  93.8935690  92.9523830  26.2251670  94.5745800  93.2162200  26.8439070
  93.5783740  92.1124700  26.5589680  98.0860260  93.9991190  25.3124260
  98.5938480  94.4972160  25.9529280  98.6173500  93.2226390  25.1363620
 110.1871190  92.1696380  29.0153610 109.4823360  92.5578090  28.4968720
 110.4529110  92.8646670  29.6174540  96.3696360  88.6389750  29.5787680
  96.3714800  89.1562140  28.7733580  95.5400670  88.1619930  29.5557610
 106.1333120  92.0930010  25.2237520 105.4288690  92.3814900  25.8040630
 106.4945280  92.9030120  24.8637080  96.0511690  90.3499710  27.5858130
  96.3928500  91.1941760  27.2912000  95.1127500  90.4983450  27.7023470
 109.2020040  91.5384800  25.6146730 108.2544950  91.5723780  25.7462160
 109.5270030  92.3523750  25.9996090  99.7339580  87.8381980  23.9102720
 100.0414560  87.2828870  23.1938220  98.8040280  87.9726440  23.7275710
 102.1220340  95.9030810  20.6462840 101.1949620  95.8368190  20.8751310
 102.2745160  96.8410940  20.5318080 102.1089420  92.1747810  17.6430000
 101.1693090  92.3361770  17.7282460 102.4272680  92.8933490  17.0965990
 105.5944190  93.6435650  28.5663900 105.1815370  94.4689360  28.8203890
 104.8620140  93.0580690  28.3740260  97.7276980  96.4295550  23.4282570
  97.3233980  95.7172800  22.9328470  97.8140100  96.0848790  24.3170610
  96.4405600  93.2038760  27.2081610  96.9920190  93.3134100  26.4334860
  96.9549110  93.5776360  27.9236840 107.9099470  87.9580730  16.4711880
 107.5972130  88.0507560  17.3710950 108.6711940  88.5361760  16.4209310
  94.4281610  95.3240530  20.9289220  94.3079210  96.0502620  20.3170490
  94.1182500  94.5543440  20.4517130 109.1200760  92.6952230  32.4486020
 108.5045030  93.2031900  31.9201480 108.7997180  91.7950560  32.3911960
  96.8945270  88.6675600  24.3112890  96.4513420  89.4485140  23.9797410
  97.4530260  88.9905490  25.0183830 101.1815080  91.5344120  29.9148210
 100.7194450  91.7427140  30.7268150 100.7793190  90.7203470  29.6118880
 106.1819590  92.7553070  31.0444870 105.3313180  92.4558820  31.3653940
 106.0221380  92.9995080  30.1328690 103.2769300  94.2554820  33.1443660
 103.6022710  93.4218570  32.8045890 104.0649630  94.7783340  33.2921990
 100.0104090  88.2886300  19.1918720  99.3858270  88.2846170  19.9172030
  99.9234210  87.4217260  18.7954690  98.9321170  89.2122930  26.1702490
  99.2293500  90.1185760  26.0894510  99.4806730  88.7241710  25.5562060
  96.6859490  93.7909170  22.0394140  96.4600410  93.5746340  22.9440760
  95.9052020  94.2237630  21.6940110 103.9157250  93.7972540  20.6384790
 103.3166140  94.5208340  20.4548410 104.4636860  93.7349320  19.8561240
  99.1258700  94.6894750  32.7054410  99.0302300  93.7489480  32.5554810
  99.9690680  94.9109820  32.3102480 102.5222120  92.4336080  22.6688070
 102.9151690  92.7508280  21.8556760 102.8838970  91.5547960  22.7832590
  94.2569240  91.1008420  30.8588190  93.8632630  91.9483630  31.0660970
  93.5687640  90.4634790  31.0496830 100.8314290  91.1843390  33.9284930
 100.1412610  90.9915590  34.5631020 101.5746590  91.4678030  34.4609230
  91.5586290  89.0236880  24.8918270  91.2699340  89.5939740  25.6043250
  92.3032050  88.5441330  25.2549500  91.7456520  92.9657000  16.1020990
  91.6631190  93.9087760  16.2435980  91.3939580  92.8231910  15.2233340
 103.1077260  95.0241830  26.7638850 102.3758380  95.5328640  27.1128950
 102.7101600  94.2071810  26.4627630  99.5454650  91.6996030  25.1691340
  99.5490710  91.2585980  24.3195880 100.4405770  92.0213360  25.2763160
  95.3957030  91.5822520  24.1285550  95.0557080  92.0597750  24.8852600
  94.6334350  91.1287640  23.7686650  99.6074800  92.7008110  18.1598100
  99.7287620  92.6594590  19.1083920  99.2223310  93.5632260  18.0044830
 103.5703170  90.4775510  26.1761790 103.5875910  90.9284160  27.0203640
 103.3218750  89.5781150  26.3895230  98.6196300  95.0109250  17.5581400
  98.0513200  94.5627500  16.9317310  99.3285300  95.3702030  17.0246550
 106.9973920  87.8907690  32.0148170 107.3219690  87.1597350  32.5406150
 107.0330430  87.5721330  31.1129160  99.8462620  95.7597810  26.9156750
 100.2132750  95.2856380  27.6618090  99.6567680  96.6339380  27.2565090
  92.7103110  90.5041500  23.0450220  92.4250030  90.1397170  23.8828840
  92.6481970  89.7721960  22.4313360  97.6361990  94.8006450  29.2340960
  97.3319060  95.6798430  29.4591320  98.5908450  94.8606240  29.2698400
 102.3841700  89.3970760  19.7663590 101.5706310  88.8983930  19.6908900
 102.1903650  90.2369010  19.3499940 105.0990090  93.7690410  18.0625750
 105.9869710  94.0807640  17.8877090 105.0695180  92.8962660  17.6706330
  93.6925720  95.6409190  30.3812320  93.3340660  96.3063040  30.9685660
  93.3980280  94.8092740  30.7524940  96.8938840  96.0993430  33.2651870
  96.5938980  96.2450610  32.3679690  97.6650080  95.5398720  33.1725260
 107.3704360  95.0802250  17.5305610 107.2868080  95.5116470  16.6802050
 108.0898550  95.5400600  17.9632430  92.2033770  95.6400450  17.0046920
  93.0728620  95.9225250  17.2882840  91.7124090  96.4536320  16.8895730
  95.2680360  87.3711310  21.5977720  95.1394990  87.3629210  22.5462640
  94.4442380  87.7094400  21.2468730  92.2674290  89.1302430  31.0584420
  91.5532810  89.3299350  31.6637030  92.6869330  88.3542000  31.4299220
 103.7613070  91.6224740  28.8085870 104.1293890  90.8019950  29.1365440
 102.9011270  91.6826630  29.2241520 107.1275100  90.5781680  19.6173430
 106.4988260  90.6827350  18.9031660 106.6327020  90.7978460  20.4067310
  99.0959130  92.8567630  21.0331310  98.3875280  93.3253970  21.4744920
  99.3803610  92.1989640  21.6676500 100.7215060  94.2764330  29.0323840
 101.2200310  94.7510150  29.6975690 100.8638010  93.3527850  29.2393870
 103.1274560  89.5818290  22.4727100 103.0042340  89.6004420  21.5236610
 104.0759120  89.6297230  22.5925500  97.2994150  91.1652710  18.4082020
  98.1484680  91.6022860  18.3422210  96.9325420  91.4772970  19.2354080
 107.9281920  90.4932290  29.8752230 107.4255520  91.2337690  30.2146040
 108.7438580  90.8816290  29.5589020 106.2203930  95.7365470  23.3213590
 105.2794070  95.7515700  23.4961280 106.5348000  94.9501430  23.7673890
  94.8932330  94.8510140  17.5650440  94.9735920  93.9037650  17.6767840
  95.7852080  95.1817020  17.6711100  92.4203130  96.6725060  32.8006610
  92.9242150  96.0932340  33.3722840  91.6810550  96.9565290  33.3382980
  94.4526210  94.8154650  33.6956680  94.4931550  94.5168520  34.6041910
  95.3071710  95.2162260  33.5364200  96.3932020  93.3946750  31.6631170
  95.8628480  92.9037700  31.0354510  97.0620090  93.8230950  31.1289100
 105.7632250  95.2012370  33.4311510 106.3453020  94.4464690  33.3431990
 105.9394020  95.7319810  32.6542990  96.8804320  90.3609120  31.7428460
  96.7861190  89.7429870  31.0179330  96.3001710  91.0875410  31.5158370
  99.6465760  88.9182360  28.7755850  99.1983060  88.9406620  27.9301400
  99.0130960  88.5201380  29.3726150 102.3889210  95.5452870  30.7806130
 102.5085420  94.9494010  31.5200970 103.2483210  95.5822560  30.3607430
 104.7277110  96.0990060  29.3568640 104.2012330  96.6232680  28.7533780
 105.0708450  96.7317450  29.9878370  97.1263500  93.4883430  15.8018350
  96.9252560  92.6250790  16.1631690  96.9555550  93.4016790  14.8639950
  99.1557980  92.0874220  32.0381950  99.7457670  91.7790070  32.7259770
  98.3378220  91.6153970  32.1941850 103.9751410  91.7040030  32.2714970
 103.2866930  91.0421570  32.2064960 104.6957430  91.2578300  32.7163430
 104.6051810  88.2991660  18.3305230 104.8854100  87.4559560  18.6864650
 103.8317540  88.5314770  18.8443980  95.9246300  90.5884050  15.7896230
  96.2272200  90.5951480  14.8815380  96.6640890  90.2381910  16.2863890
  99.1431230  89.5318670  16.7752430  98.7953230  88.8542660  16.1954880
  99.3444000  89.0708180  17.5895820  92.4836870  96.0606320  23.1716800
  91.8285710  95.7917960  22.5276500  93.3214820  95.9510800  22.7218780
 105.4327310  90.8547610  17.3935290 105.8512190  90.6678590  16.5531950
 105.1263370  90.0026660  17.7038220 108.9317040  95.7671750  21.0911090
 108.5560640  94.9999680  20.6592380 108.2020160  96.1494450  21.5786020
  93.5212800  96.4458890  27.7120140  93.8885840  96.3586290  28.5916160
  92.9523620  95.6825440  27.6127000 108.3216660  94.9143270  30.7250610
 108.0902750  94.6856020  29.8248560 108.5821210  95.8342820  30.6795500
  93.0728800  93.3567980  31.6178560  92.1784850  93.3234740  31.9572270
  93.6126350  93.5554770  32.3829810 106.7604730  90.1399700  33.5030310
 107.6374910  90.1483100  33.8864310 106.7725570  89.4030540  32.8922660
  91.6974950  93.2705250  19.1142130  90.7939030  93.5335450  18.9393790
  92.1815570  93.5416420  18.3342090 108.2068000  93.9929240  24.3918330
 108.7305480  93.4991890  23.7608500 108.7927420  94.1279600  25.1365900
 108.3857720  94.0769110  27.9137880 107.4360430  94.0432650  28.0282870
 108.5670730  94.9869220  27.6787650  94.2402160  92.3270790  17.0236510
  94.9493860  91.9054010  16.5383790  93.5242100  92.3946020  16.3919860
  93.8876320  88.3810120  16.0639160  94.6104450  88.9219060  16.3820380
  94.1600840  88.1073540  15.1880700 107.6967970  93.2502590  20.3310740
 108.1927090  93.0173460  21.1159620 107.4984040  92.4114430  19.9148380
  93.5768510  87.6316310  25.9661780  94.2244700  87.0813690  25.5256940
  93.9970350  87.8859460  26.7877590 109.1255130  91.8863540  22.8648420
 109.0154410  91.7319580  23.8030690 109.8862720  91.3584480  22.6223830
 107.4720850  87.8257670  29.3231420 108.1093070  88.4391810  29.6890610
 107.6195740  87.8618330  28.3780650 110.0145400  89.7171460  16.1054560
 110.9394710  89.5852640  15.8972850 109.9921190  89.7964280  17.0591010
 110.0883890  90.4882120  18.7311270 109.2935390  90.4227240  19.2604180
 110.2927170  91.4232760  18.7196620  93.3300510  87.7871980  28.7087100
  92.9815330  88.2435800  29.4745280  92.9988210  86.8929110  28.7909530
 100.8425330  88.9783860  32.2306520 100.7814220  89.5705690  32.9801930
 101.7825710  88.8709820  32.0856780 103.4799890  88.6353920  31.8698810
 104.0940300  88.9533210  31.2079890 104.0249450  88.1502510  32.4894670
  94.0021150  87.3148180  31.9837870  94.5504140  87.1336230  31.2203980
  94.0676460  86.5242290  32.5194180 104.2207930  87.1986060  28.1968100
 103.3467770  87.5321170  27.9941030 104.1118680  86.7259240  29.0219970
 105.1279910  89.4056930  29.5809820 104.7993270  88.5908690  29.2011550
 106.0762210  89.3626740  29.4575510 101.9682750  88.1155900  27.1361010
 101.1854540  88.5901400  27.4157770 101.6745680  87.2110730  27.0274190
 106.5203820  88.8179000  25.1810100 106.9611910  88.7624100  24.3331700
 106.2511410  89.7337010  25.2520280 108.3842390  88.4494240  23.1918920
 108.3230790  87.5055460  23.0449940 109.1634420  88.5574330  23.7372380
  93.3123160  88.4203380  19.6574730  94.0702520  88.5332260  19.0838760
  92.8500330  89.2572580  19.6118160  99.8536970  90.5342650  22.6477040
  99.0411480  90.1599540  22.3072920 100.3578610  89.7787730  22.9498230
 104.3561950  87.1985100  23.8860110 104.9591320  87.7705310  24.3608630
 103.6154940  87.7624540  23.6634010 107.4996550  87.6006660  19.1600390
 107.6947180  88.4990110  19.4267820 106.7126420  87.3693740  19.6533340
  95.6848310  88.9467430  18.1976700  96.2141070  88.1597230  18.0684650
  96.3176630  89.6258620  18.4312230  97.8786150  88.6842570  21.2522090
  97.2488890  87.9829880  21.4192220  97.3391290  89.4446700  21.0355250
  98.0041710  87.9626550  33.6874580  97.7225980  88.4660150  32.9235400
  98.3861410  87.1648300  33.3216710 104.6057170  87.3780130  34.2655050
 104.4922620  87.6974740  35.1606570 105.4226910  87.7792640  33.9692330
 103.5115320  95.3972600   4.6289790 103.4309370  94.4827210   4.3581500
 103.0979740  95.8939670   3.9229500  92.0324150  95.0478970   7.0556910
  92.6040260  94.2801170   7.0560550  92.0325690  95.3467730   6.1463520
  93.2749020  90.4563330   8.8425840  93.0951860  89.5589080   9.1228600
  92.8729100  91.0035200   9.5172790 102.1147520  92.6579190   6.7438150
 102.4912340  91.7851070   6.6311820 102.0167030  92.9937890   5.8528590
  96.2452530  91.0304820   2.2055590  96.3519280  91.9308550   2.5124350
  95.3344890  90.9822790   1.9150240 105.8971640  90.1529630   3.6766490
 106.7181260  89.6626200   3.7191970 105.9305720  90.7427290   4.4298330
  93.8935690  92.9523830   7.4508180  94.5745800  93.2162200   8.0695580
  93.5783740  92.1124700   7.7846190  98.0860260  93.9991190   6.5380770
  98.5938480  94.4972160   7.1785790  98.6173500  93.2226390   6.3620130
 110.1871190  92.1696380  10.2410120 109.4823360  92.5578090   9.7225230
 110.4529110  92.8646670  10.8431050  96.3696360  88.6389750  10.8044190
  96.3714800  89.1562140   9.9990090  95.5400670  88.1619930  10.7814120
 106.1333120  92.0930010   6.4494030 105.4288690  92.3814900   7.0297140
 106.4945280  92.9030120   6.0893590  96.0511690  90.3499710   8.8114640
  96.3928500  91.1941760   8.5168510  95.1127500  90.4983450   8.9279980
 109.2020040  91.5384800   6.8403240 108.2544950  91.5723780   6.9718670
 109.5270030  92.3523750   7.2252600  99.7339580  87.8381980   5.1359230
 100.0414560  87.2828870   4.4194730  98.8040280  87.9726440   4.9532220
 102.1220340  95.9030810   1.8719350 101.1949620  95.8368190   2.1007820
 102.2745160  96.8410940   1.7574590 105.5944190  93.6435650   9.7920410
 105.1815370  94.4689360  10.0460400 104.8620140  93.0580690   9.5996770
  97.7276980  96.4295550   4.6539080  97.3233980  95.7172800   4.1584980
  97.8140100  96.0848790   5.5427120  96.4405600  93.2038760   8.4338120
  96.9920190  93.3134100   7.6591370  96.9549110  93.5776360   9.1493350
  94.4281610  95.3240530   2.1545730  94.3079210  96.0502620   1.5427000
  94.1182500  94.5543440   1.6773640 109.1200760  92.6952230  13.6742530
 108.5045030  93.2031900  13.1457990 108.7997180  91.7950560  13.6168470
  96.8945270  88.6675600   5.5369400  96.4513420  89.4485140   5.2053920
  97.4530260  88.9905490   6.2440340 101.1815080  91.5344120  11.1404720
 100.7194450  91.7427140  11.9524660 100.7793190  90.7203470  10.8375390
 106.1819590  92.7553070  12.2701380 105.3313180  92.4558820  12.5910450
 106.0221380  92.9995080  11.3585200 103.2769300  94.2554820  14.3700170
 103.6022710  93.4218570  14.0302400 104.0649630  94.7783340  14.5178500
  98.9321170  89.2122930   7.3959000  99.2293500  90.1185760   7.3151020
  99.4806730  88.7241710   6.7818570  96.6859490  93.7909170   3.2650650
  96.4600410  93.5746340   4.1697270  95.9052020  94.2237630   2.9196620
  99.1258700  94.6894750  13.9310920  99.0302300  93.7489480  13.7811320
  99.9690680  94.9109820  13.5358990 102.5222120  92.4336080   3.8944580
 102.9151690  92.7508280   3.0813270 102.8838970  91.5547960   4.0089100
  94.2569240  91.1008420  12.0844700  93.8632630  91.9483630  12.2917480
  93.5687640  90.4634790  12.2753340 100.8314290  91.1843390  15.1541440
 100.1412610  90.9915590  15.7887530 101.5746590  91.4678030  15.6865740
  91.5586290  89.0236880   6.1174780  91.2699340  89.5939740   6.8299760
  92.3032050  88.5441330   6.4806010 103.1077260  95.0241830   7.9895360
 102.3758380  95.5328640   8.3385460 102.7101600  94.2071810   7.6884140
  99.5454650  91.6996030   6.3947850  99.5490710  91.2585980   5.5452390
 100.4405770  92.0213360   6.5019670  95.3957030  91.5822520   5.3542060
  95.0557080  92.0597750   6.1109110  94.6334350  91.1287640   4.9943160
 103.5703170  90.4775510   7.4018300 103.5875910  90.9284160   8.2460150
 103.3218750  89.5781150   7.6151740 106.9973920  87.8907690  13.2404680
 107.3219690  87.1597350  13.7662660 107.0330430  87.5721330  12.3385670
  99.8462620  95.7597810   8.1413260 100.2132750  95.2856380   8.8874600
  99.6567680  96.6339380   8.4821600  92.7103110  90.5041500   4.2706730
  92.4250030  90.1397170   5.1085350  92.6481970  89.7721960   3.6569870
  97.6361990  94.8006450  10.4597470  97.3319060  95.6798430  10.6847830
  98.5908450  94.8606240  10.4954910  93.6925720  95.6409190  11.6068830
  93.3340660  96.3063040  12.1942170  93.3980280  94.8092740  11.9781450
  96.8938840  96.0993430  14.4908380  96.5938980  96.2450610  13.5936200
  97.6650080  95.5398720  14.3981770  95.2680360  87.3711310   2.8234230
  95.1394990  87.3629210   3.7719150  94.4442380  87.7094400   2.4725240
  92.2674290  89.1302430  12.2840930  91.5532810  89.3299350  12.8893540
  92.6869330  88.3542000  12.6555730 103.7613070  91.6224740  10.0342380
 104.1293890  90.8019950  10.3621950 102.9011270  91.6826630  10.4498030
  99.0959130  92.8567630   2.2587820  98.3875280  93.3253970   2.7001430
  99.3803610  92.1989640   2.8933010 100.7215060  94.2764330  10.2580350
 101.2200310  94.7510150  10.9232200 100.8638010  93.3527850  10.4650380
 103.1274560  89.5818290   3.6983610 103.0042340  89.6004420   2.7493120
 104.0759120  89.6297230   3.8182010 107.9281920  90.4932290  11.1008740
 107.4255520  91.2337690  11.4402550 108.7438580  90.8816290  10.7845530
 106.2203930  95.7365470   4.5470100 105.2794070  95.7515700   4.7217790
 106.5348000  94.9501430   4.9930400  92.4203130  96.6725060  14.0263120
  92.9242150  96.0932340  14.5979350  91.6810550  96.9565290  14.5639490
  94.4526210  94.8154650  14.9213190  94.4931550  94.5168520  15.8298420
  95.3071710  95.2162260  14.7620710  96.3932020  93.3946750  12.8887680
  95.8628480  92.9037700  12.2611020  97.0620090  93.8230950  12.3545610
 105.7632250  95.2012370  14.6568020 106.3453020  94.4464690  14.5688500
 105.9394020  95.7319810  13.8799500  96.8804320  90.3609120  12.9684970
  96.7861190  89.7429870  12.2435840  96.3001710  91.0875410  12.7414880
  99.6465760  88.9182360  10.0012360  99.1983060  88.9406620   9.1557910
  99.0130960  88.5201380  10.5982660 102.3889210  95.5452870  12.0062640
 102.5085420  94.9494010  12.7457480 103.2483210  95.5822560  11.5863940
 104.7277110  96.0990060  10.5825150 104.2012330  96.6232680   9.9790290
 105.0708450  96.7317450  11.2134880  99.1557980  92.0874220  13.2638460
  99.7457670  91.7790070  13.9516280  98.3378220  91.6153970  13.4198360
 103.9751410  91.7040030  13.4971480 103.2866930  91.0421570  13.4321470
 104.6957430  91.2578300  13.9419940  92.4836870  96.0606320   4.3973310
  91.8285710  95.7917960   3.7533010  93.3214820  95.9510800   3.9475290
 108.9317040  95.7671750   2.3167600 108.5560640  94.9999680   1.8848890
 108.2020160  96.1494450   2.8042530  93.5212800  96.4458890   8.9376650
  93.8885840  96.3586290   9.8172670  92.9523620  95.6825440   8.8383510
 108.3216660  94.9143270  11.9507120 108.0902750  94.6856020  11.0505070
 108.5821210  95.8342820  11.9052010  93.0728800  93.3567980  12.8435070
  92.1784850  93.3234740  13.1828780  93.6126350  93.5554770  13.6086320
 106.7604730  90.1399700  14.7286820 107.6374910  90.1483100  15.1120820
 106.7725570  89.4030540  14.1179170 108.2068000  93.9929240   5.6174840
 108.7305480  93.4991890   4.9865010 108.7927420  94.1279600   6.3622410
 108.3857720  94.0769110   9.1394390 107.4360430  94.0432650   9.2539380
 108.5670730  94.9869220   8.9044160  93.5768510  87.6316310   7.1918290
  94.2244700  87.0813690   6.7513450  93.9970350  87.8859460   8.0134100
 109.1255130  91.8863540   4.0904930 109.0154410  91.7319580   5.0287200
 109.8862720  91.3584480   3.8480340 107.4720850  87.8257670  10.5487930
 108.1093070  88.4391810  10.9147120 107.6195740  87.8618330   9.6037160
  93.3300510  87.7871980   9.9343610  92.9815330  88.2435800  10.7001790
  92.9988210  86.8929110  10.0166040 100.8425330  88.9783860  13.4563030
 100.7814220  89.5705690  14.2058440 101.7825710  88.8709820  13.3113290
 103.4799890  88.6353920  13.0955320 104.0940300  88.9533210  12.4336400
 104.0249450  88.1502510  13.7151180  94.0021150  87.3148180  13.2094380
  94.5504140  87.1336230  12.4460490  94.0676460  86.5242290  13.7450690
 104.2207930  87.1986060   9.4224610 103.3467770  87.5321170   9.2197540
 104.1118680  86.7259240  10.2476480 105.1279910  89.4056930  10.8066330
 104.7993270  88.5908690  10.4268060 106.0762210  89.3626740  10.6832020
 101.9682750  88.1155900   8.3617520 101.1854540  88.5901400   8.6414280
 101.6745680  87.2110730   8.2530700 106.5203820  88.8179000   6.4066610
 106.9611910  88.7624100   5.5588210 106.2511410  89.7337010   6.4776790
 108.3842390  88.4494240   4.4175430 108.3230790  87.5055460   4.2706450
 109.1634420  88.5574330   4.9628890  99.8536970  90.5342650   3.8733550
  99.0411480  90.1599540   3.5329430 100.3578610  89.7787730   4.1754740
 104.3561950  87.1985100   5.1116620 104.9591320  87.7705310   5.5865140
 103.6154940  87.7624540   4.8890520  97.8786150  88.6842570   2.4778600
  97.2488890  87.9829880   2.6448730  97.3391290  89.4446700   2.2611760
  98.0041710  87.9626550  14.9131090  97.7225980  88.4660150  14.1491910
  98.3861410  87.1648300  14.5473220 104.6057170  87.3780130  15.4911560
 104.4922620  87.6974740  16.3863080 105.4226910  87.7792640  15.1948840
 103.5115320  76.6229110  98.5007240 103.4309370  75.7083720  98.2298950
 103.0979740  77.1196180  97.7946950 101.6433360  78.4008130 100.3816510
 100.8675460  77.9208570 100.6715080 102.2946290  77.7213780 100.2072670
  95.6599190  78.7127940 101.2592270  94.8284070  78.4576650 101.6588780
  96.2680170  78.7838710 101.9950190 105.6640790  82.8068320  99.1615640
 105.2022320  82.0355560  99.4902810 106.4766340  82.8334390  99.6668090
  95.6400450  82.7468030 101.4550290  95.9428490  81.8565770 101.2760510
  96.3844040  83.3038250 101.2272540  94.0691140  73.6729830  95.0434660
  93.1807840  74.0145800  94.9414540  94.3532330  73.4730150  94.1515490
  92.0324150  76.2735480 100.9274360  92.6040260  75.5057680 100.9278000
  92.0325690  76.5724240 100.0180970 101.8904100  85.0926330  98.7819630
 101.2715540  85.5483830  98.2114070 102.7455880  85.2477790  98.3809330
 101.0842350  81.0765320 100.3886670 101.0150630  80.1355260 100.2275800
 101.8462210  81.1666730 100.9609240  93.2749020  71.6819840 102.7143290
  93.0951860  70.7845590 102.9946050  92.8729100  72.2291710 103.3890240
 102.1147520  73.8835700 100.6155600 102.4912340  73.0107580 100.5029270
 102.0167030  74.2194400  99.7246040  96.2452530  72.2561330  96.0773040
  96.3519280  73.1565060  96.3841800  95.3344890  72.2079300  95.7867690
 105.8971640  71.3786140  97.5483940 106.7181260  70.8882710  97.5909420
 105.9305720  71.9683800  98.3015780  93.8935690  74.1780340 101.3225630
  94.5745800  74.4418710 101.9413030  93.5783740  73.3381210 101.6563640
  98.0860260  75.2247700 100.4098220  98.5938480  75.7228670 101.0503240
  98.6173500  74.4482900 100.2337580 110.1871190  73.3952890 104.1127570
 109.4823360  73.7834600 103.5942680 110.4529110  74.0903180 104.7148500
  96.3696360  69.8646260 104.6761640  96.3714800  70.3818650 103.8707540
  95.5400670  69.3876440 104.6531570 102.7567450  79.9765570  96.1751540
 102.1384720  80.4415020  95.6114260 103.2690700  80.6693050  96.5921050
  97.6199210  79.5041440 102.8535140  97.2868590  80.1310360 103.4956210
  97.7965890  80.0303320 102.0736810 106.1333120  73.3186520 100.3211480
 105.4288690  73.6071410 100.9014590 106.4945280  74.1286630  99.9611040
  96.0511690  71.5756220 102.6832090  96.3928500  72.4198270 102.3885960
  95.1127500  71.7239960 102.7997430  96.8318310  81.4722240 104.6684320
  97.4492310  82.1473320 104.3868770  95.9711430  81.8810220 104.5771820
  92.1250650  80.6622100  93.5491170  91.7478630  81.1509200  92.8176070
  92.3823720  81.3347380  94.1797700 107.7495900  82.9361650 102.5838960
 107.0659420  83.6060760 102.5755630 108.2890190  83.1342300 101.8183820
 109.2020040  72.7641310 100.7120690 108.2544950  72.7980290 100.8436120
 109.5270030  73.5780260 101.0970050  99.7339580  69.0638490  99.0076680
 100.0414560  68.5085380  98.2912180  98.8040280  69.1982950  98.8249670
 105.2854640  84.7805780 101.2984140 105.2981800  84.3768070 100.4306400
 104.7329860  85.5553070 101.1945570 106.5800060  81.5022000  96.3874310
 106.4696390  80.5596330  96.5123730 106.5768310  81.8637640  97.2737070
 104.6840080  79.6835620 102.6266750 105.1008870  79.4695730 101.7920210
 105.4079900  79.9408410 103.1975370 102.1220340  77.1287320  95.7436800
 101.1949620  77.0624700  95.9725270 102.2745160  78.0667450  95.6292040
 102.1089420  73.4004320  92.7403960 101.1693090  73.5618280  92.8256420
 102.4272680  74.1190000  92.1939950 108.6302180  78.0822840 102.7182990
 107.8020810  78.1515930 102.2433120 109.2252660  78.6677150 102.2498820
 106.1517630  78.6907620  96.2472050 105.5330050  78.3527170  95.5998350
 106.1342080  78.0467380  96.9551240 105.5944190  74.8692160 103.6637860
 105.1815370  75.6945870 103.9177850 104.8620140  74.2837200 103.4714220
  97.7276980  77.6552060  98.5256530  97.3233980  76.9429310  98.0302430
  97.8140100  77.3105300  99.4144570  98.1958680  81.3419620 100.6895740
  97.8986970  80.7365090 100.0103520  99.1458500  81.3796930 100.5785100
  96.4405600  74.4295270 102.3055570  96.9920190  74.5390610 101.5308820
  96.9549110  74.8032870 103.0210800 106.2844290  84.9151490 104.3518840
 105.8074850  85.7223680 104.1591450 105.6006080  84.2629820 104.5045050
 104.3282330  77.9294430  93.2544800 104.7675610  77.0916860  93.1082620
 105.0410750  78.5623830  93.3408940 102.4377710  82.8690500  97.2226040
 102.8773620  83.6114830  96.8081430 102.3764600  83.1117070  98.1465000
 107.9099470  69.1837240  91.5685840 107.5972130  69.2764070  92.4684910
 108.6711940  69.7618270  91.5183270  94.4281610  76.5497040  96.0263180
  94.3079210  77.2759130  95.4144450  94.1182500  75.7799950  95.5491090
  92.0666980  79.7212180 101.8331820  92.1447400  79.8560950 100.8887540
  92.6808660  79.0128070 102.0259940  93.3114610  81.4212370  98.2438000
  92.9042690  81.5626960  97.3891600  94.2027620  81.1372530  98.0409210
 105.1047890  85.8559620  94.5789050 104.9449030  85.5662560  95.4770880
 104.9394600  85.0799750  94.0434280  97.5836270  85.6358150  96.3560670
  97.4078750  84.7193690  96.1428470  96.7292010  85.9945440  96.5958470
 104.8074020  83.3647180  93.1387050 104.1139180  83.3624470  92.4789330
 105.5496880  82.9406500  92.7081220 104.3723950  84.9909890  97.2135540
 104.8280900  84.2099270  97.5274160 104.7116470  85.7016710  97.7576720
  96.8945270  69.8932110  99.4086850  96.4513420  70.6741650  99.0771370
  97.4530260  70.2162000 100.1157790 100.0104090  69.5142810  94.2892680
  99.3858270  69.5102680  95.0145990  99.9234210  68.6473770  93.8928650
  98.9321170  70.4379440 101.2676450  99.2293500  71.3442270 101.1868470
  99.4806730  69.9498220 100.6536020  96.6859490  75.0165680  97.1368100
  96.4600410  74.8002850  98.0414720  95.9052020  75.4494140  96.7914070
 103.9157250  75.0229050  95.7358750 103.3166140  75.7464850  95.5522370
 104.4636860  74.9605830  94.9535200 102.5222120  73.6592590  97.7662030
 102.9151690  73.9764790  96.9530720 102.8838970  72.7804470  97.8806550
  91.5586290  70.2493390  99.9892230  91.2699340  70.8196250 100.7017210
  92.3032050  69.7697840 100.3523460  91.7456520  74.1913510  91.1994950
  91.6631190  75.1344270  91.3409940  91.3939580  74.0488420  90.3207300
 103.1077260  76.2498340 101.8612810 102.3758380  76.7585150 102.2102910
 102.7101600  75.4328320 101.5601590  99.5454650  72.9252540 100.2665300
  99.5490710  72.4842490  99.4169840 100.4405770  73.2469870 100.3737120
  95.3957030  72.8079030  99.2259510  95.0557080  73.2854260  99.9826560
  94.6334350  72.3544150  98.8660610  99.6074800  73.9264620  93.2572060
  99.7287620  73.8851100  94.2057880  99.2223310  74.7888770  93.1018790
 103.5703170  71.7032020 101.2735750 103.5875910  72.1540670 102.1177600
 103.3218750  70.8037660 101.4869190  98.6196300  76.2365760  92.6555360
  98.0513200  75.7884010  92.0291270  99.3285300  76.5958540  92.1220510
  99.8462620  76.9854320 102.0130710 100.2132750  76.5112890 102.7592050
  99.6567680  77.8595890 102.3539050  92.7103110  71.7298010  98.1424180
  92.4250030  71.3653680  98.9802800  92.6481970  70.9978470  97.5287320
  97.6361990  76.0262960 104.3314920  97.3319060  76.9054940 104.5565280
  98.5908450  76.0862750 104.3672360  96.1643780  80.2323950  94.9281770
  95.3906040  79.6921570  94.7680490  96.8938410  79.7130560  94.5899530
 106.9231760  79.2289310 100.7208160 107.6430880  79.7244600 100.3304270
 106.7213580  78.5507200 100.0762030 102.3841700  70.6227270  94.8637550
 101.5706310  70.1240440  94.7882860 102.1903650  71.4625520  94.4473900
 105.0990090  74.9946920  93.1599710 105.9869710  75.3064150  92.9851050
 105.0695180  74.1219170  92.7680290  96.2081180  79.9004330  98.5660580
  96.7259850  79.0972590  98.5117470  95.7565200  79.8383470  99.4077410
 101.0950680  81.1670610  93.8387880 101.4366380  81.9112840  93.3431200
 100.2663390  81.4801730  94.2012710 107.3704360  76.3058760  92.6279570
 107.2868080  76.7372980  91.7776010 108.0898550  76.7657110  93.0606390
 108.3991610  83.1601020  95.3561700 107.7567770  82.5056640  95.6305420
 108.0122270  83.5656110  94.5802370 103.9778090  80.4886450  99.2033390
 104.3301910  79.8914580  98.5434760 103.0940420  80.1630680  99.3741640
 100.0641370  81.2484140  96.6103800 100.7512500  81.7953350  96.9911390
  99.2773790  81.7924870  96.6453410  92.2033770  76.8656960  92.1020880
  93.0728620  77.1481760  92.3856800  91.7124090  77.6792830  91.9869690
  99.3668580  78.2530170  96.2229160  99.8231360  79.0635420  96.4489350
  99.0156790  77.9353310  97.0547650 101.6701190  83.7636510 103.4521460
 102.3143410  83.9695890 104.1294880 102.0330630  83.0024910 102.9992310
  95.2680360  68.5967820  96.6951680  95.1394990  68.5885720  97.6436600
  94.4442380  68.9350910  96.3442690 102.9433270  81.7668860 102.1698910
 103.5855500  81.0662020 102.2831080 103.4682620  82.5467300 101.9895800
 106.7888990  82.0517480  91.8938050 106.5626570  81.3347920  92.4862690
 106.3985190  81.8029920  91.0559800  92.5705020  86.0784340  92.6682510
  92.9302660  86.6773680  92.0139780  92.4297360  86.6244230  93.4417540
 106.3705240  79.9689420  93.5552210 106.0826940  80.4302110  94.3430090
 107.1657410  79.5087190  93.8236430  98.5873640  83.4615540  93.4856180
  98.5783740  84.1945230  92.8700690  97.6672000  83.2147120  93.5783140
  94.1880280  78.6830430  94.2302940  93.5808230  79.4229330  94.2398240
  94.6629630  78.7729790  93.4041140 103.7613070  72.8481250 103.9059830
 104.1293890  72.0276460 104.2339400 102.9011270  72.9083140 104.3215480
 107.1275100  71.8038190  94.7147390 106.4988260  71.9083860  94.0005620
 106.6327020  72.0234970  95.5041270 101.5733240  83.5243780  92.1481370
 101.6745220  83.3207770  91.2183350 100.6734980  83.2702060  92.3529150
  99.0959130  74.0824140  96.1305270  98.3875280  74.5510480  96.5718880
  99.3803610  73.4246150  96.7650460 100.7215060  75.5020840 104.1297800
 101.2200310  75.9766660 104.7949650 100.8638010  74.5784360 104.3367830
 103.1274560  70.8074800  97.5701060 103.0042340  70.8260930  96.6210570
 104.0759120  70.8553740  97.6899460 100.2151350  86.0430100  96.8429040
 100.4692850  86.0051490  95.9208410  99.2663830  85.9163430  96.8357290
  97.2994150  72.3909220  93.5055980  98.1484680  72.8279370  93.4396170
  96.9325420  72.7029480  94.3328040 106.2203930  76.9621980  98.4187550
 105.2794070  76.9772210  98.5935240 106.5348000  76.1757940  98.8647850
  96.1985570  78.6441580  91.9791510  96.9648840  78.5322940  92.5416940
  96.2760260  77.9479550  91.3268280  94.8932330  76.0766650  92.6624400
  94.9735920  75.1294160  92.7741800  95.7852080  76.4073530  92.7685060
 108.2229510  84.1330830 100.0941810 108.3476930  84.9562000 100.5665620
 109.0895070  83.9221560  99.7465960  95.6947040  86.2262040  99.7658940
  96.4309520  85.6777500 100.0367510  96.0787960  87.0918050  99.6264930
  92.5792520  82.2935610  95.6400450  91.6532300  82.5356750  95.6305860
  93.0448950  83.1209870  95.5185200  98.8049350  85.3992350  91.5884510
  99.5977960  85.6881180  91.1366300  98.2853700  84.9684520  90.9096990
 107.8579520  84.6262480  93.0121250 107.5721030  84.2127620  92.1975430
 107.6599070  85.5550190  92.8921770  99.3226750  80.6195760  91.4526860
  99.2177390  80.0048110  92.1788240  99.1550970  80.0961650  90.6689870
 102.5629480  79.6815790  92.0568850 102.0139580  80.1285090  92.7011590
 103.1848740  79.1765040  92.5806520  98.2304600  78.6406710  93.9534150
  98.6521020  78.4746580  94.7965540  98.3555440  77.8306940  93.4589290
 100.7432240  77.6644320  91.2011250 101.2637900  76.9493340  90.8352400
 101.3900640  78.3030190  91.5011760  99.6465760  70.1438870 103.8729810
  99.1983060  70.1663130 103.0275360  99.0130960  69.7457890 104.4700110
 100.0525310  79.0393200 104.4942250 100.4713420  79.8825930 104.3218490
  99.1333940  79.1765240 104.2649030  97.1263500  74.7139940  90.8992310
  96.9252560  73.8507300  91.2605650  96.9555550  74.6273300  89.9613910
 104.6051810  69.5248170  93.4279190 104.8854100  68.6816070  93.7838610
 103.8317540  69.7571280  93.9417940  95.9246300  71.8140560  90.8870190
  96.2272200  71.8207990  89.9789340  96.6640890  71.4638420  91.3837850
  99.1431230  70.7575180  91.8726390  98.7953230  70.0799170  91.2928840
  99.3444000  70.2964690  92.6869780 101.3080270  85.7455930  93.4912990
 102.2031060  86.0840900  93.5131750 101.3397900  85.0235340  92.8637270
  94.9476430  81.1182980  91.7199990  95.3851300  81.6612650  92.3757570
  95.4324160  80.2929930  91.7296330  92.1622230  83.9072010  99.1720250
  92.4925240  83.0393070  98.9398890  92.5913230  84.1130530 100.0025210
  96.7584150  82.2381020  96.8322220  96.4579690  82.1145990  97.7326130
  96.6521640  81.3789610  96.4237950  92.6512440  84.7742600 101.9101880
  92.2143430  84.9543400 102.7426030  93.2190120  85.5317220 101.7683600
 109.5276070  82.0177420  91.5348900 108.6969030  82.0854070  92.0056130
 109.7047900  82.9081540  91.2315760 108.9832530  78.7624900  94.0383100
 109.7451440  79.3321550  94.1442790 108.9986900  78.1952100  94.8091410
  92.4836870  77.2862830  98.2690760  91.8285710  77.0174470  97.6250460
  93.3214820  77.1767310  97.8192740 109.9892500  79.6175000  98.8825030
 110.3601330  78.8342320  98.4761000 110.6294430  80.3064100  98.7042330
 106.9726260  81.0011580 104.2955350 106.1586100  81.4308740 104.5581140
 107.3800460  81.6129990 103.6824400 109.0351700  79.0559270  91.1955620
 109.3100540  79.9638150  91.0674840 108.8462440  78.9921800  92.1317610
 105.4327310  72.0804120  92.4909250 105.8512190  71.8935100  91.6505910
 105.1263370  71.2283170  92.8012180 108.9317040  76.9928260  96.1885050
 108.5560640  76.2256190  95.7566340 108.2020160  77.3750960  96.6759980
  93.5212800  77.6715400 102.8094100  93.8885840  77.5842800 103.6890120
  92.9523620  76.9081950 102.7100960  91.6974950  74.4961760  94.2116090
  90.7939030  74.7591960  94.0367750  92.1815570  74.7672930  93.4316050
 108.2068000  75.2185750  99.4892290 108.7305480  74.7248400  98.8582460
 108.7927420  75.3536110 100.2339860 108.3857720  75.3025620 103.0111840
 107.4360430  75.2689160 103.1256830 108.5670730  76.2125730 102.7761610
  94.2402160  73.5527300  92.1210470  94.9493860  73.1310520  91.6357750
  93.5242100  73.6202530  91.4893820  93.8876320  69.6066630  91.1613120
  94.6104450  70.1475570  91.4794340  94.1600840  69.3330050  90.2854660
 107.6967970  74.4759100  95.4284700 108.1927090  74.2429970  96.2133580
 107.4984040  73.6370940  95.0122340  93.5768510  68.8572820 101.0635740
  94.2244700  68.3070200 100.6230900  93.9970350  69.1115970 101.8851550
 109.1255130  73.1120050  97.9622380 109.0154410  72.9576090  98.9004650
 109.8862720  72.5840990  97.7197790 107.4720850  69.0514180 104.4205380
 108.1093070  69.6648320 104.7864570 107.6195740  69.0874840 103.4754610
 110.0145400  70.9427970  91.2028520 110.9394710  70.8109150  90.9946810
 109.9921190  71.0220790  92.1564970 110.0883890  71.7138630  93.8285230
 109.2935390  71.6483750  94.3578140 110.2927170  72.6489270  93.8170580
 107.0302310  85.7530180  97.8223620 107.6261380  85.4314750  97.1458040
 107.2880460  85.2802000  98.6136890  93.3300510  69.0128490 103.8061060
  92.9815330  69.4692310 104.5719240  92.9988210  68.1185620 103.8883490
  98.6370910  83.7407680 103.5723970  98.3962270  84.0082240 102.6854490
  99.5773550  83.9113410 103.6274830 109.8975070  85.7602060 104.3734610
 109.4033350  86.1570930 103.6561740 109.2888360  85.1351270 104.7671890
 104.2207930  68.4242570 103.2942060 103.3467770  68.7577680 103.0914990
 104.1118680  67.9515750 104.1193930 105.1279910  70.6313440 104.6783780
 104.7993270  69.8165200 104.2985510 106.0762210  70.5883250 104.5549470
 107.5814520  86.4025480 101.6521350 107.1217490  87.1541290 101.2779370
 106.9526980  85.6831950 101.5936150  94.4065140  82.4968720 104.0420070
  93.6799200  81.8774010 103.9746020  94.4674290  82.8909330 103.1718150
  98.0110240  84.7113720 100.8269480  98.5275260  84.1001080 100.3017740
  98.6607620  85.2142500 101.3180490 100.7505740  85.6022210 101.6538460
 101.0383550  85.3476510 100.7771470 101.2628960  85.0499570 102.2444030
 101.9682750  69.3412410 102.2334970 101.1854540  69.8157910 102.5131730
 101.6745680  68.4367240 102.1248150 106.5203820  70.0435510 100.2784060
 106.9611910  69.9880610  99.4305660 106.2511410  70.9593520 100.3494240
 108.3842390  69.6750750  98.2892880 108.3230790  68.7311970  98.1423900
 109.1634420  69.7830840  98.8346340  92.6895140  85.8143110  97.2516830
  92.5217180  85.1813790  97.9498720  91.8229650  86.0202510  96.9011020
  93.3123160  69.6459890  94.7548690  94.0702520  69.7588770  94.1812720
  92.8500330  70.4829090  94.7092120  99.8536970  71.7599160  97.7451000
  99.0411480  71.3856050  97.4046880 100.3578610  71.0044240  98.0472190
 104.3561950  68.4241610  98.9834070 104.9591320  68.9961820  99.4582590
 103.6154940  68.9881050  98.7607970 107.4996550  68.8263170  94.2574350
 107.6947180  69.7246620  94.5241780 106.7126420  68.5950250  94.7507300
  94.2957840  84.5076340  94.6966970  93.7705460  84.8884370  93.9928930
  94.2202420  85.1327110  95.4176680  95.6848310  70.1723940  93.2950660
  96.2141070  69.3853740  93.1658610  96.3176630  70.8515130  93.5286190
  97.8786150  69.9099080  96.3496050  97.2488890  69.2086390  96.5166180
  97.3391290  70.6703210  96.1329210 109.0523160  86.0663880  96.0180910
 109.2275350  85.3801620  95.3741830 108.3544730  86.5910930  95.6257580
  96.8950810  86.4558720  93.5716220  97.6269630  86.1718000  93.0240110
  97.1544480  86.2172000  94.4615600  96.0565600  82.5723450  93.5762550
  95.4274480  83.0408550  94.1248380  96.1713430  81.7272670  94.0108740
 103.5115320  76.6229110  79.7263750 103.4309370  75.7083720  79.4555460
 103.0979740  77.1196180  79.0203460 101.6433360  78.4008130  81.6073020
 100.8675460  77.9208570  81.8971590 102.2946290  77.7213780  81.4329180
  95.6599190  78.7127940  82.4848780  94.8284070  78.4576650  82.8845290
  96.2680170  78.7838710  83.2206700 105.6640790  82.8068320  80.3872150
 105.2022320  82.0355560  80.7159320 106.4766340  82.8334390  80.8924600
  95.6400450  82.7468030  82.6806800  95.9428490  81.8565770  82.5017020
  96.3844040  83.3038250  82.4529050  94.0691140  73.6729830  76.2691170
  93.1807840  74.0145800  76.1671050  94.3532330  73.4730150  75.3772000
  92.0324150  76.2735480  82.1530870  92.6040260  75.5057680  82.1534510
  92.0325690  76.5724240  81.2437480 101.8904100  85.0926330  80.0076140
 101.2715540  85.5483830  79.4370580 102.7455880  85.2477790  79.6065840
 101.0842350  81.0765320  81.6143180 101.0150630  80.1355260  81.4532310
 101.8462210  81.1666730  82.1865750  93.2749020  71.6819840  83.9399800
  93.0951860  70.7845590  84.2202560  92.8729100  72.2291710  84.6146750
 102.1147520  73.8835700  81.8412110 102.4912340  73.0107580  81.7285780
 102.0167030  74.2194400  80.9502550  96.2452530  72.2561330  77.3029550
  96.3519280  73.1565060  77.6098310  95.3344890  72.2079300  77.0124200
 105.8971640  71.3786140  78.7740450 106.7181260  70.8882710  78.8165930
 105.9305720  71.9683800  79.5272290  93.8935690  74.1780340  82.5482140
  94.5745800  74.4418710  83.1669540  93.5783740  73.3381210  82.8820150
  98.0860260  75.2247700  81.6354730  98.5938480  75.7228670  82.2759750
  98.6173500  74.4482900  81.4594090 110.1871190  73.3952890  85.3384080
 109.4823360  73.7834600  84.8199190 110.4529110  74.0903180  85.9405010
  96.3696360  69.8646260  85.9018150  96.3714800  70.3818650  85.0964050
  95.5400670  69.3876440  85.8788080 102.7567450  79.9765570  77.4008050
 102.1384720  80.4415020  76.8370770 103.2690700  80.6693050  77.8177560
  97.6199210  79.5041440  84.0791650  97.2868590  80.1310360  84.7212720
  97.7965890  80.0303320  83.2993320 106.1333120  73.3186520  81.5467990
 105.4288690  73.6071410  82.1271100 106.4945280  74.1286630  81.1867550
  96.0511690  71.5756220  83.9088600  96.3928500  72.4198270  83.6142470
  95.1127500  71.7239960  84.0253940  96.8318310  81.4722240  85.8940830
  97.4492310  82.1473320  85.6125280  95.9711430  81.8810220  85.8028330
  92.1250650  80.6622100  74.7747680  91.7478630  81.1509200  74.0432580
  92.3823720  81.3347380  75.4054210 107.7495900  82.9361650  83.8095470
 107.0659420  83.6060760  83.8012140 108.2890190  83.1342300  83.0440330
 109.2020040  72.7641310  81.9377200 108.2544950  72.7980290  82.0692630
 109.5270030  73.5780260  82.3226560  99.7339580  69.0638490  80.2333190
 100.0414560  68.5085380  79.5168690  98.8040280  69.1982950  80.0506180
 105.2854640  84.7805780  82.5240650 105.2981800  84.3768070  81.6562910
 104.7329860  85.5553070  82.4202080 106.5800060  81.5022000  77.6130820
 106.4696390  80.5596330  77.7380240 106.5768310  81.8637640  78.4993580
 104.6840080  79.6835620  83.8523260 105.1008870  79.4695730  83.0176720
 105.4079900  79.9408410  84.4231880 102.1220340  77.1287320  76.9693310
 101.1949620  77.0624700  77.1981780 102.2745160  78.0667450  76.8548550
 102.1089420  73.4004320  73.9660470 101.1693090  73.5618280  74.0512930
 102.4272680  74.1190000  73.4196460 108.6302180  78.0822840  83.9439500
 107.8020810  78.1515930  83.4689630 109.2252660  78.6677150  83.4755330
 106.1517630  78.6907620  77.4728560 105.5330050  78.3527170  76.8254860
 106.1342080  78.0467380  78.1807750 105.5944190  74.8692160  84.8894370
 105.1815370  75.6945870  85.1434360 104.8620140  74.2837200  84.6970730
  97.7276980  77.6552060  79.7513040  97.3233980  76.9429310  79.2558940
  97.8140100  77.3105300  80.6401080  98.1958680  81.3419620  81.9152250
  97.8986970  80.7365090  81.2360030  99.1458500  81.3796930  81.8041610
  96.4405600  74.4295270  83.5312080  96.9920190  74.5390610  82.7565330
  96.9549110  74.8032870  84.2467310 106.2844290  84.9151490  85.5775350
 105.8074850  85.7223680  85.3847960 105.6006080  84.2629820  85.7301560
  97.2877110  81.0801310  88.5660050  96.3905640  81.3041280  88.8133450
  97.3129980  81.2036250  87.6171450 104.3282330  77.9294430  74.4801310
 104.7675610  77.0916860  74.3339130 105.0410750  78.5623830  74.5665450
  96.1148330  77.9514630  87.1417420  95.9756100  78.8237430  87.5104820
  95.2329690  77.6087440  86.9965360 102.4377710  82.8690500  78.4482550
 102.8773620  83.6114830  78.0337940 102.3764600  83.1117070  79.3721510
  97.9128680  83.8936330  89.3502570  97.8844110  84.2979280  88.4831000
  97.7493650  82.9646690  89.1874170 107.9099470  69.1837240  72.7942350
 107.5972130  69.2764070  73.6941420 108.6711940  69.7618270  72.7439780
  94.4281610  76.5497040  77.2519690  94.3079210  77.2759130  76.6400960
  94.1182500  75.7799950  76.7747600 109.8643500  84.6763430  90.6466740
 110.3403220  85.1546320  91.3255820 110.4850660  84.6080920  89.9212240
  92.0666980  79.7212180  83.0588330  92.1447400  79.8560950  82.1144050
  92.6808660  79.0128070  83.2516450  93.3114610  81.4212370  79.4694510
  92.9042690  81.5626960  78.6148110  94.2027620  81.1372530  79.2665720
 109.2676750  81.8676280  87.8066750 109.3939810  81.6288160  86.8883930
 109.3098130  81.0360820  88.2788830 103.1293490  85.5704280  86.3761560
 103.6438160  85.4812290  87.1783990 102.2862570  85.9163980  86.6689470
 105.1047890  85.8559620  75.8045560 104.9449030  85.5662560  76.7027390
 104.9394600  85.0799750  75.2690790  97.5836270  85.6358150  77.5817180
  97.4078750  84.7193690  77.3684980  96.7292010  85.9945440  77.8214980
 104.8074020  83.3647180  74.3643560 104.1139180  83.3624470  73.7045840
 105.5496880  82.9406500  73.9337730 104.3723950  84.9909890  78.4392050
 104.8280900  84.2099270  78.7530670 104.7116470  85.7016710  78.9833230
 109.1200760  73.9208740  88.7716490 108.5045030  74.4288410  88.2431950
 108.7997180  73.0207070  88.7142430  92.1226500  80.7626350  85.5982790
  92.2857540  80.2931710  84.7802160  92.5878950  80.2549910  86.2631630
  96.8945270  69.8932110  80.6343360  96.4513420  70.6741650  80.3027880
  97.4530260  70.2162000  81.3414300 101.1815080  72.7600630  86.2378680
 100.7194450  72.9683650  87.0498620 100.7793190  71.9459980  85.9349350
 106.1819590  73.9809580  87.3675340 105.3313180  73.6815330  87.6884410
 106.0221380  74.2251590  86.4559160 103.2769300  75.4811330  89.4674130
 103.6022710  74.6475080  89.1276360 104.0649630  76.0039850  89.6152460
 100.0104090  69.5142810  75.5149190  99.3858270  69.5102680  76.2402500
  99.9234210  68.6473770  75.1185160  98.9321170  70.4379440  82.4932960
  99.2293500  71.3442270  82.4124980  99.4806730  69.9498220  81.8792530
  96.6859490  75.0165680  78.3624610  96.4600410  74.8002850  79.2671230
  95.9052020  75.4494140  78.0170580 103.9157250  75.0229050  76.9615260
 103.3166140  75.7464850  76.7778880 104.4636860  74.9605830  76.1791710
  99.1258700  75.9151260  89.0284880  99.0302300  74.9745990  88.8785280
  99.9690680  76.1366330  88.6332950 102.5222120  73.6592590  78.9918540
 102.9151690  73.9764790  78.1787230 102.8838970  72.7804470  79.1063060
  94.2569240  72.3264930  87.1818660  93.8632630  73.1740140  87.3891440
  93.5687640  71.6891300  87.3727300 100.8314290  72.4099900  90.2515400
 100.1412610  72.2172100  90.8861490 101.5746590  72.6934540  90.7839700
  91.5586290  70.2493390  81.2148740  91.2699340  70.8196250  81.9273720
  92.3032050  69.7697840  81.5779970  91.7456520  74.1913510  72.4251460
  91.6631190  75.1344270  72.5666450  91.3939580  74.0488420  71.5463810
 103.1077260  76.2498340  83.0869320 102.3758380  76.7585150  83.4359420
 102.7101600  75.4328320  82.7858100  99.5454650  72.9252540  81.4921810
  99.5490710  72.4842490  80.6426350 100.4405770  73.2469870  81.5993630
  95.3957030  72.8079030  80.4516020  95.0557080  73.2854260  81.2083070
  94.6334350  72.3544150  80.0917120  99.6074800  73.9264620  74.4828570
  99.7287620  73.8851100  75.4314390  99.2223310  74.7888770  74.3275300
 103.5703170  71.7032020  82.4992260 103.5875910  72.1540670  83.3434110
 103.3218750  70.8037660  82.7125700  98.6196300  76.2365760  73.8811870
  98.0513200  75.7884010  73.2547780  99.3285300  76.5958540  73.3477020
 106.9973920  69.1164200  88.3378640 107.3219690  68.3853860  88.8636620
 107.0330430  68.7977840  87.4359630  93.6965480  80.1377780  87.7578600
  93.3120270  79.4971450  88.3561560  94.0077670  80.8413900  88.3273330
  99.8462620  76.9854320  83.2387220 100.2132750  76.5112890  83.9848560
  99.6567680  77.8595890  83.5795560  92.7103110  71.7298010  79.3680690
  92.4250030  71.3653680  80.2059310  92.6481970  70.9978470  78.7543830
  97.6361990  76.0262960  85.5571430  97.3319060  76.9054940  85.7821790
  98.5908450  76.0862750  85.5928870  96.1643780  80.2323950  76.1538280
  95.3906040  79.6921570  75.9937000  96.8938410  79.7130560  75.8156040
 106.9231760  79.2289310  81.9464670 107.6430880  79.7244600  81.5560780
 106.7213580  78.5507200  81.3018540 102.3841700  70.6227270  76.0894060
 101.5706310  70.1240440  76.0139370 102.1903650  71.4625520  75.6730410
 102.3050560  79.2998370  87.8333670 102.2387870  78.3794040  87.5791260
 101.6755700  79.3973810  88.5478310 105.0990090  74.9946920  74.3856220
 105.9869710  75.3064150  74.2107560 105.0695180  74.1219170  73.9936800
  96.2081180  79.9004330  79.7917090  96.7259850  79.0972590  79.7373980
  95.7565200  79.8383470  80.6333920 101.0950680  81.1670610  75.0644390
 101.4366380  81.9112840  74.5687710 100.2663390  81.4801730  75.4269220
  93.6925720  76.8665700  86.7042790  93.3340660  77.5319550  87.2916130
  93.3980280  76.0349250  87.0755410  96.8938840  77.3249940  89.5882340
  96.5938980  77.4707120  88.6910160  97.6650080  76.7655230  89.4955730
 102.2367290  82.1218940  87.5837470 102.2511830  81.1899900  87.3656380
 101.5292390  82.2078700  88.2227240 107.3704360  76.3058760  73.8536080
 107.2868080  76.7372980  73.0032520 108.0898550  76.7657110  74.2862900
 108.4478500  78.7626280  86.9306050 107.7226690  79.3555060  86.7335440
 108.9753960  78.7549820  86.1319420 108.3991610  83.1601020  76.5818210
 107.7567770  82.5056640  76.8561930 108.0122270  83.5656110  75.8058880
 103.9778090  80.4886450  80.4289900 104.3301910  79.8914580  79.7691270
 103.0940420  80.1630680  80.5998150 100.0641370  81.2484140  77.8360310
 100.7512500  81.7953350  78.2167900  99.2773790  81.7924870  77.8709920
  92.2033770  76.8656960  73.3277390  93.0728620  77.1481760  73.6113310
  91.7124090  77.6792830  73.2126200  99.3668580  78.2530170  77.4485670
  99.8231360  79.0635420  77.6745860  99.0156790  77.9353310  78.2804160
 101.6701190  83.7636510  84.6777970 102.3143410  83.9695890  85.3551390
 102.0330630  83.0024910  84.2248820  95.2680360  68.5967820  77.9208190
  95.1394990  68.5885720  78.8693110  94.4442380  68.9350910  77.5699200
 102.9433270  81.7668860  83.3955420 103.5855500  81.0662020  83.5087590
 103.4682620  82.5467300  83.2152310 106.7888990  82.0517480  73.1194560
 106.5626570  81.3347920  73.7119200 106.3985190  81.8029920  72.2816310
 104.7170890  82.5663760  86.5991480 105.0527130  83.1530450  87.2769400
 103.7971230  82.4356470  86.8289270  92.5705020  86.0784340  73.8939020
  92.9302660  86.6773680  73.2396290  92.4297360  86.6244230  74.6674050
  92.2674290  70.3558940  87.3814890  91.5532810  70.5555860  87.9867500
  92.6869330  69.5798510  87.7529690 106.3705240  79.9689420  74.7808720
 106.0826940  80.4302110  75.5686600 107.1657410  79.5087190  75.0492940
  92.5546880  84.3439200  88.3681420  92.6638000  83.4033940  88.2276810
  91.9027440  84.6093950  87.7195150 100.5459470  82.6155090  89.7679540
 100.2256340  81.8964330  90.3125230  99.8717830  83.2910160  89.8415600
  98.5873640  83.4615540  74.7112690  98.5783740  84.1945230  74.0957200
  97.6672000  83.2147120  74.8039650  94.1880280  78.6830430  75.4559450
  93.5808230  79.4229330  75.4654750  94.6629630  78.7729790  74.6297650
 103.7613070  72.8481250  85.1316340 104.1293890  72.0276460  85.4595910
 102.9011270  72.9083140  85.5471990 107.1275100  71.8038190  75.9403900
 106.4988260  71.9083860  75.2262130 106.6327020  72.0234970  76.7297780
 101.5733240  83.5243780  73.3737880 101.6745220  83.3207770  72.4439860
 100.6734980  83.2702060  73.5785660  99.0959130  74.0824140  77.3561780
  98.3875280  74.5510480  77.7975390  99.3803610  73.4246150  77.9906970
 100.7215060  75.5020840  85.3554310 101.2200310  75.9766660  86.0206160
 100.8638010  74.5784360  85.5624340 103.1274560  70.8074800  78.7957570
 103.0042340  70.8260930  77.8467080 104.0759120  70.8553740  78.9155970
 100.2151350  86.0430100  78.0685550 100.4692850  86.0051490  77.1464920
  99.2663830  85.9163430  78.0613800  97.2994150  72.3909220  74.7312490
  98.1484680  72.8279370  74.6652680  96.9325420  72.7029480  75.5584550
 107.9281920  71.7188800  86.1982700 107.4255520  72.4594200  86.5376510
 108.7438580  72.1072800  85.8819490 106.2203930  76.9621980  79.6444060
 105.2794070  76.9772210  79.8191750 106.5348000  76.1757940  80.0904360
  96.1985570  78.6441580  73.2048020  96.9648840  78.5322940  73.7673450
  96.2760260  77.9479550  72.5524790  94.8932330  76.0766650  73.8880910
  94.9735920  75.1294160  73.9998310  95.7852080  76.4073530  73.9941570
 108.2229510  84.1330830  81.3198320 108.3476930  84.9562000  81.7922130
 109.0895070  83.9221560  80.9722470  95.6947040  86.2262040  80.9915450
  96.4309520  85.6777500  81.2624020  96.0787960  87.0918050  80.8521440
  92.5792520  82.2935610  76.8656960  91.6532300  82.5356750  76.8562370
  93.0448950  83.1209870  76.7441710  94.7005320  85.4108110  90.1801030
  95.5018050  85.7320160  90.5936430  94.1857140  85.0503690  90.9020940
  98.8049350  85.3992350  72.8141020  99.5977960  85.6881180  72.3622810
  98.2853700  84.9684520  72.1353500 103.5369950  81.5187980  90.1276440
 102.9308110  81.5419580  89.3872190 103.2324060  80.7871020  90.6643690
 104.9670320  85.2468270  88.7385850 105.9192070  85.1626290  88.6886090
 104.8198540  85.9109980  89.4119640 107.8579520  84.6262480  74.2377760
 107.5721030  84.2127620  73.4231940 107.6599070  85.5550190  74.1178280
  92.4203130  77.8981570  89.1237080  92.9242150  77.3188850  89.6953310
  91.6810550  78.1821800  89.6613450  99.3226750  80.6195760  72.6783370
  99.2177390  80.0048110  73.4044750  99.1550970  80.0961650  71.8946380
  99.4741070  79.3052560  88.6572600  98.7086740  79.8737560  88.5727270
  99.6557030  79.0128770  87.7640830 102.5629480  79.6815790  73.2825360
 102.0139580  80.1285090  73.9268100 103.1848740  79.1765040  73.8063030
 106.6164420  81.0357890  89.2147620 107.3573890  81.3733650  88.7115080
 105.8537100  81.2049950  88.6617390  94.4526210  76.0411160  90.0187150
  94.4931550  75.7425030  90.9272380  95.3071710  76.4418770  89.8594670
  98.2304600  78.6406710  75.1790660  98.6521020  78.4746580  76.0222050
  98.3555440  77.8306940  74.6845800  96.3932020  74.6203260  87.9861640
  95.8628480  74.1294210  87.3584980  97.0620090  75.0487460  87.4519570
 100.7432240  77.6644320  72.4267760 101.2637900  76.9493340  72.0608910
 101.3900640  78.3030190  72.7268270 105.2910080  79.0872720  87.7502830
 105.7051100  79.2417800  88.5993250 104.3561080  79.2127940  87.9128610
 105.7632250  76.4268880  89.7541980 106.3453020  75.6721200  89.6662460
 105.9394020  76.9576320  88.9773460  96.8804320  71.5865630  88.0658930
  96.7861190  70.9686380  87.3409800  96.3001710  72.3131920  87.8388840
  99.6465760  70.1438870  85.0986320  99.1983060  70.1663130  84.2531870
  99.0130960  69.7457890  85.6956620 100.0525310  79.0393200  85.7198760
 100.4713420  79.8825930  85.5475000  99.1333940  79.1765240  85.4905540
 102.3889210  76.7709380  87.1036600 102.5085420  76.1750520  87.8431440
 103.2483210  76.8079070  86.6837900 104.7277110  77.3246570  85.6799110
 104.2012330  77.8489190  85.0764250 105.0708450  77.9573960  86.3108840
  97.1263500  74.7139940  72.1248820  96.9252560  73.8507300  72.4862160
  96.9555550  74.6273300  71.1870420  97.9032730  85.3446210  86.8356490
  97.3653820  86.0692270  86.5165190  98.1566690  84.8676550  86.0453830
  99.1557980  73.3130730  88.3612420  99.7457670  73.0046580  89.0490240
  98.3378220  72.8410480  88.5172320 103.9751410  72.9296540  88.5945440
 103.2866930  72.2678080  88.5295430 104.6957430  72.4834810  89.0393900
 104.6051810  69.5248170  74.6535700 104.8854100  68.6816070  75.0095120
 103.8317540  69.7571280  75.1674450  95.9246300  71.8140560  72.1126700
  96.2272200  71.8207990  71.2045850  96.6640890  71.4638420  72.6094360
 100.7594940  86.5797420  87.0943140 100.6853640  87.4832560  87.4015510
  99.8573780  86.2609320  87.0665210  99.1431230  70.7575180  73.0982900
  98.7953230  70.0799170  72.5185350  99.3444000  70.2964690  73.9126290
 101.3080270  85.7455930  74.7169500 102.2031060  86.0840900  74.7388260
 101.3397900  85.0235340  74.0893780  94.9476430  81.1182980  72.9456500
  95.3851300  81.6612650  73.6014080  95.4324160  80.2929930  72.9552840
  92.1622230  83.9072010  80.3976760  92.4925240  83.0393070  80.1655400
  92.5913230  84.1130530  81.2281720  96.7584150  82.2381020  78.0578730
  96.4579690  82.1145990  78.9582640  96.6521640  81.3789610  77.6494460
  92.6512440  84.7742600  83.1358390  92.2143430  84.9543400  83.9682540
  93.2190120  85.5317220  82.9940110 108.2874620  84.2759600  87.4235700
 107.6876610  84.3352160  86.6799620 108.4168520  83.3364580  87.5532550
 109.5276070  82.0177420  72.7605410 108.6969030  82.0854070  73.2312640
 109.7047900  82.9081540  72.4572270 108.9832530  78.7624900  75.2639610
 109.7451440  79.3321550  75.3699300 108.9986900  78.1952100  76.0347920
  92.4836870  77.2862830  79.4947270  91.8285710  77.0174470  78.8506970
  93.3214820  77.1767310  79.0449250 109.9892500  79.6175000  80.1081540
 110.3601330  78.8342320  79.7017510 110.6294430  80.3064100  79.9298840
 106.9726260  81.0011580  85.5211860 106.1586100  81.4308740  85.7837650
 107.3800460  81.6129990  84.9080910 109.0351700  79.0559270  72.4212130
 109.3100540  79.9638150  72.2931350 108.8462440  78.9921800  73.3574120
 105.4327310  72.0804120  73.7165760 105.8512190  71.8935100  72.8762420
 105.1263370  71.2283170  74.0268690 108.9317040  76.9928260  77.4141560
 108.5560640  76.2256190  76.9822850 108.2020160  77.3750960  77.9016490
  93.5212800  77.6715400  84.0350610  93.8885840  77.5842800  84.9146630
  92.9523620  76.9081950  83.9357470 108.3216660  76.1399780  87.0481080
 108.0902750  75.9112530  86.1479030 108.5821210  77.0599330  87.0025970
  93.0728800  74.5824490  87.9409030  92.1784850  74.5491250  88.2802740
  93.6126350  74.7811280  88.7060280 106.7604730  71.3656210  89.8260780
 107.6374910  71.3739610  90.2094780 106.7725570  70.6287050  89.2153130
  91.6974950  74.4961760  75.4372600  90.7939030  74.7591960  75.2624260
  92.1815570  74.7672930  74.6572560 108.2068000  75.2185750  80.7148800
 108.7305480  74.7248400  80.0838970 108.7927420  75.3536110  81.4596370
 108.3857720  75.3025620  84.2368350 107.4360430  75.2689160  84.3513340
 108.5670730  76.2125730  84.0018120  94.2402160  73.5527300  73.3466980
  94.9493860  73.1310520  72.8614260  93.5242100  73.6202530  72.7150330
  93.8876320  69.6066630  72.3869630  94.6104450  70.1475570  72.7050850
  94.1600840  69.3330050  71.5111170 107.6967970  74.4759100  76.6541210
 108.1927090  74.2429970  77.4390090 107.4984040  73.6370940  76.2378850
  93.5768510  68.8572820  82.2892250  94.2244700  68.3070200  81.8487410
  93.9970350  69.1115970  83.1108060 109.1255130  73.1120050  79.1878890
 109.0154410  72.9576090  80.1261160 109.8862720  72.5840990  78.9454300
 107.4720850  69.0514180  85.6461890 108.1093070  69.6648320  86.0121080
 107.6195740  69.0874840  84.7011120 110.0145400  70.9427970  72.4285030
 110.9394710  70.8109150  72.2203320 109.9921190  71.0220790  73.3821480
 110.0883890  71.7138630  75.0541740 109.2935390  71.6483750  75.5834650
 110.2927170  72.6489270  75.0427090 107.0302310  85.7530180  79.0480130
 107.6261380  85.4314750  78.3714550 107.2880460  85.2802000  79.8393400
  93.3300510  69.0128490  85.0317570  92.9815330  69.4692310  85.7975750
  92.9988210  68.1185620  85.1140000  94.9364880  82.1848090  89.1970760
  94.8934510  81.8141000  90.0785220  95.0675890  83.1225660  89.3372580
  98.6370910  83.7407680  84.7980480  98.3962270  84.0082240  83.9111000
  99.5773550  83.9113410  84.8531340 100.8425330  70.2040370  88.5536990
 100.7814220  70.7962200  89.3032400 101.7825710  70.0966330  88.4087250
 103.4799890  69.8610430  88.1929280 104.0940300  70.1789720  87.5310360
 104.0249450  69.3759020  88.8125140 109.8975070  85.7602060  85.5991120
 109.4033350  86.1570930  84.8818250 109.2888360  85.1351270  85.9928400
  94.0021150  68.5404690  88.3068340  94.5504140  68.3592740  87.5434450
  94.0676460  67.7498800  88.8424650  94.7752910  85.1310340  86.3168540
  94.1813230  84.9995040  87.0558580  94.7676750  84.2948480  85.8510640
 104.2207930  68.4242570  84.5198570 103.3467770  68.7577680  84.3171500
 104.1118680  67.9515750  85.3450440 105.1279910  70.6313440  85.9040290
 104.7993270  69.8165200  85.5242020 106.0762210  70.5883250  85.7805980
 107.5814520  86.4025480  82.8777860 107.1217490  87.1541290  82.5035880
 106.9526980  85.6831950  82.8192660  94.4065140  82.4968720  85.2676580
  93.6799200  81.8774010  85.2002530  94.4674290  82.8909330  84.3974660
  98.0110240  84.7113720  82.0525990  98.5275260  84.1001080  81.5274250
  98.6607620  85.2142500  82.5437000 100.7505740  85.6022210  82.8794970
 101.0383550  85.3476510  82.0027980 101.2628960  85.0499570  83.4700540
 101.9682750  69.3412410  83.4591480 101.1854540  69.8157910  83.7388240
 101.6745680  68.4367240  83.3504660 106.5203820  70.0435510  81.5040570
 106.9611910  69.9880610  80.6562170 106.2511410  70.9593520  81.5750750
 108.3842390  69.6750750  79.5149390 108.3230790  68.7311970  79.3680410
 109.1634420  69.7830840  80.0602850  92.6895140  85.8143110  78.4773340
  92.5217180  85.1813790  79.1755230  91.8229650  86.0202510  78.1267530
  93.3123160  69.6459890  75.9805200  94.0702520  69.7588770  75.4069230
  92.8500330  70.4829090  75.9348630  99.8536970  71.7599160  78.9707510
  99.0411480  71.3856050  78.6303390 100.3578610  71.0044240  79.2728700
 104.3561950  68.4241610  80.2090580 104.9591320  68.9961820  80.6839100
 103.6154940  68.9881050  79.9864480 107.4996550  68.8263170  75.4830860
 107.6947180  69.7246620  75.7498290 106.7126420  68.5950250  75.9763810
  94.2957840  84.5076340  75.9223480  93.7705460  84.8884370  75.2185440
  94.2202420  85.1327110  76.6433190  95.6848310  70.1723940  74.5207170
  96.2141070  69.3853740  74.3915120  96.3176630  70.8515130  74.7542700
  97.8786150  69.9099080  77.5752560  97.2488890  69.2086390  77.7422690
  97.3391290  70.6703210  77.3585720 100.8178100  86.5238310  90.2463170
 101.7445410  86.2882580  90.2899130 100.8028530  87.3510310  89.7649200
 109.0523160  86.0663880  77.2437420 109.2275350  85.3801620  76.5998340
 108.3544730  86.5910930  76.8514090  98.0041710  69.1883060  90.0105050
  97.7225980  69.6916660  89.2465870  98.3861410  68.3904810  89.6447180
  96.8950810  86.4558720  74.7972730  97.6269630  86.1718000  74.2496620
  97.1544480  86.2172000  75.6872110  96.0565600  82.5723450  74.8019060
  95.4274480  83.0408550  75.3504890  96.1713430  81.7272670  75.2365250
 104.6057170  68.6036640  90.5885520 104.4922620  68.9231250  91.4837040
 105.4226910  69.0049150  90.2922800 107.3855660  85.7508170  90.0704210
 108.1780980  85.2557400  89.8630170 107.6788810  86.4298310  90.6779820
 103.5115320  76.6229110  60.9520260 103.4309370  75.7083720  60.6811970
 103.0979740  77.1196180  60.2459970 101.6433360  78.4008130  62.8329530
 100.8675460  77.9208570  63.1228100 102.2946290  77.7213780  62.6585690
  95.6599190  78.7127940  63.7105290  94.8284070  78.4576650  64.1101800
  96.2680170  78.7838710  64.4463210 105.6640790  82.8068320  61.6128660
 105.2022320  82.0355560  61.9415830 106.4766340  82.8334390  62.1181110
  95.6400450  82.7468030  63.9063310  95.9428490  81.8565770  63.7273530
  96.3844040  83.3038250  63.6785560  92.0324150  76.2735480  63.3787380
  92.6040260  75.5057680  63.3791020  92.0325690  76.5724240  62.4693990
 101.8904100  85.0926330  61.2332650 101.2715540  85.5483830  60.6627090
 102.7455880  85.2477790  60.8322350 101.0842350  81.0765320  62.8399690
 101.0150630  80.1355260  62.6788820 101.8462210  81.1666730  63.4122260
  93.2749020  71.6819840  65.1656310  93.0951860  70.7845590  65.4459070
  92.8729100  72.2291710  65.8403260 102.1147520  73.8835700  63.0668620
 102.4912340  73.0107580  62.9542290 102.0167030  74.2194400  62.1759060
 105.8971640  71.3786140  59.9996960 106.7181260  70.8882710  60.0422440
 105.9305720  71.9683800  60.7528800  93.8935690  74.1780340  63.7738650
  94.5745800  74.4418710  64.3926050  93.5783740  73.3381210  64.1076660
  98.0860260  75.2247700  62.8611240  98.5938480  75.7228670  63.5016260
  98.6173500  74.4482900  62.6850600 110.1871190  73.3952890  66.5640590
 109.4823360  73.7834600  66.0455700 110.4529110  74.0903180  67.1661520
 102.7567450  79.9765570  58.6264560 102.1384720  80.4415020  58.0627280
 103.2690700  80.6693050  59.0434070  97.6199210  79.5041440  65.3048160
  97.2868590  80.1310360  65.9469230  97.7965890  80.0303320  64.5249830
 106.1333120  73.3186520  62.7724500 105.4288690  73.6071410  63.3527610
 106.4945280  74.1286630  62.4124060  96.0511690  71.5756220  65.1345110
  96.3928500  72.4198270  64.8398980  95.1127500  71.7239960  65.2510450
  96.8318310  81.4722240  67.1197340  97.4492310  82.1473320  66.8381790
  95.9711430  81.8810220  67.0284840  92.1250650  80.6622100  56.0004190
  91.7478630  81.1509200  55.2689090  92.3823720  81.3347380  56.6310720
 107.7495900  82.9361650  65.0351980 107.0659420  83.6060760  65.0268650
 108.2890190  83.1342300  64.2696840 109.2020040  72.7641310  63.1633710
 108.2544950  72.7980290  63.2949140 109.5270030  73.5780260  63.5483070
  99.7339580  69.0638490  61.4589700 100.0414560  68.5085380  60.7425200
  98.8040280  69.1982950  61.2762690 105.2854640  84.7805780  63.7497160
 105.2981800  84.3768070  62.8819420 104.7329860  85.5553070  63.6458590
 106.5800060  81.5022000  58.8387330 106.4696390  80.5596330  58.9636750
 106.5768310  81.8637640  59.7250090 104.6840080  79.6835620  65.0779770
 105.1008870  79.4695730  64.2433230 105.4079900  79.9408410  65.6488390
 102.1220340  77.1287320  58.1949820 101.1949620  77.0624700  58.4238290
 102.2745160  78.0667450  58.0805060 108.6302180  78.0822840  65.1696010
 107.8020810  78.1515930  64.6946140 109.2252660  78.6677150  64.7011840
 106.1517630  78.6907620  58.6985070 105.5330050  78.3527170  58.0511370
 106.1342080  78.0467380  59.4064260 105.5944190  74.8692160  66.1150880
 105.1815370  75.6945870  66.3690870 104.8620140  74.2837200  65.9227240
  97.7276980  77.6552060  60.9769550  97.3233980  76.9429310  60.4815450
  97.8140100  77.3105300  61.8657590  98.1958680  81.3419620  63.1408760
  97.8986970  80.7365090  62.4616540  99.1458500  81.3796930  63.0298120
  96.4405600  74.4295270  64.7568590  96.9920190  74.5390610  63.9821840
  96.9549110  74.8032870  65.4723820 106.2844290  84.9151490  66.8031860
 105.8074850  85.7223680  66.6104470 105.6006080  84.2629820  66.9558070
  97.2877110  81.0801310  69.7916560  96.3905640  81.3041280  70.0389960
  97.3129980  81.2036250  68.8427960 104.3282330  77.9294430  55.7057820
 104.7675610  77.0916860  55.5595640 105.0410750  78.5623830  55.7921960
  96.1148330  77.9514630  68.3673930  95.9756100  78.8237430  68.7361330
  95.2329690  77.6087440  68.2221870 102.4377710  82.8690500  59.6739060
 102.8773620  83.6114830  59.2594450 102.3764600  83.1117070  60.5978020
  97.9128680  83.8936330  70.5759080  97.8844110  84.2979280  69.7087510
  97.7493650  82.9646690  70.4130680 107.9099470  69.1837240  54.0198860
 107.5972130  69.2764070  54.9197930 108.6711940  69.7618270  53.9696290
  94.4281610  76.5497040  58.4776200  94.3079210  77.2759130  57.8657470
  94.1182500  75.7799950  58.0004110 109.8643500  84.6763430  71.8723250
 110.3403220  85.1546320  72.5512330 110.4850660  84.6080920  71.1468750
  92.0666980  79.7212180  64.2844840  92.1447400  79.8560950  63.3400560
  92.6808660  79.0128070  64.4772960  93.3114610  81.4212370  60.6951020
  92.9042690  81.5626960  59.8404620  94.2027620  81.1372530  60.4922230
 109.2676750  81.8676280  69.0323260 109.3939810  81.6288160  68.1140440
 109.3098130  81.0360820  69.5045340 103.1293490  85.5704280  67.6018070
 103.6438160  85.4812290  68.4040500 102.2862570  85.9163980  67.8945980
 105.1047890  85.8559620  57.0302070 104.9449030  85.5662560  57.9283900
 104.9394600  85.0799750  56.4947300  97.5836270  85.6358150  58.8073690
  97.4078750  84.7193690  58.5941490  96.7292010  85.9945440  59.0471490
 104.8074020  83.3647180  55.5900070 104.1139180  83.3624470  54.9302350
 105.5496880  82.9406500  55.1594240 104.3723950  84.9909890  59.6648560
 104.8280900  84.2099270  59.9787180 104.7116470  85.7016710  60.2089740
 109.1200760  73.9208740  69.9973000 108.5045030  74.4288410  69.4688460
 108.7997180  73.0207070  69.9398940  92.1226500  80.7626350  66.8239300
  92.2857540  80.2931710  66.0058670  92.5878950  80.2549910  67.4888140
 101.1815080  72.7600630  67.4635190 100.7194450  72.9683650  68.2755130
 100.7793190  71.9459980  67.1605860 106.1819590  73.9809580  68.5931850
 105.3313180  73.6815330  68.9140920 106.0221380  74.2251590  67.6815670
 103.2769300  75.4811330  70.6930640 103.6022710  74.6475080  70.3532870
 104.0649630  76.0039850  70.8408970  98.9321170  70.4379440  63.7189470
  99.2293500  71.3442270  63.6381490  99.4806730  69.9498220  63.1049040
  96.6859490  75.0165680  59.5881120  96.4600410  74.8002850  60.4927740
  95.9052020  75.4494140  59.2427090 103.9157250  75.0229050  58.1871770
 103.3166140  75.7464850  58.0035390 104.4636860  74.9605830  57.4048220
  99.1258700  75.9151260  70.2541390  99.0302300  74.9745990  70.1041790
  99.9690680  76.1366330  69.8589460 102.5222120  73.6592590  60.2175050
 102.9151690  73.9764790  59.4043740 102.8838970  72.7804470  60.3319570
  94.2569240  72.3264930  68.4075170  93.8632630  73.1740140  68.6147950
  93.5687640  71.6891300  68.5983810 100.8314290  72.4099900  71.4771910
 100.1412610  72.2172100  72.1118000 101.5746590  72.6934540  72.0096210
 103.1077260  76.2498340  64.3125830 102.3758380  76.7585150  64.6615930
 102.7101600  75.4328320  64.0114610  99.5454650  72.9252540  62.7178320
  99.5490710  72.4842490  61.8682860 100.4405770  73.2469870  62.8250140
 103.5703170  71.7032020  63.7248770 103.5875910  72.1540670  64.5690620
 103.3218750  70.8037660  63.9382210  98.6196300  76.2365760  55.1068380
  98.0513200  75.7884010  54.4804290  99.3285300  76.5958540  54.5733530
 106.9973920  69.1164200  69.5635150 107.3219690  68.3853860  70.0893130
 107.0330430  68.7977840  68.6616140  93.6965480  80.1377780  68.9835110
  93.3120270  79.4971450  69.5818070  94.0077670  80.8413900  69.5529840
  99.8462620  76.9854320  64.4643730 100.2132750  76.5112890  65.2105070
  99.6567680  77.8595890  64.8052070  97.6361990  76.0262960  66.7827940
  97.3319060  76.9054940  67.0078300  98.5908450  76.0862750  66.8185380
  96.1643780  80.2323950  57.3794790  95.3906040  79.6921570  57.2193510
  96.8938410  79.7130560  57.0412550 106.9231760  79.2289310  63.1721180
 107.6430880  79.7244600  62.7817290 106.7213580  78.5507200  62.5275050
 102.3050560  79.2998370  69.0590180 102.2387870  78.3794040  68.8047770
 101.6755700  79.3973810  69.7734820 105.0990090  74.9946920  55.6112730
 105.9869710  75.3064150  55.4364070 105.0695180  74.1219170  55.2193310
  96.2081180  79.9004330  61.0173600  96.7259850  79.0972590  60.9630490
  95.7565200  79.8383470  61.8590430 101.0950680  81.1670610  56.2900900
 101.4366380  81.9112840  55.7944220 100.2663390  81.4801730  56.6525730
  93.6925720  76.8665700  67.9299300  93.3340660  77.5319550  68.5172640
  93.3980280  76.0349250  68.3011920  96.8938840  77.3249940  70.8138850
  96.5938980  77.4707120  69.9166670  97.6650080  76.7655230  70.7212240
 102.2367290  82.1218940  68.8093980 102.2511830  81.1899900  68.5912890
 101.5292390  82.2078700  69.4483750 107.3704360  76.3058760  55.0792590
 107.2868080  76.7372980  54.2289030 108.0898550  76.7657110  55.5119410
 108.4478500  78.7626280  68.1562560 107.7226690  79.3555060  67.9591950
 108.9753960  78.7549820  67.3575930 108.3991610  83.1601020  57.8074720
 107.7567770  82.5056640  58.0818440 108.0122270  83.5656110  57.0315390
 103.9778090  80.4886450  61.6546410 104.3301910  79.8914580  60.9947780
 103.0940420  80.1630680  61.8254660 100.0641370  81.2484140  59.0616820
 100.7512500  81.7953350  59.4424410  99.2773790  81.7924870  59.0966430
  99.3668580  78.2530170  58.6742180  99.8231360  79.0635420  58.9002370
  99.0156790  77.9353310  59.5060670 101.6701190  83.7636510  65.9034480
 102.3143410  83.9695890  66.5807900 102.0330630  83.0024910  65.4505330
 102.9433270  81.7668860  64.6211930 103.5855500  81.0662020  64.7344100
 103.4682620  82.5467300  64.4408820 106.7888990  82.0517480  54.3451070
 106.5626570  81.3347920  54.9375710 106.3985190  81.8029920  53.5072820
 104.7170890  82.5663760  67.8247990 105.0527130  83.1530450  68.5025910
 103.7971230  82.4356470  68.0545780  92.5705020  86.0784340  55.1195530
  92.9302660  86.6773680  54.4652800  92.4297360  86.6244230  55.8930560
 106.3705240  79.9689420  56.0065230 106.0826940  80.4302110  56.7943110
 107.1657410  79.5087190  56.2749450  92.5546880  84.3439200  69.5937930
  92.6638000  83.4033940  69.4533320  91.9027440  84.6093950  68.9451660
 100.5459470  82.6155090  70.9936050 100.2256340  81.8964330  71.5381740
  99.8717830  83.2910160  71.0672110  98.5873640  83.4615540  55.9369200
  98.5783740  84.1945230  55.3213710  97.6672000  83.2147120  56.0296160
  94.1880280  78.6830430  56.6815960  93.5808230  79.4229330  56.6911260
  94.6629630  78.7729790  55.8554160 103.7613070  72.8481250  66.3572850
 104.1293890  72.0276460  66.6852420 102.9011270  72.9083140  66.7728500
 107.1275100  71.8038190  57.1660410 106.4988260  71.9083860  56.4518640
 106.6327020  72.0234970  57.9554290 101.5733240  83.5243780  54.5994390
 101.6745220  83.3207770  53.6696370 100.6734980  83.2702060  54.8042170
  99.0959130  74.0824140  58.5818290  98.3875280  74.5510480  59.0231900
  99.3803610  73.4246150  59.2163480 100.7215060  75.5020840  66.5810820
 101.2200310  75.9766660  67.2462670 100.8638010  74.5784360  66.7880850
 103.1274560  70.8074800  60.0214080 103.0042340  70.8260930  59.0723590
 104.0759120  70.8553740  60.1412480 100.2151350  86.0430100  59.2942060
 100.4692850  86.0051490  58.3721430  99.2663830  85.9163430  59.2870310
 107.9281920  71.7188800  67.4239210 107.4255520  72.4594200  67.7633020
 108.7438580  72.1072800  67.1076000 106.2203930  76.9621980  60.8700570
 105.2794070  76.9772210  61.0448260 106.5348000  76.1757940  61.3160870
  96.1985570  78.6441580  54.4304530  96.9648840  78.5322940  54.9929960
  96.2760260  77.9479550  53.7781300 108.2229510  84.1330830  62.5454830
 108.3476930  84.9562000  63.0178640 109.0895070  83.9221560  62.1978980
  95.6947040  86.2262040  62.2171960  96.4309520  85.6777500  62.4880530
  96.0787960  87.0918050  62.0777950  92.5792520  82.2935610  58.0913470
  91.6532300  82.5356750  58.0818880  93.0448950  83.1209870  57.9698220
  94.7005320  85.4108110  71.4057540  95.5018050  85.7320160  71.8192940
  94.1857140  85.0503690  72.1277450  98.8049350  85.3992350  54.0397530
  99.5977960  85.6881180  53.5879320  98.2853700  84.9684520  53.3610010
 103.5369950  81.5187980  71.3532950 102.9308110  81.5419580  70.6128700
 103.2324060  80.7871020  71.8900200 104.9670320  85.2468270  69.9642360
 105.9192070  85.1626290  69.9142600 104.8198540  85.9109980  70.6376150
 107.8579520  84.6262480  55.4634270 107.5721030  84.2127620  54.6488450
 107.6599070  85.5550190  55.3434790  92.4203130  77.8981570  70.3493590
  92.9242150  77.3188850  70.9209820  91.6810550  78.1821800  70.8869960
  99.3226750  80.6195760  53.9039880  99.2177390  80.0048110  54.6301260
  99.1550970  80.0961650  53.1202890  99.4741070  79.3052560  69.8829110
  98.7086740  79.8737560  69.7983780  99.6557030  79.0128770  68.9897340
 102.5629480  79.6815790  54.5081870 102.0139580  80.1285090  55.1524610
 103.1848740  79.1765040  55.0319540 106.6164420  81.0357890  70.4404130
 107.3573890  81.3733650  69.9371590 105.8537100  81.2049950  69.8873900
  94.4526210  76.0411160  71.2443660  94.4931550  75.7425030  72.1528890
  95.3071710  76.4418770  71.0851180  98.2304600  78.6406710  56.4047170
  98.6521020  78.4746580  57.2478560  98.3555440  77.8306940  55.9102310
  96.3932020  74.6203260  69.2118150  95.8628480  74.1294210  68.5841490
  97.0620090  75.0487460  68.6776080 100.7432240  77.6644320  53.6524270
 101.2637900  76.9493340  53.2865420 101.3900640  78.3030190  53.9524780
 105.2910080  79.0872720  68.9759340 105.7051100  79.2417800  69.8249760
 104.3561080  79.2127940  69.1385120 105.7632250  76.4268880  70.9798490
 106.3453020  75.6721200  70.8918970 105.9394020  76.9576320  70.2029970
  96.8804320  71.5865630  69.2915440  96.7861190  70.9686380  68.5666310
  96.3001710  72.3131920  69.0645350  99.6465760  70.1438870  66.3242830
  99.1983060  70.1663130  65.4788380  99.0130960  69.7457890  66.9213130
 100.0525310  79.0393200  66.9455270 100.4713420  79.8825930  66.7731510
  99.1333940  79.1765240  66.7162050 102.3889210  76.7709380  68.3293110
 102.5085420  76.1750520  69.0687950 103.2483210  76.8079070  67.9094410
 104.7277110  77.3246570  66.9055620 104.2012330  77.8489190  66.3020760
 105.0708450  77.9573960  67.5365350  97.9032730  85.3446210  68.0613000
  97.3653820  86.0692270  67.7421700  98.1566690  84.8676550  67.2710340
  99.1557980  73.3130730  69.5868930  99.7457670  73.0046580  70.2746750
  98.3378220  72.8410480  69.7428830 103.9751410  72.9296540  69.8201950
 103.2866930  72.2678080  69.7551940 104.6957430  72.4834810  70.2650410
 104.6051810  69.5248170  55.8792210 104.8854100  68.6816070  56.2351630
 103.8317540  69.7571280  56.3930960 100.7594940  86.5797420  68.3199650
 100.6853640  87.4832560  68.6272020  99.8573780  86.2609320  68.2921720
 101.3080270  85.7455930  55.9426010 102.2031060  86.0840900  55.9644770
 101.3397900  85.0235340  55.3150290  94.9476430  81.1182980  54.1713010
  95.3851300  81.6612650  54.8270590  95.4324160  80.2929930  54.1809350
  92.1622230  83.9072010  61.6233270  92.4925240  83.0393070  61.3911910
  92.5913230  84.1130530  62.4538230  96.7584150  82.2381020  59.2835240
  96.4579690  82.1145990  60.1839150  96.6521640  81.3789610  58.8750970
  92.6512440  84.7742600  64.3614900  92.2143430  84.9543400  65.1939050
  93.2190120  85.5317220  64.2196620 108.2874620  84.2759600  68.6492210
 107.6876610  84.3352160  67.9056130 108.4168520  83.3364580  68.7789060
 109.5276070  82.0177420  53.9861920 108.6969030  82.0854070  54.4569150
 109.7047900  82.9081540  53.6828780 108.9832530  78.7624900  56.4896120
 109.7451440  79.3321550  56.5955810 108.9986900  78.1952100  57.2604430
  92.4836870  77.2862830  60.7203780  91.8285710  77.0174470  60.0763480
  93.3214820  77.1767310  60.2705760 109.9892500  79.6175000  61.3338050
 110.3601330  78.8342320  60.9274020 110.6294430  80.3064100  61.1555350
 106.9726260  81.0011580  66.7468370 106.1586100  81.4308740  67.0094160
 107.3800460  81.6129990  66.1337420 109.0351700  79.0559270  53.6468640
 109.3100540  79.9638150  53.5187860 108.8462440  78.9921800  54.5830630
 105.4327310  72.0804120  54.9422270 105.8512190  71.8935100  54.1018930
 105.1263370  71.2283170  55.2525200 108.9317040  76.9928260  58.6398070
 108.5560640  76.2256190  58.2079360 108.2020160  77.3750960  59.1273000
  93.5212800  77.6715400  65.2607120  93.8885840  77.5842800  66.1403140
  92.9523620  76.9081950  65.1613980 108.3216660  76.1399780  68.2737590
 108.0902750  75.9112530  67.3735540 108.5821210  77.0599330  68.2282480
  93.0728800  74.5824490  69.1665540  92.1784850  74.5491250  69.5059250
  93.6126350  74.7811280  69.9316790 106.7604730  71.3656210  71.0517290
 107.6374910  71.3739610  71.4351290 106.7725570  70.6287050  70.4409640
 108.2068000  75.2185750  61.9405310 108.7305480  74.7248400  61.3095480
 108.7927420  75.3536110  62.6852880 108.3857720  75.3025620  65.4624860
 107.4360430  75.2689160  65.5769850 108.5670730  76.2125730  65.2274630
 107.6967970  74.4759100  57.8797720 108.1927090  74.2429970  58.6646600
 107.4984040  73.6370940  57.4635360 109.1255130  73.1120050  60.4135400
 109.0154410  72.9576090  61.3517670 109.8862720  72.5840990  60.1710810
 107.4720850  69.0514180  66.8718400 108.1093070  69.6648320  67.2377590
 107.6195740  69.0874840  65.9267630 110.0145400  70.9427970  53.6541540
 110.9394710  70.8109150  53.4459830 109.9921190  71.0220790  54.6077990
 110.0883890  71.7138630  56.2798250 109.2935390  71.6483750  56.8091160
 110.2927170  72.6489270  56.2683600 107.0302310  85.7530180  60.2736640
 107.6261380  85.4314750  59.5971060 107.2880460  85.2802000  61.0649910
  94.9364880  82.1848090  70.4227270  94.8934510  81.8141000  71.3041730
  95.0675890  83.1225660  70.5629090  98.6370910  83.7407680  66.0236990
  98.3962270  84.0082240  65.1367510  99.5773550  83.9113410  66.0787850
 100.8425330  70.2040370  69.7793500 100.7814220  70.7962200  70.5288910
 101.7825710  70.0966330  69.6343760 103.4799890  69.8610430  69.4185790
 104.0940300  70.1789720  68.7566870 104.0249450  69.3759020  70.0381650
 109.8975070  85.7602060  66.8247630 109.4033350  86.1570930  66.1074760
 109.2888360  85.1351270  67.2184910  94.7752910  85.1310340  67.5425050
  94.1813230  84.9995040  68.2815090  94.7676750  84.2948480  67.0767150
 104.2207930  68.4242570  65.7455080 103.3467770  68.7577680  65.5428010
 104.1118680  67.9515750  66.5706950 105.1279910  70.6313440  67.1296800
 104.7993270  69.8165200  66.7498530 106.0762210  70.5883250  67.0062490
 107.5814520  86.4025480  64.1034370 107.1217490  87.1541290  63.7292390
 106.9526980  85.6831950  64.0449170  94.4065140  82.4968720  66.4933090
  93.6799200  81.8774010  66.4259040  94.4674290  82.8909330  65.6231170
  98.0110240  84.7113720  63.2782500  98.5275260  84.1001080  62.7530760
  98.6607620  85.2142500  63.7693510 100.7505740  85.6022210  64.1051480
 101.0383550  85.3476510  63.2284490 101.2628960  85.0499570  64.6957050
 101.9682750  69.3412410  64.6847990 101.1854540  69.8157910  64.9644750
 101.6745680  68.4367240  64.5761170 106.5203820  70.0435510  62.7297080
 106.9611910  69.9880610  61.8818680 106.2511410  70.9593520  62.8007260
 108.3842390  69.6750750  60.7405900 108.3230790  68.7311970  60.5936920
 109.1634420  69.7830840  61.2859360  92.6895140  85.8143110  59.7029850
  92.5217180  85.1813790  60.4011740  91.8229650  86.0202510  59.3524040
  99.8536970  71.7599160  60.1964020  99.0411480  71.3856050  59.8559900
 100.3578610  71.0044240  60.4985210 104.3561950  68.4241610  61.4347090
 104.9591320  68.9961820  61.9095610 103.6154940  68.9881050  61.2120990
 107.4996550  68.8263170  56.7087370 107.6947180  69.7246620  56.9754800
 106.7126420  68.5950250  57.2020320  94.2957840  84.5076340  57.1479990
  93.7705460  84.8884370  56.4441950  94.2202420  85.1327110  57.8689700
 100.8178100  86.5238310  71.4719680 101.7445410  86.2882580  71.5155640
 100.8028530  87.3510310  70.9905710 109.0523160  86.0663880  58.4693930
 109.2275350  85.3801620  57.8254850 108.3544730  86.5910930  58.0770600
  98.0041710  69.1883060  71.2361560  97.7225980  69.6916660  70.4722380
  98.3861410  68.3904810  70.8703690  96.8950810  86.4558720  56.0229240
  97.6269630  86.1718000  55.4753130  97.1544480  86.2172000  56.9128620
  96.0565600  82.5723450  56.0275570  95.4274480  83.0408550  56.5761400
  96.1713430  81.7272670  56.4621760 104.6057170  68.6036640  71.8142030
 104.4922620  68.9231250  72.7093550 105.4226910  69.0049150  71.5179310
 107.3855660  85.7508170  71.2960720 108.1780980  85.2557400  71.0886680
 107.6788810  86.4298310  71.9036330  95.6599190  78.7127940  44.9361800
  94.8284070  78.4576650  45.3358310  96.2680170  78.7838710  45.6719720
 105.6640790  82.8068320  42.8385170 105.2022320  82.0355560  43.1672340
 106.4766340  82.8334390  43.3437620  95.6400450  82.7468030  45.1319820
  95.9428490  81.8565770  44.9530040  96.3844040  83.3038250  44.9042070
  94.0691140  73.6729830  38.7204190  93.1807840  74.0145800  38.6184070
  94.3532330  73.4730150  37.8285020 101.8904100  85.0926330  42.4589160
 101.2715540  85.5483830  41.8883600 102.7455880  85.2477790  42.0578860
 101.0842350  81.0765320  44.0656200 101.0150630  80.1355260  43.9045330
 101.8462210  81.1666730  44.6378770 105.8971640  71.3786140  41.2253470
 106.7181260  70.8882710  41.2678950 105.9305720  71.9683800  41.9785310
 110.1871190  73.3952890  47.7897100 109.4823360  73.7834600  47.2712210
 110.4529110  74.0903180  48.3918030 102.7567450  79.9765570  39.8521070
 102.1384720  80.4415020  39.2883790 103.2690700  80.6693050  40.2690580
  97.6199210  79.5041440  46.5304670  97.2868590  80.1310360  47.1725740
  97.7965890  80.0303320  45.7506340 106.1333120  73.3186520  43.9981010
 105.4288690  73.6071410  44.5784120 106.4945280  74.1286630  43.6380570
  96.8318310  81.4722240  48.3453850  97.4492310  82.1473320  48.0638300
  95.9711430  81.8810220  48.2541350  92.1250650  80.6622100  37.2260700
  91.7478630  81.1509200  36.4945600  92.3823720  81.3347380  37.8567230
 107.7495900  82.9361650  46.2608490 107.0659420  83.6060760  46.2525160
 108.2890190  83.1342300  45.4953350 109.2020040  72.7641310  44.3890220
 108.2544950  72.7980290  44.5205650 109.5270030  73.5780260  44.7739580
 105.2854640  84.7805780  44.9753670 105.2981800  84.3768070  44.1075930
 104.7329860  85.5553070  44.8715100 106.5800060  81.5022000  40.0643840
 106.4696390  80.5596330  40.1893260 106.5768310  81.8637640  40.9506600
 104.6840080  79.6835620  46.3036280 105.1008870  79.4695730  45.4689740
 105.4079900  79.9408410  46.8744900 102.1220340  77.1287320  39.4206330
 101.1949620  77.0624700  39.6494800 102.2745160  78.0667450  39.3061570
 102.1089420  73.4004320  36.4173490 101.1693090  73.5618280  36.5025950
 102.4272680  74.1190000  35.8709480 108.6302180  78.0822840  46.3952520
 107.8020810  78.1515930  45.9202650 109.2252660  78.6677150  45.9268350
 106.1517630  78.6907620  39.9241580 105.5330050  78.3527170  39.2767880
 106.1342080  78.0467380  40.6320770  98.1958680  81.3419620  44.3665270
  97.8986970  80.7365090  43.6873050  99.1458500  81.3796930  44.2554630
 106.2844290  84.9151490  48.0288370 105.8074850  85.7223680  47.8360980
 105.6006080  84.2629820  48.1814580  97.2877110  81.0801310  51.0173070
  96.3905640  81.3041280  51.2646470  97.3129980  81.2036250  50.0684470
 104.3282330  77.9294430  36.9314330 104.7675610  77.0916860  36.7852150
 105.0410750  78.5623830  37.0178470 102.4377710  82.8690500  40.8995570
 102.8773620  83.6114830  40.4850960 102.3764600  83.1117070  41.8234530
  97.9128680  83.8936330  51.8015590  97.8844110  84.2979280  50.9344020
  97.7493650  82.9646690  51.6387190 107.9099470  69.1837240  35.2455370
 107.5972130  69.2764070  36.1454440 108.6711940  69.7618270  35.1952800
  94.4281610  76.5497040  39.7032710  94.3079210  77.2759130  39.0913980
  94.1182500  75.7799950  39.2260620 109.8643500  84.6763430  53.0979760
 110.3403220  85.1546320  53.7768840 110.4850660  84.6080920  52.3725260
  93.3114610  81.4212370  41.9207530  92.9042690  81.5626960  41.0661130
  94.2027620  81.1372530  41.7178740 109.2676750  81.8676280  50.2579770
 109.3939810  81.6288160  49.3396950 109.3098130  81.0360820  50.7301850
 103.1293490  85.5704280  48.8274580 103.6438160  85.4812290  49.6297010
 102.2862570  85.9163980  49.1202490 105.1047890  85.8559620  38.2558580
 104.9449030  85.5662560  39.1540410 104.9394600  85.0799750  37.7203810
  97.5836270  85.6358150  40.0330200  97.4078750  84.7193690  39.8198000
  96.7292010  85.9945440  40.2728000 104.8074020  83.3647180  36.8156580
 104.1139180  83.3624470  36.1558860 105.5496880  82.9406500  36.3850750
 104.3723950  84.9909890  40.8905070 104.8280900  84.2099270  41.2043690
 104.7116470  85.7016710  41.4346250 109.1200760  73.9208740  51.2229510
 108.5045030  74.4288410  50.6944970 108.7997180  73.0207070  51.1655450
  92.1226500  80.7626350  48.0495810  92.2857540  80.2931710  47.2315180
  92.5878950  80.2549910  48.7144650  96.6859490  75.0165680  40.8137630
  96.4600410  74.8002850  41.7184250  95.9052020  75.4494140  40.4683600
 103.9157250  75.0229050  39.4128280 103.3166140  75.7464850  39.2291900
 104.4636860  74.9605830  38.6304730  91.7456520  74.1913510  34.8764480
  91.6631190  75.1344270  35.0179470  91.3939580  74.0488420  33.9976830
  99.6074800  73.9264620  36.9341590  99.7287620  73.8851100  37.8827410
  99.2223310  74.7888770  36.7788320  98.6196300  76.2365760  36.3324890
  98.0513200  75.7884010  35.7060800  99.3285300  76.5958540  35.7990040
 106.9973920  69.1164200  50.7891660 107.3219690  68.3853860  51.3149640
 107.0330430  68.7977840  49.8872650  93.6965480  80.1377780  50.2091620
  93.3120270  79.4971450  50.8074580  94.0077670  80.8413900  50.7786350
  96.1643780  80.2323950  38.6051300  95.3906040  79.6921570  38.4450020
  96.8938410  79.7130560  38.2669060 106.9231760  79.2289310  44.3977690
 107.6430880  79.7244600  44.0073800 106.7213580  78.5507200  43.7531560
 102.3050560  79.2998370  50.2846690 102.2387870  78.3794040  50.0304280
 101.6755700  79.3973810  50.9991330 105.0990090  74.9946920  36.8369240
 105.9869710  75.3064150  36.6620580 105.0695180  74.1219170  36.4449820
  96.2081180  79.9004330  42.2430110  96.7259850  79.0972590  42.1887000
  95.7565200  79.8383470  43.0846940 101.0950680  81.1670610  37.5157410
 101.4366380  81.9112840  37.0200730 100.2663390  81.4801730  37.8782240
  96.8938840  77.3249940  52.0395360  96.5938980  77.4707120  51.1423180
  97.6650080  76.7655230  51.9468750 102.2367290  82.1218940  50.0350490
 102.2511830  81.1899900  49.8169400 101.5292390  82.2078700  50.6740260
 107.3704360  76.3058760  36.3049100 107.2868080  76.7372980  35.4545540
 108.0898550  76.7657110  36.7375920 108.4478500  78.7626280  49.3819070
 107.7226690  79.3555060  49.1848460 108.9753960  78.7549820  48.5832440
 108.3991610  83.1601020  39.0331230 107.7567770  82.5056640  39.3074950
 108.0122270  83.5656110  38.2571900 103.9778090  80.4886450  42.8802920
 104.3301910  79.8914580  42.2204290 103.0940420  80.1630680  43.0511170
 100.0641370  81.2484140  40.2873330 100.7512500  81.7953350  40.6680920
  99.2773790  81.7924870  40.3222940  92.2033770  76.8656960  35.7790410
  93.0728620  77.1481760  36.0626330  91.7124090  77.6792830  35.6639220
  99.3668580  78.2530170  39.8998690  99.8231360  79.0635420  40.1258880
  99.0156790  77.9353310  40.7317180 101.6701190  83.7636510  47.1290990
 102.3143410  83.9695890  47.8064410 102.0330630  83.0024910  46.6761840
 102.9433270  81.7668860  45.8468440 103.5855500  81.0662020  45.9600610
 103.4682620  82.5467300  45.6665330 106.7888990  82.0517480  35.5707580
 106.5626570  81.3347920  36.1632220 106.3985190  81.8029920  34.7329330
 104.7170890  82.5663760  49.0504500 105.0527130  83.1530450  49.7282420
 103.7971230  82.4356470  49.2802290  92.5705020  86.0784340  36.3452040
  92.9302660  86.6773680  35.6909310  92.4297360  86.6244230  37.1187070
 106.3705240  79.9689420  37.2321740 106.0826940  80.4302110  38.0199620
 107.1657410  79.5087190  37.5005960  92.5546880  84.3439200  50.8194440
  92.6638000  83.4033940  50.6789830  91.9027440  84.6093950  50.1708170
 100.5459470  82.6155090  52.2192560 100.2256340  81.8964330  52.7638250
  99.8717830  83.2910160  52.2928620  98.5873640  83.4615540  37.1625710
  98.5783740  84.1945230  36.5470220  97.6672000  83.2147120  37.2552670
  94.1880280  78.6830430  37.9072470  93.5808230  79.4229330  37.9167770
  94.6629630  78.7729790  37.0810670 107.1275100  71.8038190  38.3916920
 106.4988260  71.9083860  37.6775150 106.6327020  72.0234970  39.1810800
 101.5733240  83.5243780  35.8250900 101.6745220  83.3207770  34.8952880
 100.6734980  83.2702060  36.0298680  99.0959130  74.0824140  39.8074800
  98.3875280  74.5510480  40.2488410  99.3803610  73.4246150  40.4419990
 100.2151350  86.0430100  40.5198570 100.4692850  86.0051490  39.5977940
  99.2663830  85.9163430  40.5126820 107.9281920  71.7188800  48.6495720
 107.4255520  72.4594200  48.9889530 108.7438580  72.1072800  48.3332510
 106.2203930  76.9621980  42.0957080 105.2794070  76.9772210  42.2704770
 106.5348000  76.1757940  42.5417380  96.1985570  78.6441580  35.6561040
  96.9648840  78.5322940  36.2186470  96.2760260  77.9479550  35.0037810
  94.8932330  76.0766650  36.3393930  94.9735920  75.1294160  36.4511330
  95.7852080  76.4073530  36.4454590 108.2229510  84.1330830  43.7711340
 108.3476930  84.9562000  44.2435150 109.0895070  83.9221560  43.4235490
  95.6947040  86.2262040  43.4428470  96.4309520  85.6777500  43.7137040
  96.0787960  87.0918050  43.3034460  92.5792520  82.2935610  39.3169980
  91.6532300  82.5356750  39.3075390  93.0448950  83.1209870  39.1954730
  94.7005320  85.4108110  52.6314050  95.5018050  85.7320160  53.0449450
  94.1857140  85.0503690  53.3533960  98.8049350  85.3992350  35.2654040
  99.5977960  85.6881180  34.8135830  98.2853700  84.9684520  34.5866520
 103.5369950  81.5187980  52.5789460 102.9308110  81.5419580  51.8385210
 103.2324060  80.7871020  53.1156710 104.9670320  85.2468270  51.1898870
 105.9192070  85.1626290  51.1399110 104.8198540  85.9109980  51.8632660
 107.8579520  84.6262480  36.6890780 107.5721030  84.2127620  35.8744960
 107.6599070  85.5550190  36.5691300  99.3226750  80.6195760  35.1296390
  99.2177390  80.0048110  35.8557770  99.1550970  80.0961650  34.3459400
  99.4741070  79.3052560  51.1085620  98.7086740  79.8737560  51.0240290
  99.6557030  79.0128770  50.2153850 102.5629480  79.6815790  35.7338380
 102.0139580  80.1285090  36.3781120 103.1848740  79.1765040  36.2576050
 106.6164420  81.0357890  51.6660640 107.3573890  81.3733650  51.1628100
 105.8537100  81.2049950  51.1130410  98.2304600  78.6406710  37.6303680
  98.6521020  78.4746580  38.4735070  98.3555440  77.8306940  37.1358820
 100.7432240  77.6644320  34.8780780 101.2637900  76.9493340  34.5121930
 101.3900640  78.3030190  35.1781290 105.2910080  79.0872720  50.2015850
 105.7051100  79.2417800  51.0506270 104.3561080  79.2127940  50.3641630
 105.7632250  76.4268880  52.2055000 106.3453020  75.6721200  52.1175480
 105.9394020  76.9576320  51.4286480 100.0525310  79.0393200  48.1711780
 100.4713420  79.8825930  47.9988020  99.1333940  79.1765240  47.9418560
  97.1263500  74.7139940  34.5761840  96.9252560  73.8507300  34.9375180
  96.9555550  74.6273300  33.6383440  97.9032730  85.3446210  49.2869510
  97.3653820  86.0692270  48.9678210  98.1566690  84.8676550  48.4966850
 104.6051810  69.5248170  37.1048720 104.8854100  68.6816070  37.4608140
 103.8317540  69.7571280  37.6187470  95.9246300  71.8140560  34.5639720
  96.2272200  71.8207990  33.6558870  96.6640890  71.4638420  35.0607380
 100.7594940  86.5797420  49.5456160 100.6853640  87.4832560  49.8528530
  99.8573780  86.2609320  49.5178230  99.1431230  70.7575180  35.5495920
  98.7953230  70.0799170  34.9698370  99.3444000  70.2964690  36.3639310
 101.3080270  85.7455930  37.1682520 102.2031060  86.0840900  37.1901280
 101.3397900  85.0235340  36.5406800  94.9476430  81.1182980  35.3969520
  95.3851300  81.6612650  36.0527100  95.4324160  80.2929930  35.4065860
  92.1622230  83.9072010  42.8489780  92.4925240  83.0393070  42.6168420
  92.5913230  84.1130530  43.6794740  96.7584150  82.2381020  40.5091750
  96.4579690  82.1145990  41.4095660  96.6521640  81.3789610  40.1007480
  92.6512440  84.7742600  45.5871410  92.2143430  84.9543400  46.4195560
  93.2190120  85.5317220  45.4453130 108.2874620  84.2759600  49.8748720
 107.6876610  84.3352160  49.1312640 108.4168520  83.3364580  50.0045570
 109.5276070  82.0177420  35.2118430 108.6969030  82.0854070  35.6825660
 109.7047900  82.9081540  34.9085290 108.9832530  78.7624900  37.7152630
 109.7451440  79.3321550  37.8212320 108.9986900  78.1952100  38.4860940
 109.9892500  79.6175000  42.5594560 110.3601330  78.8342320  42.1530530
 110.6294430  80.3064100  42.3811860 106.9726260  81.0011580  47.9724880
 106.1586100  81.4308740  48.2350670 107.3800460  81.6129990  47.3593930
 109.0351700  79.0559270  34.8725150 109.3100540  79.9638150  34.7444370
 108.8462440  78.9921800  35.8087140 105.4327310  72.0804120  36.1678780
 105.8512190  71.8935100  35.3275440 105.1263370  71.2283170  36.4781710
 108.9317040  76.9928260  39.8654580 108.5560640  76.2256190  39.4335870
 108.2020160  77.3750960  40.3529510 108.3216660  76.1399780  49.4994100
 108.0902750  75.9112530  48.5992050 108.5821210  77.0599330  49.4538990
 106.7604730  71.3656210  52.2773800 107.6374910  71.3739610  52.6607800
 106.7725570  70.6287050  51.6666150  91.6974950  74.4961760  37.8885620
  90.7939030  74.7591960  37.7137280  92.1815570  74.7672930  37.1085580
 108.2068000  75.2185750  43.1661820 108.7305480  74.7248400  42.5351990
 108.7927420  75.3536110  43.9109390 108.3857720  75.3025620  46.6881370
 107.4360430  75.2689160  46.8026360 108.5670730  76.2125730  46.4531140
  94.2402160  73.5527300  35.7980000  94.9493860  73.1310520  35.3127280
  93.5242100  73.6202530  35.1663350  93.8876320  69.6066630  34.8382650
  94.6104450  70.1475570  35.1563870  94.1600840  69.3330050  33.9624190
 107.6967970  74.4759100  39.1054230 108.1927090  74.2429970  39.8903110
 107.4984040  73.6370940  38.6891870 109.1255130  73.1120050  41.6391910
 109.0154410  72.9576090  42.5774180 109.8862720  72.5840990  41.3967320
 107.4720850  69.0514180  48.0974910 108.1093070  69.6648320  48.4634100
 107.6195740  69.0874840  47.1524140 110.0145400  70.9427970  34.8798050
 110.9394710  70.8109150  34.6716340 109.9921190  71.0220790  35.8334500
 110.0883890  71.7138630  37.5054760 109.2935390  71.6483750  38.0347670
 110.2927170  72.6489270  37.4940110 107.0302310  85.7530180  41.4993150
 107.6261380  85.4314750  40.8227570 107.2880460  85.2802000  42.2906420
  94.9364880  82.1848090  51.6483780  94.8934510  81.8141000  52.5298240
  95.0675890  83.1225660  51.7885600  98.6370910  83.7407680  47.2493500
  98.3962270  84.0082240  46.3624020  99.5773550  83.9113410  47.3044360
 109.8975070  85.7602060  48.0504140 109.4033350  86.1570930  47.3331270
 109.2888360  85.1351270  48.4441420  94.7752910  85.1310340  48.7681560
  94.1813230  84.9995040  49.5071600  94.7676750  84.2948480  48.3023660
 107.5814520  86.4025480  45.3290880 107.1217490  87.1541290  44.9548900
 106.9526980  85.6831950  45.2705680  94.4065140  82.4968720  47.7189600
  93.6799200  81.8774010  47.6515550  94.4674290  82.8909330  46.8487680
  98.0110240  84.7113720  44.5039010  98.5275260  84.1001080  43.9787270
  98.6607620  85.2142500  44.9950020 100.7505740  85.6022210  45.3307990
 101.0383550  85.3476510  44.4541000 101.2628960  85.0499570  45.9213560
 106.5203820  70.0435510  43.9553590 106.9611910  69.9880610  43.1075190
 106.2511410  70.9593520  44.0263770 108.3842390  69.6750750  41.9662410
 108.3230790  68.7311970  41.8193430 109.1634420  69.7830840  42.5115870
  92.6895140  85.8143110  40.9286360  92.5217180  85.1813790  41.6268250
  91.8229650  86.0202510  40.5780550 107.4996550  68.8263170  37.9343880
 107.6947180  69.7246620  38.2011310 106.7126420  68.5950250  38.4276830
  94.2957840  84.5076340  38.3736500  93.7705460  84.8884370  37.6698460
  94.2202420  85.1327110  39.0946210 100.8178100  86.5238310  52.6976190
 101.7445410  86.2882580  52.7412150 100.8028530  87.3510310  52.2162220
 109.0523160  86.0663880  39.6950440 109.2275350  85.3801620  39.0511360
 108.3544730  86.5910930  39.3027110  96.8950810  86.4558720  37.2485750
  97.6269630  86.1718000  36.7009640  97.1544480  86.2172000  38.1385130
  96.0565600  82.5723450  37.2532080  95.4274480  83.0408550  37.8017910
  96.1713430  81.7272670  37.6878270 107.3855660  85.7508170  52.5217230
 108.1780980  85.2557400  52.3143190 107.6788810  86.4298310  53.1292840
 103.5115320  76.6229110  23.4033280 103.4309370  75.7083720  23.1324990
 103.0979740  77.1196180  22.6972990 101.6433360  78.4008130  25.2842550
 100.8675460  77.9208570  25.5741120 102.2946290  77.7213780  25.1098710
  95.6599190  78.7127940  26.1618310  94.8284070  78.4576650  26.5614820
  96.2680170  78.7838710  26.8976230 105.6640790  82.8068320  24.0641680
 105.2022320  82.0355560  24.3928850 106.4766340  82.8334390  24.5694130
  95.6400450  82.7468030  26.3576330  95.9428490  81.8565770  26.1786550
  96.3844040  83.3038250  26.1298580  94.0691140  73.6729830  19.9460700
  93.1807840  74.0145800  19.8440580  94.3532330  73.4730150  19.0541530
  92.0324150  76.2735480  25.8300400  92.6040260  75.5057680  25.8304040
  92.0325690  76.5724240  24.9207010 101.8904100  85.0926330  23.6845670
 101.2715540  85.5483830  23.1140110 102.7455880  85.2477790  23.2835370
 101.0842350  81.0765320  25.2912710 101.0150630  80.1355260  25.1301840
 101.8462210  81.1666730  25.8635280  93.2749020  71.6819840  27.6169330
  93.0951860  70.7845590  27.8972090  92.8729100  72.2291710  28.2916280
 102.1147520  73.8835700  25.5181640 102.4912340  73.0107580  25.4055310
 102.0167030  74.2194400  24.6272080  96.2452530  72.2561330  20.9799080
  96.3519280  73.1565060  21.2867840  95.3344890  72.2079300  20.6893730
 105.8971640  71.3786140  22.4509980 106.7181260  70.8882710  22.4935460
 105.9305720  71.9683800  23.2041820  93.8935690  74.1780340  26.2251670
  94.5745800  74.4418710  26.8439070  93.5783740  73.3381210  26.5589680
  98.0860260  75.2247700  25.3124260  98.5938480  75.7228670  25.9529280
  98.6173500  74.4482900  25.1363620 110.1871190  73.3952890  29.0153610
 109.4823360  73.7834600  28.4968720 110.4529110  74.0903180  29.6174540
  96.3696360  69.8646260  29.5787680  96.3714800  70.3818650  28.7733580
  95.5400670  69.3876440  29.5557610 102.7567450  79.9765570  21.0777580
 102.1384720  80.4415020  20.5140300 103.2690700  80.6693050  21.4947090
  97.6199210  79.5041440  27.7561180  97.2868590  80.1310360  28.3982250
  97.7965890  80.0303320  26.9762850 106.1333120  73.3186520  25.2237520
 105.4288690  73.6071410  25.8040630 106.4945280  74.1286630  24.8637080
  96.0511690  71.5756220  27.5858130  96.3928500  72.4198270  27.2912000
  95.1127500  71.7239960  27.7023470  96.8318310  81.4722240  29.5710360
  97.4492310  82.1473320  29.2894810  95.9711430  81.8810220  29.4797860
  92.1250650  80.6622100  18.4517210  91.7478630  81.1509200  17.7202110
  92.3823720  81.3347380  19.0823740 107.7495900  82.9361650  27.4865000
 107.0659420  83.6060760  27.4781670 108.2890190  83.1342300  26.7209860
 109.2020040  72.7641310  25.6146730 108.2544950  72.7980290  25.7462160
 109.5270030  73.5780260  25.9996090  99.7339580  69.0638490  23.9102720
 100.0414560  68.5085380  23.1938220  98.8040280  69.1982950  23.7275710
 105.2854640  84.7805780  26.2010180 105.2981800  84.3768070  25.3332440
 104.7329860  85.5553070  26.0971610 106.5800060  81.5022000  21.2900350
 106.4696390  80.5596330  21.4149770 106.5768310  81.8637640  22.1763110
 104.6840080  79.6835620  27.5292790 105.1008870  79.4695730  26.6946250
 105.4079900  79.9408410  28.1001410 102.1220340  77.1287320  20.6462840
 101.1949620  77.0624700  20.8751310 102.2745160  78.0667450  20.5318080
 102.1089420  73.4004320  17.6430000 101.1693090  73.5618280  17.7282460
 102.4272680  74.1190000  17.0965990 108.6302180  78.0822840  27.6209030
 107.8020810  78.1515930  27.1459160 109.2252660  78.6677150  27.1524860
 106.1517630  78.6907620  21.1498090 105.5330050  78.3527170  20.5024390
 106.1342080  78.0467380  21.8577280 105.5944190  74.8692160  28.5663900
 105.1815370  75.6945870  28.8203890 104.8620140  74.2837200  28.3740260
  97.7276980  77.6552060  23.4282570  97.3233980  76.9429310  22.9328470
  97.8140100  77.3105300  24.3170610  98.1958680  81.3419620  25.5921780
  97.8986970  80.7365090  24.9129560  99.1458500  81.3796930  25.4811140
  96.4405600  74.4295270  27.2081610  96.9920190  74.5390610  26.4334860
  96.9549110  74.8032870  27.9236840 106.2844290  84.9151490  29.2544880
 105.8074850  85.7223680  29.0617490 105.6006080  84.2629820  29.4071090
  97.2877110  81.0801310  32.2429580  96.3905640  81.3041280  32.4902980
  97.3129980  81.2036250  31.2940980 104.3282330  77.9294430  18.1570840
 104.7675610  77.0916860  18.0108660 105.0410750  78.5623830  18.2434980
  96.1148330  77.9514630  30.8186950  95.9756100  78.8237430  31.1874350
  95.2329690  77.6087440  30.6734890 102.4377710  82.8690500  22.1252080
 102.8773620  83.6114830  21.7107470 102.3764600  83.1117070  23.0491040
  97.9128680  83.8936330  33.0272100  97.8844110  84.2979280  32.1600530
  97.7493650  82.9646690  32.8643700 107.9099470  69.1837240  16.4711880
 107.5972130  69.2764070  17.3710950 108.6711940  69.7618270  16.4209310
  94.4281610  76.5497040  20.9289220  94.3079210  77.2759130  20.3170490
  94.1182500  75.7799950  20.4517130 109.8643500  84.6763430  34.3236270
 110.3403220  85.1546320  35.0025350 110.4850660  84.6080920  33.5981770
  92.0666980  79.7212180  26.7357860  92.1447400  79.8560950  25.7913580
  92.6808660  79.0128070  26.9285980  93.3114610  81.4212370  23.1464040
  92.9042690  81.5626960  22.2917640  94.2027620  81.1372530  22.9435250
 109.2676750  81.8676280  31.4836280 109.3939810  81.6288160  30.5653460
 109.3098130  81.0360820  31.9558360 103.1293490  85.5704280  30.0531090
 103.6438160  85.4812290  30.8553520 102.2862570  85.9163980  30.3459000
 105.1047890  85.8559620  19.4815090 104.9449030  85.5662560  20.3796920
 104.9394600  85.0799750  18.9460320  97.5836270  85.6358150  21.2586710
  97.4078750  84.7193690  21.0454510  96.7292010  85.9945440  21.4984510
 104.8074020  83.3647180  18.0413090 104.1139180  83.3624470  17.3815370
 105.5496880  82.9406500  17.6107260 104.3723950  84.9909890  22.1161580
 104.8280900  84.2099270  22.4300200 104.7116470  85.7016710  22.6602760
 109.1200760  73.9208740  32.4486020 108.5045030  74.4288410  31.9201480
 108.7997180  73.0207070  32.3911960  92.1226500  80.7626350  29.2752320
  92.2857540  80.2931710  28.4571690  92.5878950  80.2549910  29.9401160
  96.8945270  69.8932110  24.3112890  96.4513420  70.6741650  23.9797410
  97.4530260  70.2162000  25.0183830 101.1815080  72.7600630  29.9148210
 100.7194450  72.9683650  30.7268150 100.7793190  71.9459980  29.6118880
 106.1819590  73.9809580  31.0444870 105.3313180  73.6815330  31.3653940
 106.0221380  74.2251590  30.1328690 103.2769300  75.4811330  33.1443660
 103.6022710  74.6475080  32.8045890 104.0649630  76.0039850  33.2921990
 100.0104090  69.5142810  19.1918720  99.3858270  69.5102680  19.9172030
  99.9234210  68.6473770  18.7954690  98.9321170  70.4379440  26.1702490
  99.2293500  71.3442270  26.0894510  99.4806730  69.9498220  25.5562060
  96.6859490  75.0165680  22.0394140  96.4600410  74.8002850  22.9440760
  95.9052020  75.4494140  21.6940110 103.9157250  75.0229050  20.6384790
 103.3166140  75.7464850  20.4548410 104.4636860  74.9605830  19.8561240
  99.1258700  75.9151260  32.7054410  99.0302300  74.9745990  32.5554810
  99.9690680  76.1366330  32.3102480 102.5222120  73.6592590  22.6688070
 102.9151690  73.9764790  21.8556760 102.8838970  72.7804470  22.7832590
  94.2569240  72.3264930  30.8588190  93.8632630  73.1740140  31.0660970
  93.5687640  71.6891300  31.0496830 100.8314290  72.4099900  33.9284930
 100.1412610  72.2172100  34.5631020 101.5746590  72.6934540  34.4609230
  91.5586290  70.2493390  24.8918270  91.2699340  70.8196250  25.6043250
  92.3032050  69.7697840  25.2549500  91.7456520  74.1913510  16.1020990
  91.6631190  75.1344270  16.2435980  91.3939580  74.0488420  15.2233340
 103.1077260  76.2498340  26.7638850 102.3758380  76.7585150  27.1128950
 102.7101600  75.4328320  26.4627630  99.5454650  72.9252540  25.1691340
  99.5490710  72.4842490  24.3195880 100.4405770  73.2469870  25.2763160
  95.3957030  72.8079030  24.1285550  95.0557080  73.2854260  24.8852600
  94.6334350  72.3544150  23.7686650  99.6074800  73.9264620  18.1598100
  99.7287620  73.8851100  19.1083920  99.2223310  74.7888770  18.0044830
 103.5703170  71.7032020  26.1761790 103.5875910  72.1540670  27.0203640
 103.3218750  70.8037660  26.3895230  98.6196300  76.2365760  17.5581400
  98.0513200  75.7884010  16.9317310  99.3285300  76.5958540  17.0246550
 106.9973920  69.1164200  32.0148170 107.3219690  68.3853860  32.5406150
 107.0330430  68.7977840  31.1129160  93.6965480  80.1377780  31.4348130
  93.3120270  79.4971450  32.0331090  94.0077670  80.8413900  32.0042860
  99.8462620  76.9854320  26.9156750 100.2132750  76.5112890  27.6618090
  99.6567680  77.8595890  27.2565090  92.7103110  71.7298010  23.0450220
  92.4250030  71.3653680  23.8828840  92.6481970  70.9978470  22.4313360
  97.6361990  76.0262960  29.2340960  97.3319060  76.9054940  29.4591320
  98.5908450  76.0862750  29.2698400  96.1643780  80.2323950  19.8307810
  95.3906040  79.6921570  19.6706530  96.8938410  79.7130560  19.4925570
 106.9231760  79.2289310  25.6234200 107.6430880  79.7244600  25.2330310
 106.7213580  78.5507200  24.9788070 102.3841700  70.6227270  19.7663590
 101.5706310  70.1240440  19.6908900 102.1903650  71.4625520  19.3499940
 102.3050560  79.2998370  31.5103200 102.2387870  78.3794040  31.2560790
 101.6755700  79.3973810  32.2247840 105.0990090  74.9946920  18.0625750
 105.9869710  75.3064150  17.8877090 105.0695180  74.1219170  17.6706330
  96.2081180  79.9004330  23.4686620  96.7259850  79.0972590  23.4143510
  95.7565200  79.8383470  24.3103450 101.0950680  81.1670610  18.7413920
 101.4366380  81.9112840  18.2457240 100.2663390  81.4801730  19.1038750
  93.6925720  76.8665700  30.3812320  93.3340660  77.5319550  30.9685660
  93.3980280  76.0349250  30.7524940  96.8938840  77.3249940  33.2651870
  96.5938980  77.4707120  32.3679690  97.6650080  76.7655230  33.1725260
 102.2367290  82.1218940  31.2607000 102.2511830  81.1899900  31.0425910
 101.5292390  82.2078700  31.8996770 107.3704360  76.3058760  17.5305610
 107.2868080  76.7372980  16.6802050 108.0898550  76.7657110  17.9632430
 108.4478500  78.7626280  30.6075580 107.7226690  79.3555060  30.4104970
 108.9753960  78.7549820  29.8088950 108.3991610  83.1601020  20.2587740
 107.7567770  82.5056640  20.5331460 108.0122270  83.5656110  19.4828410
 103.9778090  80.4886450  24.1059430 104.3301910  79.8914580  23.4460800
 103.0940420  80.1630680  24.2767680 100.0641370  81.2484140  21.5129840
 100.7512500  81.7953350  21.8937430  99.2773790  81.7924870  21.5479450
  92.2033770  76.8656960  17.0046920  93.0728620  77.1481760  17.2882840
  91.7124090  77.6792830  16.8895730  99.3668580  78.2530170  21.1255200
  99.8231360  79.0635420  21.3515390  99.0156790  77.9353310  21.9573690
 101.6701190  83.7636510  28.3547500 102.3143410  83.9695890  29.0320920
 102.0330630  83.0024910  27.9018350  95.2680360  68.5967820  21.5977720
  95.1394990  68.5885720  22.5462640  94.4442380  68.9350910  21.2468730
 102.9433270  81.7668860  27.0724950 103.5855500  81.0662020  27.1857120
 103.4682620  82.5467300  26.8921840 106.7888990  82.0517480  16.7964090
 106.5626570  81.3347920  17.3888730 106.3985190  81.8029920  15.9585840
 104.7170890  82.5663760  30.2761010 105.0527130  83.1530450  30.9538930
 103.7971230  82.4356470  30.5058800  92.5705020  86.0784340  17.5708550
  92.9302660  86.6773680  16.9165820  92.4297360  86.6244230  18.3443580
  92.2674290  70.3558940  31.0584420  91.5532810  70.5555860  31.6637030
  92.6869330  69.5798510  31.4299220 106.3705240  79.9689420  18.4578250
 106.0826940  80.4302110  19.2456130 107.1657410  79.5087190  18.7262470
  92.5546880  84.3439200  32.0450950  92.6638000  83.4033940  31.9046340
  91.9027440  84.6093950  31.3964680 100.5459470  82.6155090  33.4449070
 100.2256340  81.8964330  33.9894760  99.8717830  83.2910160  33.5185130
  98.5873640  83.4615540  18.3882220  98.5783740  84.1945230  17.7726730
  97.6672000  83.2147120  18.4809180  94.1880280  78.6830430  19.1328980
  93.5808230  79.4229330  19.1424280  94.6629630  78.7729790  18.3067180
 103.7613070  72.8481250  28.8085870 104.1293890  72.0276460  29.1365440
 102.9011270  72.9083140  29.2241520 107.1275100  71.8038190  19.6173430
 106.4988260  71.9083860  18.9031660 106.6327020  72.0234970  20.4067310
 101.5733240  83.5243780  17.0507410 101.6745220  83.3207770  16.1209390
 100.6734980  83.2702060  17.2555190  99.0959130  74.0824140  21.0331310
  98.3875280  74.5510480  21.4744920  99.3803610  73.4246150  21.6676500
 100.7215060  75.5020840  29.0323840 101.2200310  75.9766660  29.6975690
 100.8638010  74.5784360  29.2393870 103.1274560  70.8074800  22.4727100
 103.0042340  70.8260930  21.5236610 104.0759120  70.8553740  22.5925500
 100.2151350  86.0430100  21.7455080 100.4692850  86.0051490  20.8234450
  99.2663830  85.9163430  21.7383330  97.2994150  72.3909220  18.4082020
  98.1484680  72.8279370  18.3422210  96.9325420  72.7029480  19.2354080
 107.9281920  71.7188800  29.8752230 107.4255520  72.4594200  30.2146040
 108.7438580  72.1072800  29.5589020 106.2203930  76.9621980  23.3213590
 105.2794070  76.9772210  23.4961280 106.5348000  76.1757940  23.7673890
  96.1985570  78.6441580  16.8817550  96.9648840  78.5322940  17.4442980
  96.2760260  77.9479550  16.2294320  94.8932330  76.0766650  17.5650440
  94.9735920  75.1294160  17.6767840  95.7852080  76.4073530  17.6711100
 108.2229510  84.1330830  24.9967850 108.3476930  84.9562000  25.4691660
 109.0895070  83.9221560  24.6492000  95.6947040  86.2262040  24.6684980
  96.4309520  85.6777500  24.9393550  96.0787960  87.0918050  24.5290970
  92.5792520  82.2935610  20.5426490  91.6532300  82.5356750  20.5331900
  93.0448950  83.1209870  20.4211240  94.7005320  85.4108110  33.8570560
  95.5018050  85.7320160  34.2705960  94.1857140  85.0503690  34.5790470
  98.8049350  85.3992350  16.4910550  99.5977960  85.6881180  16.0392340
  98.2853700  84.9684520  15.8123030 103.5369950  81.5187980  33.8045970
 102.9308110  81.5419580  33.0641720 103.2324060  80.7871020  34.3413220
 104.9670320  85.2468270  32.4155380 105.9192070  85.1626290  32.3655620
 104.8198540  85.9109980  33.0889170 107.8579520  84.6262480  17.9147290
 107.5721030  84.2127620  17.1001470 107.6599070  85.5550190  17.7947810
  92.4203130  77.8981570  32.8006610  92.9242150  77.3188850  33.3722840
  91.6810550  78.1821800  33.3382980  99.3226750  80.6195760  16.3552900
  99.2177390  80.0048110  17.0814280  99.1550970  80.0961650  15.5715910
  99.4741070  79.3052560  32.3342130  98.7086740  79.8737560  32.2496800
  99.6557030  79.0128770  31.4410360 102.5629480  79.6815790  16.9594890
 102.0139580  80.1285090  17.6037630 103.1848740  79.1765040  17.4832560
 106.6164420  81.0357890  32.8917150 107.3573890  81.3733650  32.3884610
 105.8537100  81.2049950  32.3386920  94.4526210  76.0411160  33.6956680
  94.4931550  75.7425030  34.6041910  95.3071710  76.4418770  33.5364200
  98.2304600  78.6406710  18.8560190  98.6521020  78.4746580  19.6991580
  98.3555440  77.8306940  18.3615330  96.3932020  74.6203260  31.6631170
  95.8628480  74.1294210  31.0354510  97.0620090  75.0487460  31.1289100
 100.7432240  77.6644320  16.1037290 101.2637900  76.9493340  15.7378440
 101.3900640  78.3030190  16.4037800 105.2910080  79.0872720  31.4272360
 105.7051100  79.2417800  32.2762780 104.3561080  79.2127940  31.5898140
 105.7632250  76.4268880  33.4311510 106.3453020  75.6721200  33.3431990
 105.9394020  76.9576320  32.6542990  96.8804320  71.5865630  31.7428460
  96.7861190  70.9686380  31.0179330  96.3001710  72.3131920  31.5158370
  99.6465760  70.1438870  28.7755850  99.1983060  70.1663130  27.9301400
  99.0130960  69.7457890  29.3726150 100.0525310  79.0393200  29.3968290
 100.4713420  79.8825930  29.2244530  99.1333940  79.1765240  29.1675070
 102.3889210  76.7709380  30.7806130 102.5085420  76.1750520  31.5200970
 103.2483210  76.8079070  30.3607430 104.7277110  77.3246570  29.3568640
 104.2012330  77.8489190  28.7533780 105.0708450  77.9573960  29.9878370
  97.1263500  74.7139940  15.8018350  96.9252560  73.8507300  16.1631690
  96.9555550  74.6273300  14.8639950  97.9032730  85.3446210  30.5126020
  97.3653820  86.0692270  30.1934720  98.1566690  84.8676550  29.7223360
  99.1557980  73.3130730  32.0381950  99.7457670  73.0046580  32.7259770
  98.3378220  72.8410480  32.1941850 103.9751410  72.9296540  32.2714970
 103.2866930  72.2678080  32.2064960 104.6957430  72.4834810  32.7163430
 104.6051810  69.5248170  18.3305230 104.8854100  68.6816070  18.6864650
 103.8317540  69.7571280  18.8443980  95.9246300  71.8140560  15.7896230
  96.2272200  71.8207990  14.8815380  96.6640890  71.4638420  16.2863890
 100.7594940  86.5797420  30.7712670 100.6853640  87.4832560  31.0785040
  99.8573780  86.2609320  30.7434740  99.1431230  70.7575180  16.7752430
  98.7953230  70.0799170  16.1954880  99.3444000  70.2964690  17.5895820
 101.3080270  85.7455930  18.3939030 102.2031060  86.0840900  18.4157790
 101.3397900  85.0235340  17.7663310  94.9476430  81.1182980  16.6226030
  95.3851300  81.6612650  17.2783610  95.4324160  80.2929930  16.6322370
  92.1622230  83.9072010  24.0746290  92.4925240  83.0393070  23.8424930
  92.5913230  84.1130530  24.9051250  96.7584150  82.2381020  21.7348260
  96.4579690  82.1145990  22.6352170  96.6521640  81.3789610  21.3263990
  92.6512440  84.7742600  26.8127920  92.2143430  84.9543400  27.6452070
  93.2190120  85.5317220  26.6709640 108.2874620  84.2759600  31.1005230
 107.6876610  84.3352160  30.3569150 108.4168520  83.3364580  31.2302080
 109.5276070  82.0177420  16.4374940 108.6969030  82.0854070  16.9082170
 109.7047900  82.9081540  16.1341800 108.9832530  78.7624900  18.9409140
 109.7451440  79.3321550  19.0468830 108.9986900  78.1952100  19.7117450
  92.4836870  77.2862830  23.1716800  91.8285710  77.0174470  22.5276500
  93.3214820  77.1767310  22.7218780 109.9892500  79.6175000  23.7851070
 110.3601330  78.8342320  23.3787040 110.6294430  80.3064100  23.6068370
 106.9726260  81.0011580  29.1981390 106.1586100  81.4308740  29.4607180
 107.3800460  81.6129990  28.5850440 109.0351700  79.0559270  16.0981660
 109.3100540  79.9638150  15.9700880 108.8462440  78.9921800  17.0343650
 105.4327310  72.0804120  17.3935290 105.8512190  71.8935100  16.5531950
 105.1263370  71.2283170  17.7038220 108.9317040  76.9928260  21.0911090
 108.5560640  76.2256190  20.6592380 108.2020160  77.3750960  21.5786020
  93.5212800  77.6715400  27.7120140  93.8885840  77.5842800  28.5916160
  92.9523620  76.9081950  27.6127000 108.3216660  76.1399780  30.7250610
 108.0902750  75.9112530  29.8248560 108.5821210  77.0599330  30.6795500
  93.0728800  74.5824490  31.6178560  92.1784850  74.5491250  31.9572270
  93.6126350  74.7811280  32.3829810 106.7604730  71.3656210  33.5030310
 107.6374910  71.3739610  33.8864310 106.7725570  70.6287050  32.8922660
  91.6974950  74.4961760  19.1142130  90.7939030  74.7591960  18.9393790
  92.1815570  74.7672930  18.3342090 108.2068000  75.2185750  24.3918330
 108.7305480  74.7248400  23.7608500 108.7927420  75.3536110  25.1365900
 108.3857720  75.3025620  27.9137880 107.4360430  75.2689160  28.0282870
 108.5670730  76.2125730  27.6787650  94.2402160  73.5527300  17.0236510
  94.9493860  73.1310520  16.5383790  93.5242100  73.6202530  16.3919860
  93.8876320  69.6066630  16.0639160  94.6104450  70.1475570  16.3820380
  94.1600840  69.3330050  15.1880700 107.6967970  74.4759100  20.3310740
 108.1927090  74.2429970  21.1159620 107.4984040  73.6370940  19.9148380
  93.5768510  68.8572820  25.9661780  94.2244700  68.3070200  25.5256940
  93.9970350  69.1115970  26.7877590 109.1255130  73.1120050  22.8648420
 109.0154410  72.9576090  23.8030690 109.8862720  72.5840990  22.6223830
 107.4720850  69.0514180  29.3231420 108.1093070  69.6648320  29.6890610
 107.6195740  69.0874840  28.3780650 110.0145400  70.9427970  16.1054560
 110.9394710  70.8109150  15.8972850 109.9921190  71.0220790  17.0591010
 110.0883890  71.7138630  18.7311270 109.2935390  71.6483750  19.2604180
 110.2927170  72.6489270  18.7196620 107.0302310  85.7530180  22.7249660
 107.6261380  85.4314750  22.0484080 107.2880460  85.2802000  23.5162930
  93.3300510  69.0128490  28.7087100  92.9815330  69.4692310  29.4745280
  92.9988210  68.1185620  28.7909530  94.9364880  82.1848090  32.8740290
  94.8934510  81.8141000  33.7554750  95.0675890  83.1225660  33.0142110
  98.6370910  83.7407680  28.4750010  98.3962270  84.0082240  27.5880530
  99.5773550  83.9113410  28.5300870 100.8425330  70.2040370  32.2306520
 100.7814220  70.7962200  32.9801930 101.7825710  70.0966330  32.0856780
 103.4799890  69.8610430  31.8698810 104.0940300  70.1789720  31.2079890
 104.0249450  69.3759020  32.4894670 109.8975070  85.7602060  29.2760650
 109.4033350  86.1570930  28.5587780 109.2888360  85.1351270  29.6697930
  94.0021150  68.5404690  31.9837870  94.5504140  68.3592740  31.2203980
  94.0676460  67.7498800  32.5194180  94.7752910  85.1310340  29.9938070
  94.1813230  84.9995040  30.7328110  94.7676750  84.2948480  29.5280170
 104.2207930  68.4242570  28.1968100 103.3467770  68.7577680  27.9941030
 104.1118680  67.9515750  29.0219970 105.1279910  70.6313440  29.5809820
 104.7993270  69.8165200  29.2011550 106.0762210  70.5883250  29.4575510
 107.5814520  86.4025480  26.5547390 107.1217490  87.1541290  26.1805410
 106.9526980  85.6831950  26.4962190  94.4065140  82.4968720  28.9446110
  93.6799200  81.8774010  28.8772060  94.4674290  82.8909330  28.0744190
  98.0110240  84.7113720  25.7295520  98.5275260  84.1001080  25.2043780
  98.6607620  85.2142500  26.2206530 100.7505740  85.6022210  26.5564500
 101.0383550  85.3476510  25.6797510 101.2628960  85.0499570  27.1470070
 101.9682750  69.3412410  27.1361010 101.1854540  69.8157910  27.4157770
 101.6745680  68.4367240  27.0274190 106.5203820  70.0435510  25.1810100
 106.9611910  69.9880610  24.3331700 106.2511410  70.9593520  25.2520280
 108.3842390  69.6750750  23.1918920 108.3230790  68.7311970  23.0449940
 109.1634420  69.7830840  23.7372380  92.6895140  85.8143110  22.1542870
  92.5217180  85.1813790  22.8524760  91.8229650  86.0202510  21.8037060
  93.3123160  69.6459890  19.6574730  94.0702520  69.7588770  19.0838760
  92.8500330  70.4829090  19.6118160  99.8536970  71.7599160  22.6477040
  99.0411480  71.3856050  22.3072920 100.3578610  71.0044240  22.9498230
 104.3561950  68.4241610  23.8860110 104.9591320  68.9961820  24.3608630
 103.6154940  68.9881050  23.6634010 107.4996550  68.8263170  19.1600390
 107.6947180  69.7246620  19.4267820 106.7126420  68.5950250  19.6533340
  94.2957840  84.5076340  19.5993010  93.7705460  84.8884370  18.8954970
  94.2202420  85.1327110  20.3202720  95.6848310  70.1723940  18.1976700
  96.2141070  69.3853740  18.0684650  96.3176630  70.8515130  18.4312230
  97.8786150  69.9099080  21.2522090  97.2488890  69.2086390  21.4192220
  97.3391290  70.6703210  21.0355250 100.8178100  86.5238310  33.9232700
 101.7445410  86.2882580  33.9668660 100.8028530  87.3510310  33.4418730
 109.0523160  86.0663880  20.9206950 109.2275350  85.3801620  20.2767870
 108.3544730  86.5910930  20.5283620  98.0041710  69.1883060  33.6874580
  97.7225980  69.6916660  32.9235400  98.3861410  68.3904810  33.3216710
  96.8950810  86.4558720  18.4742260  97.6269630  86.1718000  17.9266150
  97.1544480  86.2172000  19.3641640  96.0565600  82.5723450  18.4788590
  95.4274480  83.0408550  19.0274420  96.1713430  81.7272670  18.9134780
 104.6057170  68.6036640  34.2655050 104.4922620  68.9231250  35.1606570
 105.4226910  69.0049150  33.9692330 107.3855660  85.7508170  33.7473740
 108.1780980  85.2557400  33.5399700 107.6788810  86.4298310  34.3549350
 103.5115320  76.6229110   4.6289790 103.4309370  75.7083720   4.3581500
 103.0979740  77.1196180   3.9229500 101.6433360  78.4008130   6.5099060
 100.8675460  77.9208570   6.7997630 102.2946290  77.7213780   6.3355220
  95.6599190  78.7127940   7.3874820  94.8284070  78.4576650   7.7871330
  96.2680170  78.7838710   8.1232740 105.6640790  82.8068320   5.2898190
 105.2022320  82.0355560   5.6185360 106.4766340  82.8334390   5.7950640
  95.6400450  82.7468030   7.5832840  95.9428490  81.8565770   7.4043060
  96.3844040  83.3038250   7.3555090  92.0324150  76.2735480   7.0556910
  92.6040260  75.5057680   7.0560550  92.0325690  76.5724240   6.1463520
 101.8904100  85.0926330   4.9102180 101.2715540  85.5483830   4.3396620
 102.7455880  85.2477790   4.5091880 101.0842350  81.0765320   6.5169220
 101.0150630  80.1355260   6.3558350 101.8462210  81.1666730   7.0891790
  93.2749020  71.6819840   8.8425840  93.0951860  70.7845590   9.1228600
  92.8729100  72.2291710   9.5172790 102.1147520  73.8835700   6.7438150
 102.4912340  73.0107580   6.6311820 102.0167030  74.2194400   5.8528590
  96.2452530  72.2561330   2.2055590  96.3519280  73.1565060   2.5124350
  95.3344890  72.2079300   1.9150240 105.8971640  71.3786140   3.6766490
 106.7181260  70.8882710   3.7191970 105.9305720  71.9683800   4.4298330
  93.8935690  74.1780340   7.4508180  94.5745800  74.4418710   8.0695580
  93.5783740  73.3381210   7.7846190  98.0860260  75.2247700   6.5380770
  98.5938480  75.7228670   7.1785790  98.6173500  74.4482900   6.3620130
 110.1871190  73.3952890  10.2410120 109.4823360  73.7834600   9.7225230
 110.4529110  74.0903180  10.8431050  96.3696360  69.8646260  10.8044190
  96.3714800  70.3818650   9.9990090  95.5400670  69.3876440  10.7814120
 102.7567450  79.9765570   2.3034090 102.1384720  80.4415020   1.7396810
 103.2690700  80.6693050   2.7203600  97.6199210  79.5041440   8.9817690
  97.2868590  80.1310360   9.6238760  97.7965890  80.0303320   8.2019360
 106.1333120  73.3186520   6.4494030 105.4288690  73.6071410   7.0297140
 106.4945280  74.1286630   6.0893590  96.0511690  71.5756220   8.8114640
  96.3928500  72.4198270   8.5168510  95.1127500  71.7239960   8.9279980
  96.8318310  81.4722240  10.7966870  97.4492310  82.1473320  10.5151320
  95.9711430  81.8810220  10.7054370 107.7495900  82.9361650   8.7121510
 107.0659420  83.6060760   8.7038180 108.2890190  83.1342300   7.9466370
 109.2020040  72.7641310   6.8403240 108.2544950  72.7980290   6.9718670
 109.5270030  73.5780260   7.2252600  99.7339580  69.0638490   5.1359230
 100.0414560  68.5085380   4.4194730  98.8040280  69.1982950   4.9532220
 105.2854640  84.7805780   7.4266690 105.2981800  84.3768070   6.5588950
 104.7329860  85.5553070   7.3228120 106.5800060  81.5022000   2.5156860
 106.4696390  80.5596330   2.6406280 106.5768310  81.8637640   3.4019620
 104.6840080  79.6835620   8.7549300 105.1008870  79.4695730   7.9202760
 105.4079900  79.9408410   9.3257920 102.1220340  77.1287320   1.8719350
 101.1949620  77.0624700   2.1007820 102.2745160  78.0667450   1.7574590
 108.6302180  78.0822840   8.8465540 107.8020810  78.1515930   8.3715670
 109.2252660  78.6677150   8.3781370 106.1517630  78.6907620   2.3754600
 105.5330050  78.3527170   1.7280900 106.1342080  78.0467380   3.0833790
 105.5944190  74.8692160   9.7920410 105.1815370  75.6945870  10.0460400
 104.8620140  74.2837200   9.5996770  97.7276980  77.6552060   4.6539080
  97.3233980  76.9429310   4.1584980  97.8140100  77.3105300   5.5427120
  98.1958680  81.3419620   6.8178290  97.8986970  80.7365090   6.1386070
  99.1458500  81.3796930   6.7067650  96.4405600  74.4295270   8.4338120
  96.9920190  74.5390610   7.6591370  96.9549110  74.8032870   9.1493350
 106.2844290  84.9151490  10.4801390 105.8074850  85.7223680  10.2874000
 105.6006080  84.2629820  10.6327600  97.2877110  81.0801310  13.4686090
  96.3905640  81.3041280  13.7159490  97.3129980  81.2036250  12.5197490
  96.1148330  77.9514630  12.0443460  95.9756100  78.8237430  12.4130860
  95.2329690  77.6087440  11.8991400 102.4377710  82.8690500   3.3508590
 102.8773620  83.6114830   2.9363980 102.3764600  83.1117070   4.2747550
  97.9128680  83.8936330  14.2528610  97.8844110  84.2979280  13.3857040
  97.7493650  82.9646690  14.0900210  94.4281610  76.5497040   2.1545730
  94.3079210  77.2759130   1.5427000  94.1182500  75.7799950   1.6773640
 109.8643500  84.6763430  15.5492780 110.3403220  85.1546320  16.2281860
 110.4850660  84.6080920  14.8238280  92.0666980  79.7212180   7.9614370
  92.1447400  79.8560950   7.0170090  92.6808660  79.0128070   8.1542490
  93.3114610  81.4212370   4.3720550  92.9042690  81.5626960   3.5174150
  94.2027620  81.1372530   4.1691760 109.2676750  81.8676280  12.7092790
 109.3939810  81.6288160  11.7909970 109.3098130  81.0360820  13.1814870
 103.1293490  85.5704280  11.2787600 103.6438160  85.4812290  12.0810030
 102.2862570  85.9163980  11.5715510  97.5836270  85.6358150   2.4843220
  97.4078750  84.7193690   2.2711020  96.7292010  85.9945440   2.7241020
 104.3723950  84.9909890   3.3418090 104.8280900  84.2099270   3.6556710
 104.7116470  85.7016710   3.8859270 109.1200760  73.9208740  13.6742530
 108.5045030  74.4288410  13.1457990 108.7997180  73.0207070  13.6168470
  92.1226500  80.7626350  10.5008830  92.2857540  80.2931710   9.6828200
  92.5878950  80.2549910  11.1657670  96.8945270  69.8932110   5.5369400
  96.4513420  70.6741650   5.2053920  97.4530260  70.2162000   6.2440340
 101.1815080  72.7600630  11.1404720 100.7194450  72.9683650  11.9524660
 100.7793190  71.9459980  10.8375390 106.1819590  73.9809580  12.2701380
 105.3313180  73.6815330  12.5910450 106.0221380  74.2251590  11.3585200
 103.2769300  75.4811330  14.3700170 103.6022710  74.6475080  14.0302400
 104.0649630  76.0039850  14.5178500  98.9321170  70.4379440   7.3959000
  99.2293500  71.3442270   7.3151020  99.4806730  69.9498220   6.7818570
  96.6859490  75.0165680   3.2650650  96.4600410  74.8002850   4.1697270
  95.9052020  75.4494140   2.9196620  99.1258700  75.9151260  13.9310920
  99.0302300  74.9745990  13.7811320  99.9690680  76.1366330  13.5358990
 102.5222120  73.6592590   3.8944580 102.9151690  73.9764790   3.0813270
 102.8838970  72.7804470   4.0089100  94.2569240  72.3264930  12.0844700
  93.8632630  73.1740140  12.2917480  93.5687640  71.6891300  12.2753340
 100.8314290  72.4099900  15.1541440 100.1412610  72.2172100  15.7887530
 101.5746590  72.6934540  15.6865740  91.5586290  70.2493390   6.1174780
  91.2699340  70.8196250   6.8299760  92.3032050  69.7697840   6.4806010
 103.1077260  76.2498340   7.9895360 102.3758380  76.7585150   8.3385460
 102.7101600  75.4328320   7.6884140  99.5454650  72.9252540   6.3947850
  99.5490710  72.4842490   5.5452390 100.4405770  73.2469870   6.5019670
  95.3957030  72.8079030   5.3542060  95.0557080  73.2854260   6.1109110
  94.6334350  72.3544150   4.9943160 103.5703170  71.7032020   7.4018300
 103.5875910  72.1540670   8.2460150 103.3218750  70.8037660   7.6151740
 106.9973920  69.1164200  13.2404680 107.3219690  68.3853860  13.7662660
 107.0330430  68.7977840  12.3385670  93.6965480  80.1377780  12.6604640
  93.3120270  79.4971450  13.2587600  94.0077670  80.8413900  13.2299370
  99.8462620  76.9854320   8.1413260 100.2132750  76.5112890   8.8874600
  99.6567680  77.8595890   8.4821600  92.7103110  71.7298010   4.2706730
  92.4250030  71.3653680   5.1085350  92.6481970  70.9978470   3.6569870
  97.6361990  76.0262960  10.4597470  97.3319060  76.9054940  10.6847830
  98.5908450  76.0862750  10.4954910 106.9231760  79.2289310   6.8490710
 107.6430880  79.7244600   6.4586820 106.7213580  78.5507200   6.2044580
 102.3050560  79.2998370  12.7359710 102.2387870  78.3794040  12.4817300
 101.6755700  79.3973810  13.4504350  96.2081180  79.9004330   4.6943130
  96.7259850  79.0972590   4.6400020  95.7565200  79.8383470   5.5359960
  93.6925720  76.8665700  11.6068830  93.3340660  77.5319550  12.1942170
  93.3980280  76.0349250  11.9781450  96.8938840  77.3249940  14.4908380
  96.5938980  77.4707120  13.5936200  97.6650080  76.7655230  14.3981770
 102.2367290  82.1218940  12.4863510 102.2511830  81.1899900  12.2682420
 101.5292390  82.2078700  13.1253280 108.4478500  78.7626280  11.8332090
 107.7226690  79.3555060  11.6361480 108.9753960  78.7549820  11.0345460
 103.9778090  80.4886450   5.3315940 104.3301910  79.8914580   4.6717310
 103.0940420  80.1630680   5.5024190 100.0641370  81.2484140   2.7386350
 100.7512500  81.7953350   3.1193940  99.2773790  81.7924870   2.7735960
  99.3668580  78.2530170   2.3511710  99.8231360  79.0635420   2.5771900
  99.0156790  77.9353310   3.1830200 101.6701190  83.7636510   9.5804010
 102.3143410  83.9695890  10.2577430 102.0330630  83.0024910   9.1274860
  95.2680360  68.5967820   2.8234230  95.1394990  68.5885720   3.7719150
  94.4442380  68.9350910   2.4725240 102.9433270  81.7668860   8.2981460
 103.5855500  81.0662020   8.4113630 103.4682620  82.5467300   8.1178350
 104.7170890  82.5663760  11.5017520 105.0527130  83.1530450  12.1795440
 103.7971230  82.4356470  11.7315310  92.2674290  70.3558940  12.2840930
  91.5532810  70.5555860  12.8893540  92.6869330  69.5798510  12.6555730
  92.5546880  84.3439200  13.2707460  92.6638000  83.4033940  13.1302850
  91.9027440  84.6093950  12.6221190 100.5459470  82.6155090  14.6705580
 100.2256340  81.8964330  15.2151270  99.8717830  83.2910160  14.7441640
 103.7613070  72.8481250  10.0342380 104.1293890  72.0276460  10.3621950
 102.9011270  72.9083140  10.4498030  99.0959130  74.0824140   2.2587820
  98.3875280  74.5510480   2.7001430  99.3803610  73.4246150   2.8933010
 100.7215060  75.5020840  10.2580350 101.2200310  75.9766660  10.9232200
 100.8638010  74.5784360  10.4650380 103.1274560  70.8074800   3.6983610
 103.0042340  70.8260930   2.7493120 104.0759120  70.8553740   3.8182010
 100.2151350  86.0430100   2.9711590 100.4692850  86.0051490   2.0490960
  99.2663830  85.9163430   2.9639840 107.9281920  71.7188800  11.1008740
 107.4255520  72.4594200  11.4402550 108.7438580  72.1072800  10.7845530
 106.2203930  76.9621980   4.5470100 105.2794070  76.9772210   4.7217790
 106.5348000  76.1757940   4.9930400 108.2229510  84.1330830   6.2224360
 108.3476930  84.9562000   6.6948170 109.0895070  83.9221560   5.8748510
  95.6947040  86.2262040   5.8941490  96.4309520  85.6777500   6.1650060
  96.0787960  87.0918050   5.7547480  92.5792520  82.2935610   1.7683000
  91.6532300  82.5356750   1.7588410  93.0448950  83.1209870   1.6467750
  94.7005320  85.4108110  15.0827070  95.5018050  85.7320160  15.4962470
  94.1857140  85.0503690  15.8046980 103.5369950  81.5187980  15.0302480
 102.9308110  81.5419580  14.2898230 103.2324060  80.7871020  15.5669730
 104.9670320  85.2468270  13.6411890 105.9192070  85.1626290  13.5912130
 104.8198540  85.9109980  14.3145680  92.4203130  77.8981570  14.0263120
  92.9242150  77.3188850  14.5979350  91.6810550  78.1821800  14.5639490
  99.4741070  79.3052560  13.5598640  98.7086740  79.8737560  13.4753310
  99.6557030  79.0128770  12.6666870 106.6164420  81.0357890  14.1173660
 107.3573890  81.3733650  13.6141120 105.8537100  81.2049950  13.5643430
  94.4526210  76.0411160  14.9213190  94.4931550  75.7425030  15.8298420
  95.3071710  76.4418770  14.7620710  96.3932020  74.6203260  12.8887680
  95.8628480  74.1294210  12.2611020  97.0620090  75.0487460  12.3545610
 105.2910080  79.0872720  12.6528870 105.7051100  79.2417800  13.5019290
 104.3561080  79.2127940  12.8154650 105.7632250  76.4268880  14.6568020
 106.3453020  75.6721200  14.5688500 105.9394020  76.9576320  13.8799500
  96.8804320  71.5865630  12.9684970  96.7861190  70.9686380  12.2435840
  96.3001710  72.3131920  12.7414880  99.6465760  70.1438870  10.0012360
  99.1983060  70.1663130   9.1557910  99.0130960  69.7457890  10.5982660
 100.0525310  79.0393200  10.6224800 100.4713420  79.8825930  10.4501040
  99.1333940  79.1765240  10.3931580 102.3889210  76.7709380  12.0062640
 102.5085420  76.1750520  12.7457480 103.2483210  76.8079070  11.5863940
 104.7277110  77.3246570  10.5825150 104.2012330  77.8489190   9.9790290
 105.0708450  77.9573960  11.2134880  97.9032730  85.3446210  11.7382530
  97.3653820  86.0692270  11.4191230  98.1566690  84.8676550  10.9479870
  99.1557980  73.3130730  13.2638460  99.7457670  73.0046580  13.9516280
  98.3378220  72.8410480  13.4198360 103.9751410  72.9296540  13.4971480
 103.2866930  72.2678080  13.4321470 104.6957430  72.4834810  13.9419940
 100.7594940  86.5797420  11.9969180 100.6853640  87.4832560  12.3041550
  99.8573780  86.2609320  11.9691250  92.1622230  83.9072010   5.3002800
  92.4925240  83.0393070   5.0681440  92.5913230  84.1130530   6.1307760
  96.7584150  82.2381020   2.9604770  96.4579690  82.1145990   3.8608680
  96.6521640  81.3789610   2.5520500  92.6512440  84.7742600   8.0384430
  92.2143430  84.9543400   8.8708580  93.2190120  85.5317220   7.8966150
 108.2874620  84.2759600  12.3261740 107.6876610  84.3352160  11.5825660
 108.4168520  83.3364580  12.4558590  92.4836870  77.2862830   4.3973310
  91.8285710  77.0174470   3.7533010  93.3214820  77.1767310   3.9475290
 109.9892500  79.6175000   5.0107580 110.3601330  78.8342320   4.6043550
 110.6294430  80.3064100   4.8324880 106.9726260  81.0011580  10.4237900
 106.1586100  81.4308740  10.6863690 107.3800460  81.6129990   9.8106950
 108.9317040  76.9928260   2.3167600 108.5560640  76.2256190   1.8848890
 108.2020160  77.3750960   2.8042530  93.5212800  77.6715400   8.9376650
  93.8885840  77.5842800   9.8172670  92.9523620  76.9081950   8.8383510
 108.3216660  76.1399780  11.9507120 108.0902750  75.9112530  11.0505070
 108.5821210  77.0599330  11.9052010  93.0728800  74.5824490  12.8435070
  92.1784850  74.5491250  13.1828780  93.6126350  74.7811280  13.6086320
 106.7604730  71.3656210  14.7286820 107.6374910  71.3739610  15.1120820
 106.7725570  70.6287050  14.1179170 108.2068000  75.2185750   5.6174840
 108.7305480  74.7248400   4.9865010 108.7927420  75.3536110   6.3622410
 108.3857720  75.3025620   9.1394390 107.4360430  75.2689160   9.2539380
 108.5670730  76.2125730   8.9044160  93.5768510  68.8572820   7.1918290
  94.2244700  68.3070200   6.7513450  93.9970350  69.1115970   8.0134100
 109.1255130  73.1120050   4.0904930 109.0154410  72.9576090   5.0287200
 109.8862720  72.5840990   3.8480340 107.4720850  69.0514180  10.5487930
 108.1093070  69.6648320  10.9147120 107.6195740  69.0874840   9.6037160
 107.0302310  85.7530180   3.9506170 107.6261380  85.4314750   3.2740590
 107.2880460  85.2802000   4.7419440  93.3300510  69.0128490   9.9343610
  92.9815330  69.4692310  10.7001790  92.9988210  68.1185620  10.0166040
  94.9364880  82.1848090  14.0996800  94.8934510  81.8141000  14.9811260
  95.0675890  83.1225660  14.2398620  98.6370910  83.7407680   9.7006520
  98.3962270  84.0082240   8.8137040  99.5773550  83.9113410   9.7557380
 100.8425330  70.2040370  13.4563030 100.7814220  70.7962200  14.2058440
 101.7825710  70.0966330  13.3113290 103.4799890  69.8610430  13.0955320
 104.0940300  70.1789720  12.4336400 104.0249450  69.3759020  13.7151180
 109.8975070  85.7602060  10.5017160 109.4033350  86.1570930   9.7844290
 109.2888360  85.1351270  10.8954440  94.0021150  68.5404690  13.2094380
  94.5504140  68.3592740  12.4460490  94.0676460  67.7498800  13.7450690
  94.7752910  85.1310340  11.2194580  94.1813230  84.9995040  11.9584620
  94.7676750  84.2948480  10.7536680 104.2207930  68.4242570   9.4224610
 103.3467770  68.7577680   9.2197540 104.1118680  67.9515750  10.2476480
 105.1279910  70.6313440  10.8066330 104.7993270  69.8165200  10.4268060
 106.0762210  70.5883250  10.6832020 107.5814520  86.4025480   7.7803900
 107.1217490  87.1541290   7.4061920 106.9526980  85.6831950   7.7218700
  94.4065140  82.4968720  10.1702620  93.6799200  81.8774010  10.1028570
  94.4674290  82.8909330   9.3000700  98.0110240  84.7113720   6.9552030
  98.5275260  84.1001080   6.4300290  98.6607620  85.2142500   7.4463040
 100.7505740  85.6022210   7.7821010 101.0383550  85.3476510   6.9054020
 101.2628960  85.0499570   8.3726580 101.9682750  69.3412410   8.3617520
 101.1854540  69.8157910   8.6414280 101.6745680  68.4367240   8.2530700
 106.5203820  70.0435510   6.4066610 106.9611910  69.9880610   5.5588210
 106.2511410  70.9593520   6.4776790 108.3842390  69.6750750   4.4175430
 108.3230790  68.7311970   4.2706450 109.1634420  69.7830840   4.9628890
  92.6895140  85.8143110   3.3799380  92.5217180  85.1813790   4.0781270
  91.8229650  86.0202510   3.0293570  99.8536970  71.7599160   3.8733550
  99.0411480  71.3856050   3.5329430 100.3578610  71.0044240   4.1754740
 104.3561950  68.4241610   5.1116620 104.9591320  68.9961820   5.5865140
 103.6154940  68.9881050   4.8890520  97.8786150  69.9099080   2.4778600
  97.2488890  69.2086390   2.6448730  97.3391290  70.6703210   2.2611760
 100.8178100  86.5238310  15.1489210 101.7445410  86.2882580  15.1925170
 100.8028530  87.3510310  14.6675240 109.0523160  86.0663880   2.1463460
 109.2275350  85.3801620   1.5024380 108.3544730  86.5910930   1.7540130
  98.0041710  69.1883060  14.9131090  97.7225980  69.6916660  14.1491910
  98.3861410  68.3904810  14.5473220 104.6057170  68.6036640  15.4911560
 104.4922620  68.9231250  16.3863080 105.4226910  69.0049150  15.1948840
 107.3855660  85.7508170  14.9730250 108.1780980  85.2557400  14.7656210
 107.6788810  86.4298310  15.5805860 103.5115320  57.8485620  98.5007240
 103.4309370  56.9340230  98.2298950 103.0979740  58.3452690  97.7946950
 101.6433360  59.6264640 100.3816510 100.8675460  59.1465080 100.6715080
 102.2946290  58.9470290 100.2072670  95.6599190  59.9384450 101.2592270
  94.8284070  59.6833160 101.6588780  96.2680170  60.0095220 101.9950190
 105.6640790  64.0324830  99.1615640 105.2022320  63.2612070  99.4902810
 106.4766340  64.0590900  99.6668090  95.6400450  63.9724540 101.4550290
  95.9428490  63.0822280 101.2760510  96.3844040  64.5294760 101.2272540
  94.0691140  54.8986340  95.0434660  93.1807840  55.2402310  94.9414540
  94.3532330  54.6986660  94.1515490  92.0324150  57.4991990 100.9274360
  92.6040260  56.7314190 100.9278000  92.0325690  57.7980750 100.0180970
 101.8904100  66.3182840  98.7819630 101.2715540  66.7740340  98.2114070
 102.7455880  66.4734300  98.3809330 101.0842350  62.3021830 100.3886670
 101.0150630  61.3611770 100.2275800 101.8462210  62.3923240 100.9609240
  93.2749020  52.9076350 102.7143290  93.0951860  52.0102100 102.9946050
  92.8729100  53.4548220 103.3890240 102.1147520  55.1092210 100.6155600
 102.4912340  54.2364090 100.5029270 102.0167030  55.4450910  99.7246040
  96.2452530  53.4817840  96.0773040  96.3519280  54.3821570  96.3841800
  95.3344890  53.4335810  95.7867690 105.8971640  52.6042650  97.5483940
 106.7181260  52.1139220  97.5909420 105.9305720  53.1940310  98.3015780
  93.8935690  55.4036850 101.3225630  94.5745800  55.6675220 101.9413030
  93.5783740  54.5637720 101.6563640  98.0860260  56.4504210 100.4098220
  98.5938480  56.9485180 101.0503240  98.6173500  55.6739410 100.2337580
 110.1871190  54.6209400 104.1127570 109.4823360  55.0091110 103.5942680
 110.4529110  55.3159690 104.7148500  96.3696360  51.0902770 104.6761640
  96.3714800  51.6075160 103.8707540  95.5400670  50.6132950 104.6531570
 102.7567450  61.2022080  96.1751540 102.1384720  61.6671530  95.6114260
 103.2690700  61.8949560  96.5921050  97.6199210  60.7297950 102.8535140
  97.2868590  61.3566870 103.4956210  97.7965890  61.2559830 102.0736810
 106.1333120  54.5443030 100.3211480 105.4288690  54.8327920 100.9014590
 106.4945280  55.3543140  99.9611040  96.0511690  52.8012730 102.6832090
  96.3928500  53.6454780 102.3885960  95.1127500  52.9496470 102.7997430
  96.8318310  62.6978750 104.6684320  97.4492310  63.3729830 104.3868770
  95.9711430  63.1066730 104.5771820  92.1250650  61.8878610  93.5491170
  91.7478630  62.3765710  92.8176070  92.3823720  62.5603890  94.1797700
 107.7495900  64.1618160 102.5838960 107.0659420  64.8317270 102.5755630
 108.2890190  64.3598810 101.8183820 109.2020040  53.9897820 100.7120690
 108.2544950  54.0236800 100.8436120 109.5270030  54.8036770 101.0970050
  99.7339580  50.2895000  99.0076680 100.0414560  49.7341890  98.2912180
  98.8040280  50.4239460  98.8249670 105.2854640  66.0062290 101.2984140
 105.2981800  65.6024580 100.4306400 104.7329860  66.7809580 101.1945570
 106.5800060  62.7278510  96.3874310 106.4696390  61.7852840  96.5123730
 106.5768310  63.0894150  97.2737070 104.6840080  60.9092130 102.6266750
 105.1008870  60.6952240 101.7920210 105.4079900  61.1664920 103.1975370
 102.1220340  58.3543830  95.7436800 101.1949620  58.2881210  95.9725270
 102.2745160  59.2923960  95.6292040 102.1089420  54.6260830  92.7403960
 101.1693090  54.7874790  92.8256420 102.4272680  55.3446510  92.1939950
 108.6302180  59.3079350 102.7182990 107.8020810  59.3772440 102.2433120
 109.2252660  59.8933660 102.2498820 106.1517630  59.9164130  96.2472050
 105.5330050  59.5783680  95.5998350 106.1342080  59.2723890  96.9551240
 105.5944190  56.0948670 103.6637860 105.1815370  56.9202380 103.9177850
 104.8620140  55.5093710 103.4714220  97.7276980  58.8808570  98.5256530
  97.3233980  58.1685820  98.0302430  97.8140100  58.5361810  99.4144570
  98.1958680  62.5676130 100.6895740  97.8986970  61.9621600 100.0103520
  99.1458500  62.6053440 100.5785100  96.4405600  55.6551780 102.3055570
  96.9920190  55.7647120 101.5308820  96.9549110  56.0289380 103.0210800
 106.2844290  66.1408000 104.3518840 105.8074850  66.9480190 104.1591450
 105.6006080  65.4886330 104.5045050 104.3282330  59.1550940  93.2544800
 104.7675610  58.3173370  93.1082620 105.0410750  59.7880340  93.3408940
 102.4377710  64.0947010  97.2226040 102.8773620  64.8371340  96.8081430
 102.3764600  64.3373580  98.1465000 107.9099470  50.4093750  91.5685840
 107.5972130  50.5020580  92.4684910 108.6711940  50.9874780  91.5183270
  94.4281610  57.7753550  96.0263180  94.3079210  58.5015640  95.4144450
  94.1182500  57.0056460  95.5491090  92.0666980  60.9468690 101.8331820
  92.1447400  61.0817460 100.8887540  92.6808660  60.2384580 102.0259940
  93.3114610  62.6468880  98.2438000  92.9042690  62.7883470  97.3891600
  94.2027620  62.3629040  98.0409210 105.1047890  67.0816130  94.5789050
 104.9449030  66.7919070  95.4770880 104.9394600  66.3056260  94.0434280
  97.5836270  66.8614660  96.3560670  97.4078750  65.9450200  96.1428470
  96.7292010  67.2201950  96.5958470 104.8074020  64.5903690  93.1387050
 104.1139180  64.5880980  92.4789330 105.5496880  64.1663010  92.7081220
 104.3723950  66.2166400  97.2135540 104.8280900  65.4355780  97.5274160
 104.7116470  66.9273220  97.7576720  96.8945270  51.1188620  99.4086850
  96.4513420  51.8998160  99.0771370  97.4530260  51.4418510 100.1157790
 100.0104090  50.7399320  94.2892680  99.3858270  50.7359190  95.0145990
  99.9234210  49.8730280  93.8928650  98.9321170  51.6635950 101.2676450
  99.2293500  52.5698780 101.1868470  99.4806730  51.1754730 100.6536020
  96.6859490  56.2422190  97.1368100  96.4600410  56.0259360  98.0414720
  95.9052020  56.6750650  96.7914070 103.9157250  56.2485560  95.7358750
 103.3166140  56.9721360  95.5522370 104.4636860  56.1862340  94.9535200
 102.5222120  54.8849100  97.7662030 102.9151690  55.2021300  96.9530720
 102.8838970  54.0060980  97.8806550  91.5586290  51.4749900  99.9892230
  91.2699340  52.0452760 100.7017210  92.3032050  50.9954350 100.3523460
  91.7456520  55.4170020  91.1994950  91.6631190  56.3600780  91.3409940
  91.3939580  55.2744930  90.3207300 103.1077260  57.4754850 101.8612810
 102.3758380  57.9841660 102.2102910 102.7101600  56.6584830 101.5601590
  99.5454650  54.1509050 100.2665300  99.5490710  53.7099000  99.4169840
 100.4405770  54.4726380 100.3737120  95.3957030  54.0335540  99.2259510
  95.0557080  54.5110770  99.9826560  94.6334350  53.5800660  98.8660610
  99.6074800  55.1521130  93.2572060  99.7287620  55.1107610  94.2057880
  99.2223310  56.0145280  93.1018790 103.5703170  52.9288530 101.2735750
 103.5875910  53.3797180 102.1177600 103.3218750  52.0294170 101.4869190
  98.6196300  57.4622270  92.6555360  98.0513200  57.0140520  92.0291270
  99.3285300  57.8215050  92.1220510  99.8462620  58.2110830 102.0130710
 100.2132750  57.7369400 102.7592050  99.6567680  59.0852400 102.3539050
  92.7103110  52.9554520  98.1424180  92.4250030  52.5910190  98.9802800
  92.6481970  52.2234980  97.5287320  97.6361990  57.2519470 104.3314920
  97.3319060  58.1311450 104.5565280  98.5908450  57.3119260 104.3672360
  96.1643780  61.4580460  94.9281770  95.3906040  60.9178080  94.7680490
  96.8938410  60.9387070  94.5899530 106.9231760  60.4545820 100.7208160
 107.6430880  60.9501110 100.3304270 106.7213580  59.7763710 100.0762030
 102.3841700  51.8483780  94.8637550 101.5706310  51.3496950  94.7882860
 102.1903650  52.6882030  94.4473900 105.0990090  56.2203430  93.1599710
 105.9869710  56.5320660  92.9851050 105.0695180  55.3475680  92.7680290
  96.2081180  61.1260840  98.5660580  96.7259850  60.3229100  98.5117470
  95.7565200  61.0639980  99.4077410 101.0950680  62.3927120  93.8387880
 101.4366380  63.1369350  93.3431200 100.2663390  62.7058240  94.2012710
 107.3704360  57.5315270  92.6279570 107.2868080  57.9629490  91.7776010
 108.0898550  57.9913620  93.0606390 108.3991610  64.3857530  95.3561700
 107.7567770  63.7313150  95.6305420 108.0122270  64.7912620  94.5802370
 103.9778090  61.7142960  99.2033390 104.3301910  61.1171090  98.5434760
 103.0940420  61.3887190  99.3741640 100.0641370  62.4740650  96.6103800
 100.7512500  63.0209860  96.9911390  99.2773790  63.0181380  96.6453410
  92.2033770  58.0913470  92.1020880  93.0728620  58.3738270  92.3856800
  91.7124090  58.9049340  91.9869690  99.3668580  59.4786680  96.2229160
  99.8231360  60.2891930  96.4489350  99.0156790  59.1609820  97.0547650
 101.6701190  64.9893020 103.4521460 102.3143410  65.1952400 104.1294880
 102.0330630  64.2281420 102.9992310  95.2680360  49.8224330  96.6951680
  95.1394990  49.8142230  97.6436600  94.4442380  50.1607420  96.3442690
 102.9433270  62.9925370 102.1698910 103.5855500  62.2918530 102.2831080
 103.4682620  63.7723810 101.9895800 106.7888990  63.2773990  91.8938050
 106.5626570  62.5604430  92.4862690 106.3985190  63.0286430  91.0559800
  92.5705020  67.3040850  92.6682510  92.9302660  67.9030190  92.0139780
  92.4297360  67.8500740  93.4417540 106.3705240  61.1945930  93.5552210
 106.0826940  61.6558620  94.3430090 107.1657410  60.7343700  93.8236430
  98.5873640  64.6872050  93.4856180  98.5783740  65.4201740  92.8700690
  97.6672000  64.4403630  93.5783140  94.1880280  59.9086940  94.2302940
  93.5808230  60.6485840  94.2398240  94.6629630  59.9986300  93.4041140
 103.7613070  54.0737760 103.9059830 104.1293890  53.2532970 104.2339400
 102.9011270  54.1339650 104.3215480 107.1275100  53.0294700  94.7147390
 106.4988260  53.1340370  94.0005620 106.6327020  53.2491480  95.5041270
 101.5733240  64.7500290  92.1481370 101.6745220  64.5464280  91.2183350
 100.6734980  64.4958570  92.3529150  99.0959130  55.3080650  96.1305270
  98.3875280  55.7766990  96.5718880  99.3803610  54.6502660  96.7650460
 100.7215060  56.7277350 104.1297800 101.2200310  57.2023170 104.7949650
 100.8638010  55.8040870 104.3367830 103.1274560  52.0331310  97.5701060
 103.0042340  52.0517440  96.6210570 104.0759120  52.0810250  97.6899460
 100.2151350  67.2686610  96.8429040 100.4692850  67.2308000  95.9208410
  99.2663830  67.1419940  96.8357290  97.2994150  53.6165730  93.5055980
  98.1484680  54.0535880  93.4396170  96.9325420  53.9285990  94.3328040
 106.2203930  58.1878490  98.4187550 105.2794070  58.2028720  98.5935240
 106.5348000  57.4014450  98.8647850  96.1985570  59.8698090  91.9791510
  96.9648840  59.7579450  92.5416940  96.2760260  59.1736060  91.3268280
  94.8932330  57.3023160  92.6624400  94.9735920  56.3550670  92.7741800
  95.7852080  57.6330040  92.7685060 108.2229510  65.3587340 100.0941810
 108.3476930  66.1818510 100.5665620 109.0895070  65.1478070  99.7465960
  95.6947040  67.4518550  99.7658940  96.4309520  66.9034010 100.0367510
  96.0787960  68.3174560  99.6264930  92.5792520  63.5192120  95.6400450
  91.6532300  63.7613260  95.6305860  93.0448950  64.3466380  95.5185200
  98.8049350  66.6248860  91.5884510  99.5977960  66.9137690  91.1366300
  98.2853700  66.1941030  90.9096990 107.8579520  65.8518990  93.0121250
 107.5721030  65.4384130  92.1975430 107.6599070  66.7806700  92.8921770
  99.3226750  61.8452270  91.4526860  99.2177390  61.2304620  92.1788240
  99.1550970  61.3218160  90.6689870 102.5629480  60.9072300  92.0568850
 102.0139580  61.3541600  92.7011590 103.1848740  60.4021550  92.5806520
  98.2304600  59.8663220  93.9534150  98.6521020  59.7003090  94.7965540
  98.3555440  59.0563450  93.4589290 100.7432240  58.8900830  91.2011250
 101.2637900  58.1749850  90.8352400 101.3900640  59.5286700  91.5011760
  99.6465760  51.3695380 103.8729810  99.1983060  51.3919640 103.0275360
  99.0130960  50.9714400 104.4700110 100.0525310  60.2649710 104.4942250
 100.4713420  61.1082440 104.3218490  99.1333940  60.4021750 104.2649030
 104.6051810  50.7504680  93.4279190 104.8854100  49.9072580  93.7838610
 103.8317540  50.9827790  93.9417940  95.9246300  53.0397070  90.8870190
  96.2272200  53.0464500  89.9789340  96.6640890  52.6894930  91.3837850
  99.1431230  51.9831690  91.8726390  98.7953230  51.3055680  91.2928840
  99.3444000  51.5221200  92.6869780 101.3080270  66.9712440  93.4912990
 102.2031060  67.3097410  93.5131750 101.3397900  66.2491850  92.8637270
  94.9476430  62.3439490  91.7199990  95.3851300  62.8869160  92.3757570
  95.4324160  61.5186440  91.7296330  92.1622230  65.1328520  99.1720250
  92.4925240  64.2649580  98.9398890  92.5913230  65.3387040 100.0025210
  96.7584150  63.4637530  96.8322220  96.4579690  63.3402500  97.7326130
  96.6521640  62.6046120  96.4237950  92.6512440  65.9999110 101.9101880
  92.2143430  66.1799910 102.7426030  93.2190120  66.7573730 101.7683600
 109.5276070  63.2433930  91.5348900 108.6969030  63.3110580  92.0056130
 109.7047900  64.1338050  91.2315760 108.9832530  59.9881410  94.0383100
 109.7451440  60.5578060  94.1442790 108.9986900  59.4208610  94.8091410
  92.4836870  58.5119340  98.2690760  91.8285710  58.2430980  97.6250460
  93.3214820  58.4023820  97.8192740 109.9892500  60.8431510  98.8825030
 110.3601330  60.0598830  98.4761000 110.6294430  61.5320610  98.7042330
 106.9726260  62.2268090 104.2955350 106.1586100  62.6565250 104.5581140
 107.3800460  62.8386500 103.6824400 109.0351700  60.2815780  91.1955620
 109.3100540  61.1894660  91.0674840 108.8462440  60.2178310  92.1317610
 105.4327310  53.3060630  92.4909250 105.8512190  53.1191610  91.6505910
 105.1263370  52.4539680  92.8012180 108.9317040  58.2184770  96.1885050
 108.5560640  57.4512700  95.7566340 108.2020160  58.6007470  96.6759980
  93.5212800  58.8971910 102.8094100  93.8885840  58.8099310 103.6890120
  92.9523620  58.1338460 102.7100960  91.6974950  55.7218270  94.2116090
  90.7939030  55.9848470  94.0367750  92.1815570  55.9929440  93.4316050
 108.2068000  56.4442260  99.4892290 108.7305480  55.9504910  98.8582460
 108.7927420  56.5792620 100.2339860 108.3857720  56.5282130 103.0111840
 107.4360430  56.4945670 103.1256830 108.5670730  57.4382240 102.7761610
  94.2402160  54.7783810  92.1210470  94.9493860  54.3567030  91.6357750
  93.5242100  54.8459040  91.4893820  93.8876320  50.8323140  91.1613120
  94.6104450  51.3732080  91.4794340  94.1600840  50.5586560  90.2854660
 107.6967970  55.7015610  95.4284700 108.1927090  55.4686480  96.2133580
 107.4984040  54.8627450  95.0122340  93.5768510  50.0829330 101.0635740
  94.2244700  49.5326710 100.6230900  93.9970350  50.3372480 101.8851550
 109.1255130  54.3376560  97.9622380 109.0154410  54.1832600  98.9004650
 109.8862720  53.8097500  97.7197790 107.4720850  50.2770690 104.4205380
 108.1093070  50.8904830 104.7864570 107.6195740  50.3131350 103.4754610
 110.0145400  52.1684480  91.2028520 110.9394710  52.0365660  90.9946810
 109.9921190  52.2477300  92.1564970 110.0883890  52.9395140  93.8285230
 109.2935390  52.8740260  94.3578140 110.2927170  53.8745780  93.8170580
 107.0302310  66.9786690  97.8223620 107.6261380  66.6571260  97.1458040
 107.2880460  66.5058510  98.6136890  93.3300510  50.2385000 103.8061060
  92.9815330  50.6948820 104.5719240  92.9988210  49.3442130 103.8883490
  98.6370910  64.9664190 103.5723970  98.3962270  65.2338750 102.6854490
  99.5773550  65.1369920 103.6274830 109.8975070  66.9858570 104.3734610
 109.4033350  67.3827440 103.6561740 109.2888360  66.3607780 104.7671890
 104.2207930  49.6499080 103.2942060 103.3467770  49.9834190 103.0914990
 104.1118680  49.1772260 104.1193930 105.1279910  51.8569950 104.6783780
 104.7993270  51.0421710 104.2985510 106.0762210  51.8139760 104.5549470
 107.5814520  67.6281990 101.6521350 107.1217490  68.3797800 101.2779370
 106.9526980  66.9088460 101.5936150  94.4065140  63.7225230 104.0420070
  93.6799200  63.1030520 103.9746020  94.4674290  64.1165840 103.1718150
  98.0110240  65.9370230 100.8269480  98.5275260  65.3257590 100.3017740
  98.6607620  66.4399010 101.3180490 100.7505740  66.8278720 101.6538460
 101.0383550  66.5733020 100.7771470 101.2628960  66.2756080 102.2444030
 101.9682750  50.5668920 102.2334970 101.1854540  51.0414420 102.5131730
 101.6745680  49.6623750 102.1248150 106.5203820  51.2692020 100.2784060
 106.9611910  51.2137120  99.4305660 106.2511410  52.1850030 100.3494240
 108.3842390  50.9007260  98.2892880 108.3230790  49.9568480  98.1423900
 109.1634420  51.0087350  98.8346340  92.6895140  67.0399620  97.2516830
  92.5217180  66.4070300  97.9498720  91.8229650  67.2459020  96.9011020
  93.3123160  50.8716400  94.7548690  94.0702520  50.9845280  94.1812720
  92.8500330  51.7085600  94.7092120  99.8536970  52.9855670  97.7451000
  99.0411480  52.6112560  97.4046880 100.3578610  52.2300750  98.0472190
 104.3561950  49.6498120  98.9834070 104.9591320  50.2218330  99.4582590
 103.6154940  50.2137560  98.7607970 107.4996550  50.0519680  94.2574350
 107.6947180  50.9503130  94.5241780 106.7126420  49.8206760  94.7507300
  94.2957840  65.7332850  94.6966970  93.7705460  66.1140880  93.9928930
  94.2202420  66.3583620  95.4176680  95.6848310  51.3980450  93.2950660
  96.2141070  50.6110250  93.1658610  96.3176630  52.0771640  93.5286190
  97.8786150  51.1355590  96.3496050  97.2488890  50.4342900  96.5166180
  97.3391290  51.8959720  96.1329210 109.0523160  67.2920390  96.0180910
 109.2275350  66.6058130  95.3741830 108.3544730  67.8167440  95.6257580
  96.8950810  67.6815230  93.5716220  97.6269630  67.3974510  93.0240110
  97.1544480  67.4428510  94.4615600  96.0565600  63.7979960  93.5762550
  95.4274480  64.2665060  94.1248380  96.1713430  62.9529180  94.0108740
 103.5115320  57.8485620  79.7263750 103.4309370  56.9340230  79.4555460
 103.0979740  58.3452690  79.0203460 101.6433360  59.6264640  81.6073020
 100.8675460  59.1465080  81.8971590 102.2946290  58.9470290  81.4329180
 105.6640790  64.0324830  80.3872150 105.2022320  63.2612070  80.7159320
 106.4766340  64.0590900  80.8924600 101.8904100  66.3182840  80.0076140
 101.2715540  66.7740340  79.4370580 102.7455880  66.4734300  79.6065840
 101.0842350  62.3021830  81.6143180 101.0150630  61.3611770  81.4532310
 101.8462210  62.3923240  82.1865750 102.1147520  55.1092210  81.8412110
 102.4912340  54.2364090  81.7285780 102.0167030  55.4450910  80.9502550
 102.7567450  61.2022080  77.4008050 102.1384720  61.6671530  76.8370770
 103.2690700  61.8949560  77.8177560  97.6199210  60.7297950  84.0791650
  97.2868590  61.3566870  84.7212720  97.7965890  61.2559830  83.2993320
 106.1333120  54.5443030  81.5467990 105.4288690  54.8327920  82.1271100
 106.4945280  55.3543140  81.1867550  96.8318310  62.6978750  85.8940830
  97.4492310  63.3729830  85.6125280  95.9711430  63.1066730  85.8028330
 107.7495900  64.1618160  83.8095470 107.0659420  64.8317270  83.8012140
 108.2890190  64.3598810  83.0440330 105.2854640  66.0062290  82.5240650
 105.2981800  65.6024580  81.6562910 104.7329860  66.7809580  82.4202080
 104.6840080  60.9092130  83.8523260 105.1008870  60.6952240  83.0176720
 105.4079900  61.1664920  84.4231880 102.1220340  58.3543830  76.9693310
 101.1949620  58.2881210  77.1981780 102.2745160  59.2923960  76.8548550
 102.1089420  54.6260830  73.9660470 101.1693090  54.7874790  74.0512930
 102.4272680  55.3446510  73.4196460 108.6302180  59.3079350  83.9439500
 107.8020810  59.3772440  83.4689630 109.2252660  59.8933660  83.4755330
 105.5944190  56.0948670  84.8894370 105.1815370  56.9202380  85.1434360
 104.8620140  55.5093710  84.6970730  98.1958680  62.5676130  81.9152250
  97.8986970  61.9621600  81.2360030  99.1458500  62.6053440  81.8041610
 106.2844290  66.1408000  85.5775350 105.8074850  66.9480190  85.3847960
 105.6006080  65.4886330  85.7301560  97.2877110  62.3057820  88.5660050
  96.3905640  62.5297790  88.8133450  97.3129980  62.4292760  87.6171450
  96.1148330  59.1771140  87.1417420  95.9756100  60.0493940  87.5104820
  95.2329690  58.8343950  86.9965360 102.4377710  64.0947010  78.4482550
 102.8773620  64.8371340  78.0337940 102.3764600  64.3373580  79.3721510
  97.9128680  65.1192840  89.3502570  97.8844110  65.5235790  88.4831000
  97.7493650  64.1903200  89.1874170 109.8643500  65.9019940  90.6466740
 110.3403220  66.3802830  91.3255820 110.4850660  65.8337430  89.9212240
 109.2676750  63.0932790  87.8066750 109.3939810  62.8544670  86.8883930
 109.3098130  62.2617330  88.2788830 103.1293490  66.7960790  86.3761560
 103.6438160  66.7068800  87.1783990 102.2862570  67.1420490  86.6689470
 105.1047890  67.0816130  75.8045560 104.9449030  66.7919070  76.7027390
 104.9394600  66.3056260  75.2690790  97.5836270  66.8614660  77.5817180
  97.4078750  65.9450200  77.3684980  96.7292010  67.2201950  77.8214980
 104.8074020  64.5903690  74.3643560 104.1139180  64.5880980  73.7045840
 105.5496880  64.1663010  73.9337730 104.3723950  66.2166400  78.4392050
 104.8280900  65.4355780  78.7530670 104.7116470  66.9273220  78.9833230
 109.1200760  55.1465250  88.7716490 108.5045030  55.6544920  88.2431950
 108.7997180  54.2463580  88.7142430 101.1815080  53.9857140  86.2378680
 100.7194450  54.1940160  87.0498620 100.7793190  53.1716490  85.9349350
 106.1819590  55.2066090  87.3675340 105.3313180  54.9071840  87.6884410
 106.0221380  55.4508100  86.4559160 103.2769300  56.7067840  89.4674130
 103.6022710  55.8731590  89.1276360 104.0649630  57.2296360  89.6152460
 100.8314290  53.6356410  90.2515400 100.1412610  53.4428610  90.8861490
 101.5746590  53.9191050  90.7839700 103.1077260  57.4754850  83.0869320
 102.3758380  57.9841660  83.4359420 102.7101600  56.6584830  82.7858100
  99.6074800  55.1521130  74.4828570  99.7287620  55.1107610  75.4314390
  99.2223310  56.0145280  74.3275300 103.5703170  52.9288530  82.4992260
 103.5875910  53.3797180  83.3434110 103.3218750  52.0294170  82.7125700
  98.6196300  57.4622270  73.8811870  98.0513200  57.0140520  73.2547780
  99.3285300  57.8215050  73.3477020 106.9973920  50.3420710  88.3378640
 107.3219690  49.6110370  88.8636620 107.0330430  50.0234350  87.4359630
  93.6965480  61.3634290  87.7578600  93.3120270  60.7227960  88.3561560
  94.0077670  62.0670410  88.3273330  99.8462620  58.2110830  83.2387220
 100.2132750  57.7369400  83.9848560  99.6567680  59.0852400  83.5795560
 106.9231760  60.4545820  81.9464670 107.6430880  60.9501110  81.5560780
 106.7213580  59.7763710  81.3018540 102.3050560  60.5254880  87.8333670
 102.2387870  59.6050550  87.5791260 101.6755700  60.6230320  88.5478310
 105.0990090  56.2203430  74.3856220 105.9869710  56.5320660  74.2107560
 105.0695180  55.3475680  73.9936800 101.0950680  62.3927120  75.0644390
 101.4366380  63.1369350  74.5687710 100.2663390  62.7058240  75.4269220
 102.2367290  63.3475450  87.5837470 102.2511830  62.4156410  87.3656380
 101.5292390  63.4335210  88.2227240 108.4478500  59.9882790  86.9306050
 107.7226690  60.5811570  86.7335440 108.9753960  59.9806330  86.1319420
 108.3991610  64.3857530  76.5818210 107.7567770  63.7313150  76.8561930
 108.0122270  64.7912620  75.8058880 103.9778090  61.7142960  80.4289900
 104.3301910  61.1171090  79.7691270 103.0940420  61.3887190  80.5998150
 100.0641370  62.4740650  77.8360310 100.7512500  63.0209860  78.2167900
  99.2773790  63.0181380  77.8709920  99.3668580  59.4786680  77.4485670
  99.8231360  60.2891930  77.6745860  99.0156790  59.1609820  78.2804160
 101.6701190  64.9893020  84.6777970 102.3143410  65.1952400  85.3551390
 102.0330630  64.2281420  84.2248820 102.9433270  62.9925370  83.3955420
 103.5855500  62.2918530  83.5087590 103.4682620  63.7723810  83.2152310
 106.7888990  63.2773990  73.1194560 106.5626570  62.5604430  73.7119200
 106.3985190  63.0286430  72.2816310 104.7170890  63.7920270  86.5991480
 105.0527130  64.3786960  87.2769400 103.7971230  63.6612980  86.8289270
  92.5705020  67.3040850  73.8939020  92.9302660  67.9030190  73.2396290
  92.4297360  67.8500740  74.6674050  92.5546880  65.5695710  88.3681420
  92.6638000  64.6290450  88.2276810  91.9027440  65.8350460  87.7195150
 100.5459470  63.8411600  89.7679540 100.2256340  63.1220840  90.3125230
  99.8717830  64.5166670  89.8415600  98.5873640  64.6872050  74.7112690
  98.5783740  65.4201740  74.0957200  97.6672000  64.4403630  74.8039650
 103.7613070  54.0737760  85.1316340 104.1293890  53.2532970  85.4595910
 102.9011270  54.1339650  85.5471990 101.5733240  64.7500290  73.3737880
 101.6745220  64.5464280  72.4439860 100.6734980  64.4958570  73.5785660
 100.7215060  56.7277350  85.3554310 101.2200310  57.2023170  86.0206160
 100.8638010  55.8040870  85.5624340 100.2151350  67.2686610  78.0685550
 100.4692850  67.2308000  77.1464920  99.2663830  67.1419940  78.0613800
 107.9281920  52.9445310  86.1982700 107.4255520  53.6850710  86.5376510
 108.7438580  53.3329310  85.8819490 106.2203930  58.1878490  79.6444060
 105.2794070  58.2028720  79.8191750 106.5348000  57.4014450  80.0904360
  96.1985570  59.8698090  73.2048020  96.9648840  59.7579450  73.7673450
  96.2760260  59.1736060  72.5524790 108.2229510  65.3587340  81.3198320
 108.3476930  66.1818510  81.7922130 109.0895070  65.1478070  80.9722470
  95.6947040  67.4518550  80.9915450  96.4309520  66.9034010  81.2624020
  96.0787960  68.3174560  80.8521440  94.7005320  66.6364620  90.1801030
  95.5018050  66.9576670  90.5936430  94.1857140  66.2760200  90.9020940
  98.8049350  66.6248860  72.8141020  99.5977960  66.9137690  72.3622810
  98.2853700  66.1941030  72.1353500 103.5369950  62.7444490  90.1276440
 102.9308110  62.7676090  89.3872190 103.2324060  62.0127530  90.6643690
 104.9670320  66.4724780  88.7385850 105.9192070  66.3882800  88.6886090
 104.8198540  67.1366490  89.4119640 107.8579520  65.8518990  74.2377760
 107.5721030  65.4384130  73.4231940 107.6599070  66.7806700  74.1178280
  92.4203130  59.1238080  89.1237080  92.9242150  58.5445360  89.6953310
  91.6810550  59.4078310  89.6613450  99.3226750  61.8452270  72.6783370
  99.2177390  61.2304620  73.4044750  99.1550970  61.3218160  71.8946380
  99.4741070  60.5309070  88.6572600  98.7086740  61.0994070  88.5727270
  99.6557030  60.2385280  87.7640830 102.5629480  60.9072300  73.2825360
 102.0139580  61.3541600  73.9268100 103.1848740  60.4021550  73.8063030
 106.6164420  62.2614400  89.2147620 107.3573890  62.5990160  88.7115080
 105.8537100  62.4306460  88.6617390  98.2304600  59.8663220  75.1790660
  98.6521020  59.7003090  76.0222050  98.3555440  59.0563450  74.6845800
 100.7432240  58.8900830  72.4267760 101.2637900  58.1749850  72.0608910
 101.3900640  59.5286700  72.7268270 105.2910080  60.3129230  87.7502830
 105.7051100  60.4674310  88.5993250 104.3561080  60.4384450  87.9128610
 105.7632250  57.6525390  89.7541980 106.3453020  56.8977710  89.6662460
 105.9394020  58.1832830  88.9773460 100.0525310  60.2649710  85.7198760
 100.4713420  61.1082440  85.5475000  99.1333940  60.4021750  85.4905540
 102.3889210  57.9965890  87.1036600 102.5085420  57.4007030  87.8431440
 103.2483210  58.0335580  86.6837900 104.7277110  58.5503080  85.6799110
 104.2012330  59.0745700  85.0764250 105.0708450  59.1830470  86.3108840
  97.1263500  55.9396450  72.1248820  96.9252560  55.0763810  72.4862160
  96.9555550  55.8529810  71.1870420  97.9032730  66.5702720  86.8356490
  97.3653820  67.2948780  86.5165190  98.1566690  66.0933060  86.0453830
 103.9751410  54.1553050  88.5945440 103.2866930  53.4934590  88.5295430
 104.6957430  53.7091320  89.0393900 100.7594940  67.8053930  87.0943140
 100.6853640  68.7089070  87.4015510  99.8573780  67.4865830  87.0665210
 101.3080270  66.9712440  74.7169500 102.2031060  67.3097410  74.7388260
 101.3397900  66.2491850  74.0893780  94.9476430  62.3439490  72.9456500
  95.3851300  62.8869160  73.6014080  95.4324160  61.5186440  72.9552840
  96.7584150  63.4637530  78.0578730  96.4579690  63.3402500  78.9582640
  96.6521640  62.6046120  77.6494460 108.2874620  65.5016110  87.4235700
 107.6876610  65.5608670  86.6799620 108.4168520  64.5621090  87.5532550
 109.5276070  63.2433930  72.7605410 108.6969030  63.3110580  73.2312640
 109.7047900  64.1338050  72.4572270 109.9892500  60.8431510  80.1081540
 110.3601330  60.0598830  79.7017510 110.6294430  61.5320610  79.9298840
 106.9726260  62.2268090  85.5211860 106.1586100  62.6565250  85.7837650
 107.3800460  62.8386500  84.9080910 109.0351700  60.2815780  72.4212130
 109.3100540  61.1894660  72.2931350 108.8462440  60.2178310  73.3574120
 108.3216660  57.3656290  87.0481080 108.0902750  57.1369040  86.1479030
 108.5821210  58.2855840  87.0025970 106.7604730  52.5912720  89.8260780
 107.6374910  52.5996120  90.2094780 106.7725570  51.8543560  89.2153130
 108.3857720  56.5282130  84.2368350 107.4360430  56.4945670  84.3513340
 108.5670730  57.4382240  84.0018120 107.4720850  50.2770690  85.6461890
 108.1093070  50.8904830  86.0121080 107.6195740  50.3131350  84.7011120
 107.0302310  66.9786690  79.0480130 107.6261380  66.6571260  78.3714550
 107.2880460  66.5058510  79.8393400  94.9364880  63.4104600  89.1970760
  94.8934510  63.0397510  90.0785220  95.0675890  64.3482170  89.3372580
  98.6370910  64.9664190  84.7980480  98.3962270  65.2338750  83.9111000
  99.5773550  65.1369920  84.8531340 100.8425330  51.4296880  88.5536990
 100.7814220  52.0218710  89.3032400 101.7825710  51.3222840  88.4087250
 103.4799890  51.0866940  88.1929280 104.0940300  51.4046230  87.5310360
 104.0249450  50.6015530  88.8125140 109.8975070  66.9858570  85.5991120
 109.4033350  67.3827440  84.8818250 109.2888360  66.3607780  85.9928400
  94.7752910  66.3566850  86.3168540  94.1813230  66.2251550  87.0558580
  94.7676750  65.5204990  85.8510640 104.2207930  49.6499080  84.5198570
 103.3467770  49.9834190  84.3171500 104.1118680  49.1772260  85.3450440
 105.1279910  51.8569950  85.9040290 104.7993270  51.0421710  85.5242020
 106.0762210  51.8139760  85.7805980 107.5814520  67.6281990  82.8777860
 107.1217490  68.3797800  82.5035880 106.9526980  66.9088460  82.8192660
  94.4065140  63.7225230  85.2676580  93.6799200  63.1030520  85.2002530
  94.4674290  64.1165840  84.3974660  98.0110240  65.9370230  82.0525990
  98.5275260  65.3257590  81.5274250  98.6607620  66.4399010  82.5437000
 100.7505740  66.8278720  82.8794970 101.0383550  66.5733020  82.0027980
 101.2628960  66.2756080  83.4700540  92.6895140  67.0399620  78.4773340
  92.5217180  66.4070300  79.1755230  91.8229650  67.2459020  78.1267530
  94.2957840  65.7332850  75.9223480  93.7705460  66.1140880  75.2185440
  94.2202420  66.3583620  76.6433190 100.8178100  67.7494820  90.2463170
 101.7445410  67.5139090  90.2899130 100.8028530  68.5766820  89.7649200
 109.0523160  67.2920390  77.2437420 109.2275350  66.6058130  76.5998340
 108.3544730  67.8167440  76.8514090  96.8950810  67.6815230  74.7972730
  97.6269630  67.3974510  74.2496620  97.1544480  67.4428510  75.6872110
  96.0565600  63.7979960  74.8019060  95.4274480  64.2665060  75.3504890
  96.1713430  62.9529180  75.2365250 104.6057170  49.8293150  90.5885520
 104.4922620  50.1487760  91.4837040 105.4226910  50.2305660  90.2922800
 107.3855660  66.9764680  90.0704210 108.1780980  66.4813910  89.8630170
 107.6788810  67.6554820  90.6779820 103.5115320  57.8485620  60.9520260
 103.4309370  56.9340230  60.6811970 103.0979740  58.3452690  60.2459970
 101.6433360  59.6264640  62.8329530 100.8675460  59.1465080  63.1228100
 102.2946290  58.9470290  62.6585690 105.6640790  64.0324830  61.6128660
 105.2022320  63.2612070  61.9415830 106.4766340  64.0590900  62.1181110
 101.8904100  66.3182840  61.2332650 101.2715540  66.7740340  60.6627090
 102.7455880  66.4734300  60.8322350 101.0842350  62.3021830  62.8399690
 101.0150630  61.3611770  62.6788820 101.8462210  62.3923240  63.4122260
  93.2749020  52.9076350  65.1656310  93.0951860  52.0102100  65.4459070
  92.8729100  53.4548220  65.8403260 102.1147520  55.1092210  63.0668620
 102.4912340  54.2364090  62.9542290 102.0167030  55.4450910  62.1759060
  96.2452530  53.4817840  58.5286060  96.3519280  54.3821570  58.8354820
  95.3344890  53.4335810  58.2380710 105.8971640  52.6042650  59.9996960
 106.7181260  52.1139220  60.0422440 105.9305720  53.1940310  60.7528800
  93.8935690  55.4036850  63.7738650  94.5745800  55.6675220  64.3926050
  93.5783740  54.5637720  64.1076660  98.0860260  56.4504210  62.8611240
  98.5938480  56.9485180  63.5016260  98.6173500  55.6739410  62.6850600
 110.1871190  54.6209400  66.5640590 109.4823360  55.0091110  66.0455700
 110.4529110  55.3159690  67.1661520  96.3696360  51.0902770  67.1274660
  96.3714800  51.6075160  66.3220560  95.5400670  50.6132950  67.1044590
 102.7567450  61.2022080  58.6264560 102.1384720  61.6671530  58.0627280
 103.2690700  61.8949560  59.0434070 106.1333120  54.5443030  62.7724500
 105.4288690  54.8327920  63.3527610 106.4945280  55.3543140  62.4124060
  96.0511690  52.8012730  65.1345110  96.3928500  53.6454780  64.8398980
  95.1127500  52.9496470  65.2510450 107.7495900  64.1618160  65.0351980
 107.0659420  64.8317270  65.0268650 108.2890190  64.3598810  64.2696840
 109.2020040  53.9897820  63.1633710 108.2544950  54.0236800  63.2949140
 109.5270030  54.8036770  63.5483070  99.7339580  50.2895000  61.4589700
 100.0414560  49.7341890  60.7425200  98.8040280  50.4239460  61.2762690
 105.2854640  66.0062290  63.7497160 105.2981800  65.6024580  62.8819420
 104.7329860  66.7809580  63.6458590 106.5800060  62.7278510  58.8387330
 106.4696390  61.7852840  58.9636750 106.5768310  63.0894150  59.7250090
 104.6840080  60.9092130  65.0779770 105.1008870  60.6952240  64.2433230
 105.4079900  61.1664920  65.6488390 108.6302180  59.3079350  65.1696010
 107.8020810  59.3772440  64.6946140 109.2252660  59.8933660  64.7011840
 106.1517630  59.9164130  58.6985070 105.5330050  59.5783680  58.0511370
 106.1342080  59.2723890  59.4064260 105.5944190  56.0948670  66.1150880
 105.1815370  56.9202380  66.3690870 104.8620140  55.5093710  65.9227240
  96.4405600  55.6551780  64.7568590  96.9920190  55.7647120  63.9821840
  96.9549110  56.0289380  65.4723820 106.2844290  66.1408000  66.8031860
 105.8074850  66.9480190  66.6104470 105.6006080  65.4886330  66.9558070
  96.1148330  59.1771140  68.3673930  95.9756100  60.0493940  68.7361330
  95.2329690  58.8343950  68.2221870 102.4377710  64.0947010  59.6739060
 102.8773620  64.8371340  59.2594450 102.3764600  64.3373580  60.5978020
  97.9128680  65.1192840  70.5759080  97.8844110  65.5235790  69.7087510
  97.7493650  64.1903200  70.4130680 107.9099470  50.4093750  54.0198860
 107.5972130  50.5020580  54.9197930 108.6711940  50.9874780  53.9696290
 109.8643500  65.9019940  71.8723250 110.3403220  66.3802830  72.5512330
 110.4850660  65.8337430  71.1468750 109.2676750  63.0932790  69.0323260
 109.3939810  62.8544670  68.1140440 109.3098130  62.2617330  69.5045340
 103.1293490  66.7960790  67.6018070 103.6438160  66.7068800  68.4040500
 102.2862570  67.1420490  67.8945980 105.1047890  67.0816130  57.0302070
 104.9449030  66.7919070  57.9283900 104.9394600  66.3056260  56.4947300
 104.8074020  64.5903690  55.5900070 104.1139180  64.5880980  54.9302350
 105.5496880  64.1663010  55.1594240 104.3723950  66.2166400  59.6648560
 104.8280900  65.4355780  59.9787180 104.7116470  66.9273220  60.2089740
  96.8945270  51.1188620  61.8599870  96.4513420  51.8998160  61.5284390
  97.4530260  51.4418510  62.5670810 106.1819590  55.2066090  68.5931850
 105.3313180  54.9071840  68.9140920 106.0221380  55.4508100  67.6815670
 103.2769300  56.7067840  70.6930640 103.6022710  55.8731590  70.3532870
 104.0649630  57.2296360  70.8408970 100.0104090  50.7399320  56.7405700
  99.3858270  50.7359190  57.4659010  99.9234210  49.8730280  56.3441670
  98.9321170  51.6635950  63.7189470  99.2293500  52.5698780  63.6381490
  99.4806730  51.1754730  63.1049040  96.6859490  56.2422190  59.5881120
  96.4600410  56.0259360  60.4927740  95.9052020  56.6750650  59.2427090
  99.1258700  57.1407770  70.2541390  99.0302300  56.2002500  70.1041790
  99.9690680  57.3622840  69.8589460 102.5222120  54.8849100  60.2175050
 102.9151690  55.2021300  59.4043740 102.8838970  54.0060980  60.3319570
  94.2569240  53.5521440  68.4075170  93.8632630  54.3996650  68.6147950
  93.5687640  52.9147810  68.5983810 100.8314290  53.6356410  71.4771910
 100.1412610  53.4428610  72.1118000 101.5746590  53.9191050  72.0096210
  91.5586290  51.4749900  62.4405250  91.2699340  52.0452760  63.1530230
  92.3032050  50.9954350  62.8036480 103.1077260  57.4754850  64.3125830
 102.3758380  57.9841660  64.6615930 102.7101600  56.6584830  64.0114610
  99.5454650  54.1509050  62.7178320  99.5490710  53.7099000  61.8682860
 100.4405770  54.4726380  62.8250140  95.3957030  54.0335540  61.6772530
  95.0557080  54.5110770  62.4339580  94.6334350  53.5800660  61.3173630
 103.5703170  52.9288530  63.7248770 103.5875910  53.3797180  64.5690620
 103.3218750  52.0294170  63.9382210  99.8462620  58.2110830  64.4643730
 100.2132750  57.7369400  65.2105070  99.6567680  59.0852400  64.8052070
  97.6361990  57.2519470  66.7827940  97.3319060  58.1311450  67.0078300
  98.5908450  57.3119260  66.8185380 106.9231760  60.4545820  63.1721180
 107.6430880  60.9501110  62.7817290 106.7213580  59.7763710  62.5275050
 102.3841700  51.8483780  57.3150570 101.5706310  51.3496950  57.2395880
 102.1903650  52.6882030  56.8986920 102.3050560  60.5254880  69.0590180
 102.2387870  59.6050550  68.8047770 101.6755700  60.6230320  69.7734820
  93.6925720  58.0922210  67.9299300  93.3340660  58.7576060  68.5172640
  93.3980280  57.2605760  68.3011920  96.8938840  58.5506450  70.8138850
  96.5938980  58.6963630  69.9166670  97.6650080  57.9911740  70.7212240
 102.2367290  63.3475450  68.8093980 102.2511830  62.4156410  68.5912890
 101.5292390  63.4335210  69.4483750 108.4478500  59.9882790  68.1562560
 107.7226690  60.5811570  67.9591950 108.9753960  59.9806330  67.3575930
 108.3991610  64.3857530  57.8074720 107.7567770  63.7313150  58.0818440
 108.0122270  64.7912620  57.0315390 103.9778090  61.7142960  61.6546410
 104.3301910  61.1171090  60.9947780 103.0940420  61.3887190  61.8254660
 101.6701190  64.9893020  65.9034480 102.3143410  65.1952400  66.5807900
 102.0330630  64.2281420  65.4505330  95.2680360  49.8224330  59.1464700
  95.1394990  49.8142230  60.0949620  94.4442380  50.1607420  58.7955710
 102.9433270  62.9925370  64.6211930 103.5855500  62.2918530  64.7344100
 103.4682620  63.7723810  64.4408820 106.7888990  63.2773990  54.3451070
 106.5626570  62.5604430  54.9375710 106.3985190  63.0286430  53.5072820
 104.7170890  63.7920270  67.8247990 105.0527130  64.3786960  68.5025910
 103.7971230  63.6612980  68.0545780  92.2674290  51.5815450  68.6071400
  91.5532810  51.7812370  69.2124010  92.6869330  50.8055020  68.9786200
 106.3705240  61.1945930  56.0065230 106.0826940  61.6558620  56.7943110
 107.1657410  60.7343700  56.2749450 100.5459470  63.8411600  70.9936050
 100.2256340  63.1220840  71.5381740  99.8717830  64.5166670  71.0672110
 107.1275100  53.0294700  57.1660410 106.4988260  53.1340370  56.4518640
 106.6327020  53.2491480  57.9554290  99.0959130  55.3080650  58.5818290
  98.3875280  55.7766990  59.0231900  99.3803610  54.6502660  59.2163480
 103.1274560  52.0331310  60.0214080 103.0042340  52.0517440  59.0723590
 104.0759120  52.0810250  60.1412480 106.2203930  58.1878490  60.8700570
 105.2794070  58.2028720  61.0448260 106.5348000  57.4014450  61.3160870
 108.2229510  65.3587340  62.5454830 108.3476930  66.1818510  63.0178640
 109.0895070  65.1478070  62.1978980 103.5369950  62.7444490  71.3532950
 102.9308110  62.7676090  70.6128700 103.2324060  62.0127530  71.8900200
 104.9670320  66.4724780  69.9642360 105.9192070  66.3882800  69.9142600
 104.8198540  67.1366490  70.6376150 107.8579520  65.8518990  55.4634270
 107.5721030  65.4384130  54.6488450 107.6599070  66.7806700  55.3434790
  92.4203130  59.1238080  70.3493590  92.9242150  58.5445360  70.9209820
  91.6810550  59.4078310  70.8869960  99.4741070  60.5309070  69.8829110
  98.7086740  61.0994070  69.7983780  99.6557030  60.2385280  68.9897340
 106.6164420  62.2614400  70.4404130 107.3573890  62.5990160  69.9371590
 105.8537100  62.4306460  69.8873900  94.4526210  57.2667670  71.2443660
  94.4931550  56.9681540  72.1528890  95.3071710  57.6675280  71.0851180
  96.3932020  55.8459770  69.2118150  95.8628480  55.3550720  68.5841490
  97.0620090  56.2743970  68.6776080 105.2910080  60.3129230  68.9759340
 105.7051100  60.4674310  69.8249760 104.3561080  60.4384450  69.1385120
 105.7632250  57.6525390  70.9798490 106.3453020  56.8977710  70.8918970
 105.9394020  58.1832830  70.2029970  96.8804320  52.8122140  69.2915440
  96.7861190  52.1942890  68.5666310  96.3001710  53.5388430  69.0645350
  99.6465760  51.3695380  66.3242830  99.1983060  51.3919640  65.4788380
  99.0130960  50.9714400  66.9213130 100.0525310  60.2649710  66.9455270
 100.4713420  61.1082440  66.7731510  99.1333940  60.4021750  66.7162050
 102.3889210  57.9965890  68.3293110 102.5085420  57.4007030  69.0687950
 103.2483210  58.0335580  67.9094410 104.7277110  58.5503080  66.9055620
 104.2012330  59.0745700  66.3020760 105.0708450  59.1830470  67.5365350
 103.9751410  54.1553050  69.8201950 103.2866930  53.4934590  69.7551940
 104.6957430  53.7091320  70.2650410 104.6051810  50.7504680  55.8792210
 104.8854100  49.9072580  56.2351630 103.8317540  50.9827790  56.3930960
 100.7594940  67.8053930  68.3199650 100.6853640  68.7089070  68.6272020
  99.8573780  67.4865830  68.2921720 108.2874620  65.5016110  68.6492210
 107.6876610  65.5608670  67.9056130 108.4168520  64.5621090  68.7789060
 109.5276070  63.2433930  53.9861920 108.6969030  63.3110580  54.4569150
 109.7047900  64.1338050  53.6828780 108.9832530  59.9881410  56.4896120
 109.7451440  60.5578060  56.5955810 108.9986900  59.4208610  57.2604430
 109.9892500  60.8431510  61.3338050 110.3601330  60.0598830  60.9274020
 110.6294430  61.5320610  61.1555350 106.9726260  62.2268090  66.7468370
 106.1586100  62.6565250  67.0094160 107.3800460  62.8386500  66.1337420
 109.0351700  60.2815780  53.6468640 109.3100540  61.1894660  53.5187860
 108.8462440  60.2178310  54.5830630 108.9317040  58.2184770  58.6398070
 108.5560640  57.4512700  58.2079360 108.2020160  58.6007470  59.1273000
  93.5212800  58.8971910  65.2607120  93.8885840  58.8099310  66.1403140
  92.9523620  58.1338460  65.1613980 108.3216660  57.3656290  68.2737590
 108.0902750  57.1369040  67.3735540 108.5821210  58.2855840  68.2282480
  93.0728800  55.8081000  69.1665540  92.1784850  55.7747760  69.5059250
  93.6126350  56.0067790  69.9316790 108.2068000  56.4442260  61.9405310
 108.7305480  55.9504910  61.3095480 108.7927420  56.5792620  62.6852880
 108.3857720  56.5282130  65.4624860 107.4360430  56.4945670  65.5769850
 108.5670730  57.4382240  65.2274630  94.2402160  54.7783810  54.5723490
  94.9493860  54.3567030  54.0870770  93.5242100  54.8459040  53.9406840
 107.6967970  55.7015610  57.8797720 108.1927090  55.4686480  58.6646600
 107.4984040  54.8627450  57.4635360  93.5768510  50.0829330  63.5148760
  94.2244700  49.5326710  63.0743920  93.9970350  50.3372480  64.3364570
 109.1255130  54.3376560  60.4135400 109.0154410  54.1832600  61.3517670
 109.8862720  53.8097500  60.1710810 110.0145400  52.1684480  53.6541540
 110.9394710  52.0365660  53.4459830 109.9921190  52.2477300  54.6077990
 110.0883890  52.9395140  56.2798250 109.2935390  52.8740260  56.8091160
 110.2927170  53.8745780  56.2683600 107.0302310  66.9786690  60.2736640
 107.6261380  66.6571260  59.5971060 107.2880460  66.5058510  61.0649910
  93.3300510  50.2385000  66.2574080  92.9815330  50.6948820  67.0232260
  92.9988210  49.3442130  66.3396510 109.8975070  66.9858570  66.8247630
 109.4033350  67.3827440  66.1074760 109.2888360  66.3607780  67.2184910
 104.2207930  49.6499080  65.7455080 103.3467770  49.9834190  65.5428010
 104.1118680  49.1772260  66.5706950 107.5814520  67.6281990  64.1034370
 107.1217490  68.3797800  63.7292390 106.9526980  66.9088460  64.0449170
 100.7505740  66.8278720  64.1051480 101.0383550  66.5733020  63.2284490
 101.2628960  66.2756080  64.6957050 101.9682750  50.5668920  64.6847990
 101.1854540  51.0414420  64.9644750 101.6745680  49.6623750  64.5761170
 106.5203820  51.2692020  62.7297080 106.9611910  51.2137120  61.8818680
 106.2511410  52.1850030  62.8007260 108.3842390  50.9007260  60.7405900
 108.3230790  49.9568480  60.5936920 109.1634420  51.0087350  61.2859360
  93.3123160  50.8716400  57.2061710  94.0702520  50.9845280  56.6325740
  92.8500330  51.7085600  57.1605140  99.8536970  52.9855670  60.1964020
  99.0411480  52.6112560  59.8559900 100.3578610  52.2300750  60.4985210
 104.3561950  49.6498120  61.4347090 104.9591320  50.2218330  61.9095610
 103.6154940  50.2137560  61.2120990 107.4996550  50.0519680  56.7087370
 107.6947180  50.9503130  56.9754800 106.7126420  49.8206760  57.2020320
  95.6848310  51.3980450  55.7463680  96.2141070  50.6110250  55.6171630
  96.3176630  52.0771640  55.9799210  97.8786150  51.1355590  58.8009070
  97.2488890  50.4342900  58.9679200  97.3391290  51.8959720  58.5842230
 100.8178100  67.7494820  71.4719680 101.7445410  67.5139090  71.5155640
 100.8028530  68.5766820  70.9905710 109.0523160  67.2920390  58.4693930
 109.2275350  66.6058130  57.8254850 108.3544730  67.8167440  58.0770600
 107.3855660  66.9764680  71.2960720 108.1780980  66.4813910  71.0886680
 107.6788810  67.6554820  71.9036330 107.9099470  50.4093750  35.2455370
 107.5972130  50.5020580  36.1454440 108.6711940  50.9874780  35.1952800
 109.8643500  65.9019940  53.0979760 110.3403220  66.3802830  53.7768840
 110.4850660  65.8337430  52.3725260 105.1047890  67.0816130  38.2558580
 104.9449030  66.7919070  39.1540410 104.9394600  66.3056260  37.7203810
 109.1200760  55.1465250  51.2229510 108.5045030  55.6544920  50.6944970
 108.7997180  54.2463580  51.1655450  91.7456520  55.4170020  34.8764480
  91.6631190  56.3600780  35.0179470  91.3939580  55.2744930  33.9976830
 107.3704360  57.5315270  36.3049100 107.2868080  57.9629490  35.4545540
 108.0898550  57.9913620  36.7375920 108.3991610  64.3857530  39.0331230
 107.7567770  63.7313150  39.3074950 108.0122270  64.7912620  38.2571900
 106.7888990  63.2773990  35.5707580 106.5626570  62.5604430  36.1632220
 106.3985190  63.0286430  34.7329330  92.5705020  67.3040850  36.3452040
  92.9302660  67.9030190  35.6909310  92.4297360  67.8500740  37.1187070
 106.3705240  61.1945930  37.2321740 106.0826940  61.6558620  38.0199620
 107.1657410  60.7343700  37.5005960 107.8579520  65.8518990  36.6890780
 107.5721030  65.4384130  35.8744960 107.6599070  66.7806700  36.5691300
  95.9246300  53.0397070  34.5639720  96.2272200  53.0464500  33.6558870
  96.6640890  52.6894930  35.0607380 109.5276070  63.2433930  35.2118430
 108.6969030  63.3110580  35.6825660 109.7047900  64.1338050  34.9085290
 108.9832530  59.9881410  37.7152630 109.7451440  60.5578060  37.8212320
 108.9986900  59.4208610  38.4860940 109.0351700  60.2815780  34.8725150
 109.3100540  61.1894660  34.7444370 108.8462440  60.2178310  35.8087140
 106.7604730  52.5912720  52.2773800 107.6374910  52.5996120  52.6607800
 106.7725570  51.8543560  51.6666150  91.6974950  55.7218270  37.8885620
  90.7939030  55.9848470  37.7137280  92.1815570  55.9929440  37.1085580
  94.2402160  54.7783810  35.7980000  94.9493860  54.3567030  35.3127280
  93.5242100  54.8459040  35.1663350  93.8876320  50.8323140  34.8382650
  94.6104450  51.3732080  35.1563870  94.1600840  50.5586560  33.9624190
 110.0145400  52.1684480  34.8798050 110.9394710  52.0365660  34.6716340
 109.9921190  52.2477300  35.8334500 110.0883890  52.9395140  37.5054760
 109.2935390  52.8740260  38.0347670 110.2927170  53.8745780  37.4940110
 107.0302310  66.9786690  41.4993150 107.6261380  66.6571260  40.8227570
 107.2880460  66.5058510  42.2906420 109.8975070  66.9858570  48.0504140
 109.4033350  67.3827440  47.3331270 109.2888360  66.3607780  48.4441420
 107.5814520  67.6281990  45.3290880 107.1217490  68.3797800  44.9548900
 106.9526980  66.9088460  45.2705680  93.3123160  50.8716400  38.4318220
  94.0702520  50.9845280  37.8582250  92.8500330  51.7085600  38.3861650
  95.6848310  51.3980450  36.9720190  96.2141070  50.6110250  36.8428140
  96.3176630  52.0771640  37.2055720 109.0523160  67.2920390  39.6950440
 109.2275350  66.6058130  39.0511360 108.3544730  67.8167440  39.3027110
 104.6057170  49.8293150  53.0398540 104.4922620  50.1487760  53.9350060
 105.4226910  50.2305660  52.7435820 107.3855660  66.9764680  52.5217230
 108.1780980  66.4813910  52.3143190 107.6788810  67.6554820  53.1292840
 103.5115320  57.8485620  23.4033280 103.4309370  56.9340230  23.1324990
 103.0979740  58.3452690  22.6972990 101.6433360  59.6264640  25.2842550
 100.8675460  59.1465080  25.5741120 102.2946290  58.9470290  25.1098710
  95.6599190  59.9384450  26.1618310  94.8284070  59.6833160  26.5614820
  96.2680170  60.0095220  26.8976230 105.6640790  64.0324830  24.0641680
 105.2022320  63.2612070  24.3928850 106.4766340  64.0590900  24.5694130
  95.6400450  63.9724540  26.3576330  95.9428490  63.0822280  26.1786550
  96.3844040  64.5294760  26.1298580  94.0691140  54.8986340  19.9460700
  93.1807840  55.2402310  19.8440580  94.3532330  54.6986660  19.0541530
  92.0324150  57.4991990  25.8300400  92.6040260  56.7314190  25.8304040
  92.0325690  57.7980750  24.9207010 101.8904100  66.3182840  23.6845670
 101.2715540  66.7740340  23.1140110 102.7455880  66.4734300  23.2835370
 101.0842350  62.3021830  25.2912710 101.0150630  61.3611770  25.1301840
 101.8462210  62.3923240  25.8635280  93.2749020  52.9076350  27.6169330
  93.0951860  52.0102100  27.8972090  92.8729100  53.4548220  28.2916280
 102.1147520  55.1092210  25.5181640 102.4912340  54.2364090  25.4055310
 102.0167030  55.4450910  24.6272080  96.2452530  53.4817840  20.9799080
  96.3519280  54.3821570  21.2867840  95.3344890  53.4335810  20.6893730
 105.8971640  52.6042650  22.4509980 106.7181260  52.1139220  22.4935460
 105.9305720  53.1940310  23.2041820  93.8935690  55.4036850  26.2251670
  94.5745800  55.6675220  26.8439070  93.5783740  54.5637720  26.5589680
  98.0860260  56.4504210  25.3124260  98.5938480  56.9485180  25.9529280
  98.6173500  55.6739410  25.1363620 110.1871190  54.6209400  29.0153610
 109.4823360  55.0091110  28.4968720 110.4529110  55.3159690  29.6174540
  96.3696360  51.0902770  29.5787680  96.3714800  51.6075160  28.7733580
  95.5400670  50.6132950  29.5557610 102.7567450  61.2022080  21.0777580
 102.1384720  61.6671530  20.5140300 103.2690700  61.8949560  21.4947090
  97.6199210  60.7297950  27.7561180  97.2868590  61.3566870  28.3982250
  97.7965890  61.2559830  26.9762850 106.1333120  54.5443030  25.2237520
 105.4288690  54.8327920  25.8040630 106.4945280  55.3543140  24.8637080
  96.0511690  52.8012730  27.5858130  96.3928500  53.6454780  27.2912000
  95.1127500  52.9496470  27.7023470  92.1250650  61.8878610  18.4517210
  91.7478630  62.3765710  17.7202110  92.3823720  62.5603890  19.0823740
 107.7495900  64.1618160  27.4865000 107.0659420  64.8317270  27.4781670
 108.2890190  64.3598810  26.7209860 109.2020040  53.9897820  25.6146730
 108.2544950  54.0236800  25.7462160 109.5270030  54.8036770  25.9996090
  99.7339580  50.2895000  23.9102720 100.0414560  49.7341890  23.1938220
  98.8040280  50.4239460  23.7275710 105.2854640  66.0062290  26.2010180
 105.2981800  65.6024580  25.3332440 104.7329860  66.7809580  26.0971610
 106.5800060  62.7278510  21.2900350 106.4696390  61.7852840  21.4149770
 106.5768310  63.0894150  22.1763110 104.6840080  60.9092130  27.5292790
 105.1008870  60.6952240  26.6946250 105.4079900  61.1664920  28.1001410
 102.1220340  58.3543830  20.6462840 101.1949620  58.2881210  20.8751310
 102.2745160  59.2923960  20.5318080 102.1089420  54.6260830  17.6430000
 101.1693090  54.7874790  17.7282460 102.4272680  55.3446510  17.0965990
 108.6302180  59.3079350  27.6209030 107.8020810  59.3772440  27.1459160
 109.2252660  59.8933660  27.1524860 106.1517630  59.9164130  21.1498090
 105.5330050  59.5783680  20.5024390 106.1342080  59.2723890  21.8577280
 105.5944190  56.0948670  28.5663900 105.1815370  56.9202380  28.8203890
 104.8620140  55.5093710  28.3740260  97.7276980  58.8808570  23.4282570
  97.3233980  58.1685820  22.9328470  97.8140100  58.5361810  24.3170610
  98.1958680  62.5676130  25.5921780  97.8986970  61.9621600  24.9129560
  99.1458500  62.6053440  25.4811140  96.4405600  55.6551780  27.2081610
  96.9920190  55.7647120  26.4334860  96.9549110  56.0289380  27.9236840
 106.2844290  66.1408000  29.2544880 105.8074850  66.9480190  29.0617490
 105.6006080  65.4886330  29.4071090 104.3282330  59.1550940  18.1570840
 104.7675610  58.3173370  18.0108660 105.0410750  59.7880340  18.2434980
 102.4377710  64.0947010  22.1252080 102.8773620  64.8371340  21.7107470
 102.3764600  64.3373580  23.0491040 107.9099470  50.4093750  16.4711880
 107.5972130  50.5020580  17.3710950 108.6711940  50.9874780  16.4209310
  94.4281610  57.7753550  20.9289220  94.3079210  58.5015640  20.3170490
  94.1182500  57.0056460  20.4517130 109.8643500  65.9019940  34.3236270
 110.3403220  66.3802830  35.0025350 110.4850660  65.8337430  33.5981770
  92.0666980  60.9468690  26.7357860  92.1447400  61.0817460  25.7913580
  92.6808660  60.2384580  26.9285980  93.3114610  62.6468880  23.1464040
  92.9042690  62.7883470  22.2917640  94.2027620  62.3629040  22.9435250
 109.2676750  63.0932790  31.4836280 109.3939810  62.8544670  30.5653460
 109.3098130  62.2617330  31.9558360 103.1293490  66.7960790  30.0531090
 103.6438160  66.7068800  30.8553520 102.2862570  67.1420490  30.3459000
 105.1047890  67.0816130  19.4815090 104.9449030  66.7919070  20.3796920
 104.9394600  66.3056260  18.9460320  97.5836270  66.8614660  21.2586710
  97.4078750  65.9450200  21.0454510  96.7292010  67.2201950  21.4984510
 104.8074020  64.5903690  18.0413090 104.1139180  64.5880980  17.3815370
 105.5496880  64.1663010  17.6107260 104.3723950  66.2166400  22.1161580
 104.8280900  65.4355780  22.4300200 104.7116470  66.9273220  22.6602760
 109.1200760  55.1465250  32.4486020 108.5045030  55.6544920  31.9201480
 108.7997180  54.2463580  32.3911960  92.1226500  61.9882860  29.2752320
  92.2857540  61.5188220  28.4571690  92.5878950  61.4806420  29.9401160
  96.8945270  51.1188620  24.3112890  96.4513420  51.8998160  23.9797410
  97.4530260  51.4418510  25.0183830 101.1815080  53.9857140  29.9148210
 100.7194450  54.1940160  30.7268150 100.7793190  53.1716490  29.6118880
 106.1819590  55.2066090  31.0444870 105.3313180  54.9071840  31.3653940
 106.0221380  55.4508100  30.1328690 100.0104090  50.7399320  19.1918720
  99.3858270  50.7359190  19.9172030  99.9234210  49.8730280  18.7954690
  98.9321170  51.6635950  26.1702490  99.2293500  52.5698780  26.0894510
  99.4806730  51.1754730  25.5562060  96.6859490  56.2422190  22.0394140
  96.4600410  56.0259360  22.9440760  95.9052020  56.6750650  21.6940110
 103.9157250  56.2485560  20.6384790 103.3166140  56.9721360  20.4548410
 104.4636860  56.1862340  19.8561240 102.5222120  54.8849100  22.6688070
 102.9151690  55.2021300  21.8556760 102.8838970  54.0060980  22.7832590
  94.2569240  53.5521440  30.8588190  93.8632630  54.3996650  31.0660970
  93.5687640  52.9147810  31.0496830  91.5586290  51.4749900  24.8918270
  91.2699340  52.0452760  25.6043250  92.3032050  50.9954350  25.2549500
  91.7456520  55.4170020  16.1020990  91.6631190  56.3600780  16.2435980
  91.3939580  55.2744930  15.2233340 103.1077260  57.4754850  26.7638850
 102.3758380  57.9841660  27.1128950 102.7101600  56.6584830  26.4627630
  99.5454650  54.1509050  25.1691340  99.5490710  53.7099000  24.3195880
 100.4405770  54.4726380  25.2763160  95.3957030  54.0335540  24.1285550
  95.0557080  54.5110770  24.8852600  94.6334350  53.5800660  23.7686650
  99.6074800  55.1521130  18.1598100  99.7287620  55.1107610  19.1083920
  99.2223310  56.0145280  18.0044830 103.5703170  52.9288530  26.1761790
 103.5875910  53.3797180  27.0203640 103.3218750  52.0294170  26.3895230
  98.6196300  57.4622270  17.5581400  98.0513200  57.0140520  16.9317310
  99.3285300  57.8215050  17.0246550 106.9973920  50.3420710  32.0148170
 107.3219690  49.6110370  32.5406150 107.0330430  50.0234350  31.1129160
  93.6965480  61.3634290  31.4348130  93.3120270  60.7227960  32.0331090
  94.0077670  62.0670410  32.0042860  99.8462620  58.2110830  26.9156750
 100.2132750  57.7369400  27.6618090  99.6567680  59.0852400  27.2565090
  92.7103110  52.9554520  23.0450220  92.4250030  52.5910190  23.8828840
  92.6481970  52.2234980  22.4313360  97.6361990  57.2519470  29.2340960
  97.3319060  58.1311450  29.4591320  98.5908450  57.3119260  29.2698400
  96.1643780  61.4580460  19.8307810  95.3906040  60.9178080  19.6706530
  96.8938410  60.9387070  19.4925570 106.9231760  60.4545820  25.6234200
 107.6430880  60.9501110  25.2330310 106.7213580  59.7763710  24.9788070
 102.3841700  51.8483780  19.7663590 101.5706310  51.3496950  19.6908900
 102.1903650  52.6882030  19.3499940 102.3050560  60.5254880  31.5103200
 102.2387870  59.6050550  31.2560790 101.6755700  60.6230320  32.2247840
 105.0990090  56.2203430  18.0625750 105.9869710  56.5320660  17.8877090
 105.0695180  55.3475680  17.6706330  96.2081180  61.1260840  23.4686620
  96.7259850  60.3229100  23.4143510  95.7565200  61.0639980  24.3103450
 101.0950680  62.3927120  18.7413920 101.4366380  63.1369350  18.2457240
 100.2663390  62.7058240  19.1038750  93.6925720  58.0922210  30.3812320
  93.3340660  58.7576060  30.9685660  93.3980280  57.2605760  30.7524940
 102.2367290  63.3475450  31.2607000 102.2511830  62.4156410  31.0425910
 101.5292390  63.4335210  31.8996770 107.3704360  57.5315270  17.5305610
 107.2868080  57.9629490  16.6802050 108.0898550  57.9913620  17.9632430
 108.4478500  59.9882790  30.6075580 107.7226690  60.5811570  30.4104970
 108.9753960  59.9806330  29.8088950 108.3991610  64.3857530  20.2587740
 107.7567770  63.7313150  20.5331460 108.0122270  64.7912620  19.4828410
 103.9778090  61.7142960  24.1059430 104.3301910  61.1171090  23.4460800
 103.0940420  61.3887190  24.2767680 100.0641370  62.4740650  21.5129840
 100.7512500  63.0209860  21.8937430  99.2773790  63.0181380  21.5479450
  92.2033770  58.0913470  17.0046920  93.0728620  58.3738270  17.2882840
  91.7124090  58.9049340  16.8895730  99.3668580  59.4786680  21.1255200
  99.8231360  60.2891930  21.3515390  99.0156790  59.1609820  21.9573690
 101.6701190  64.9893020  28.3547500 102.3143410  65.1952400  29.0320920
 102.0330630  64.2281420  27.9018350  95.2680360  49.8224330  21.5977720
  95.1394990  49.8142230  22.5462640  94.4442380  50.1607420  21.2468730
 102.9433270  62.9925370  27.0724950 103.5855500  62.2918530  27.1857120
 103.4682620  63.7723810  26.8921840 106.7888990  63.2773990  16.7964090
 106.5626570  62.5604430  17.3888730 106.3985190  63.0286430  15.9585840
 104.7170890  63.7920270  30.2761010 105.0527130  64.3786960  30.9538930
 103.7971230  63.6612980  30.5058800  92.5705020  67.3040850  17.5708550
  92.9302660  67.9030190  16.9165820  92.4297360  67.8500740  18.3443580
  92.2674290  51.5815450  31.0584420  91.5532810  51.7812370  31.6637030
  92.6869330  50.8055020  31.4299220 106.3705240  61.1945930  18.4578250
 106.0826940  61.6558620  19.2456130 107.1657410  60.7343700  18.7262470
  92.5546880  65.5695710  32.0450950  92.6638000  64.6290450  31.9046340
  91.9027440  65.8350460  31.3964680  98.5873640  64.6872050  18.3882220
  98.5783740  65.4201740  17.7726730  97.6672000  64.4403630  18.4809180
  94.1880280  59.9086940  19.1328980  93.5808230  60.6485840  19.1424280
  94.6629630  59.9986300  18.3067180 103.7613070  54.0737760  28.8085870
 104.1293890  53.2532970  29.1365440 102.9011270  54.1339650  29.2241520
 107.1275100  53.0294700  19.6173430 106.4988260  53.1340370  18.9031660
 106.6327020  53.2491480  20.4067310 101.5733240  64.7500290  17.0507410
 101.6745220  64.5464280  16.1209390 100.6734980  64.4958570  17.2555190
  99.0959130  55.3080650  21.0331310  98.3875280  55.7766990  21.4744920
  99.3803610  54.6502660  21.6676500 100.7215060  56.7277350  29.0323840
 101.2200310  57.2023170  29.6975690 100.8638010  55.8040870  29.2393870
 103.1274560  52.0331310  22.4727100 103.0042340  52.0517440  21.5236610
 104.0759120  52.0810250  22.5925500 100.2151350  67.2686610  21.7455080
 100.4692850  67.2308000  20.8234450  99.2663830  67.1419940  21.7383330
  97.2994150  53.6165730  18.4082020  98.1484680  54.0535880  18.3422210
  96.9325420  53.9285990  19.2354080 107.9281920  52.9445310  29.8752230
 107.4255520  53.6850710  30.2146040 108.7438580  53.3329310  29.5589020
 106.2203930  58.1878490  23.3213590 105.2794070  58.2028720  23.4961280
 106.5348000  57.4014450  23.7673890  96.1985570  59.8698090  16.8817550
  96.9648840  59.7579450  17.4442980  96.2760260  59.1736060  16.2294320
  94.8932330  57.3023160  17.5650440  94.9735920  56.3550670  17.6767840
  95.7852080  57.6330040  17.6711100 108.2229510  65.3587340  24.9967850
 108.3476930  66.1818510  25.4691660 109.0895070  65.1478070  24.6492000
  95.6947040  67.4518550  24.6684980  96.4309520  66.9034010  24.9393550
  96.0787960  68.3174560  24.5290970  92.5792520  63.5192120  20.5426490
  91.6532300  63.7613260  20.5331900  93.0448950  64.3466380  20.4211240
  94.7005320  66.6364620  33.8570560  95.5018050  66.9576670  34.2705960
  94.1857140  66.2760200  34.5790470  98.8049350  66.6248860  16.4910550
  99.5977960  66.9137690  16.0392340  98.2853700  66.1941030  15.8123030
 103.5369950  62.7444490  33.8045970 102.9308110  62.7676090  33.0641720
 103.2324060  62.0127530  34.3413220 104.9670320  66.4724780  32.4155380
 105.9192070  66.3882800  32.3655620 104.8198540  67.1366490  33.0889170
 107.8579520  65.8518990  17.9147290 107.5721030  65.4384130  17.1001470
 107.6599070  66.7806700  17.7947810  92.4203130  59.1238080  32.8006610
  92.9242150  58.5445360  33.3722840  91.6810550  59.4078310  33.3382980
  99.3226750  61.8452270  16.3552900  99.2177390  61.2304620  17.0814280
  99.1550970  61.3218160  15.5715910 102.5629480  60.9072300  16.9594890
 102.0139580  61.3541600  17.6037630 103.1848740  60.4021550  17.4832560
 106.6164420  62.2614400  32.8917150 107.3573890  62.5990160  32.3884610
 105.8537100  62.4306460  32.3386920  94.4526210  57.2667670  33.6956680
  94.4931550  56.9681540  34.6041910  95.3071710  57.6675280  33.5364200
  98.2304600  59.8663220  18.8560190  98.6521020  59.7003090  19.6991580
  98.3555440  59.0563450  18.3615330  96.3932020  55.8459770  31.6631170
  95.8628480  55.3550720  31.0354510  97.0620090  56.2743970  31.1289100
 100.7432240  58.8900830  16.1037290 101.2637900  58.1749850  15.7378440
 101.3900640  59.5286700  16.4037800 105.2910080  60.3129230  31.4272360
 105.7051100  60.4674310  32.2762780 104.3561080  60.4384450  31.5898140
  96.8804320  52.8122140  31.7428460  96.7861190  52.1942890  31.0179330
  96.3001710  53.5388430  31.5158370  99.6465760  51.3695380  28.7755850
  99.1983060  51.3919640  27.9301400  99.0130960  50.9714400  29.3726150
 100.0525310  60.2649710  29.3968290 100.4713420  61.1082440  29.2244530
  99.1333940  60.4021750  29.1675070 102.3889210  57.9965890  30.7806130
 102.5085420  57.4007030  31.5200970 103.2483210  58.0335580  30.3607430
 104.7277110  58.5503080  29.3568640 104.2012330  59.0745700  28.7533780
 105.0708450  59.1830470  29.9878370  97.1263500  55.9396450  15.8018350
  96.9252560  55.0763810  16.1631690  96.9555550  55.8529810  14.8639950
  97.9032730  66.5702720  30.5126020  97.3653820  67.2948780  30.1934720
  98.1566690  66.0933060  29.7223360  99.1557980  54.5387240  32.0381950
  99.7457670  54.2303090  32.7259770  98.3378220  54.0666990  32.1941850
 104.6051810  50.7504680  18.3305230 104.8854100  49.9072580  18.6864650
 103.8317540  50.9827790  18.8443980  95.9246300  53.0397070  15.7896230
  96.2272200  53.0464500  14.8815380  96.6640890  52.6894930  16.2863890
 100.7594940  67.8053930  30.7712670 100.6853640  68.7089070  31.0785040
  99.8573780  67.4865830  30.7434740  99.1431230  51.9831690  16.7752430
  98.7953230  51.3055680  16.1954880  99.3444000  51.5221200  17.5895820
 101.3080270  66.9712440  18.3939030 102.2031060  67.3097410  18.4157790
 101.3397900  66.2491850  17.7663310  94.9476430  62.3439490  16.6226030
  95.3851300  62.8869160  17.2783610  95.4324160  61.5186440  16.6322370
  92.1622230  65.1328520  24.0746290  92.4925240  64.2649580  23.8424930
  92.5913230  65.3387040  24.9051250  96.7584150  63.4637530  21.7348260
  96.4579690  63.3402500  22.6352170  96.6521640  62.6046120  21.3263990
  92.6512440  65.9999110  26.8127920  92.2143430  66.1799910  27.6452070
  93.2190120  66.7573730  26.6709640 108.2874620  65.5016110  31.1005230
 107.6876610  65.5608670  30.3569150 108.4168520  64.5621090  31.2302080
 109.5276070  63.2433930  16.4374940 108.6969030  63.3110580  16.9082170
 109.7047900  64.1338050  16.1341800 108.9832530  59.9881410  18.9409140
 109.7451440  60.5578060  19.0468830 108.9986900  59.4208610  19.7117450
  92.4836870  58.5119340  23.1716800  91.8285710  58.2430980  22.5276500
  93.3214820  58.4023820  22.7218780 109.9892500  60.8431510  23.7851070
 110.3601330  60.0598830  23.3787040 110.6294430  61.5320610  23.6068370
 106.9726260  62.2268090  29.1981390 106.1586100  62.6565250  29.4607180
 107.3800460  62.8386500  28.5850440 109.0351700  60.2815780  16.0981660
 109.3100540  61.1894660  15.9700880 108.8462440  60.2178310  17.0343650
 105.4327310  53.3060630  17.3935290 105.8512190  53.1191610  16.5531950
 105.1263370  52.4539680  17.7038220 108.9317040  58.2184770  21.0911090
 108.5560640  57.4512700  20.6592380 108.2020160  58.6007470  21.5786020
  93.5212800  58.8971910  27.7120140  93.8885840  58.8099310  28.5916160
  92.9523620  58.1338460  27.6127000 108.3216660  57.3656290  30.7250610
 108.0902750  57.1369040  29.8248560 108.5821210  58.2855840  30.6795500
  93.0728800  55.8081000  31.6178560  92.1784850  55.7747760  31.9572270
  93.6126350  56.0067790  32.3829810 106.7604730  52.5912720  33.5030310
 107.6374910  52.5996120  33.8864310 106.7725570  51.8543560  32.8922660
  91.6974950  55.7218270  19.1142130  90.7939030  55.9848470  18.9393790
  92.1815570  55.9929440  18.3342090 108.2068000  56.4442260  24.3918330
 108.7305480  55.9504910  23.7608500 108.7927420  56.5792620  25.1365900
 108.3857720  56.5282130  27.9137880 107.4360430  56.4945670  28.0282870
 108.5670730  57.4382240  27.6787650  94.2402160  54.7783810  17.0236510
  94.9493860  54.3567030  16.5383790  93.5242100  54.8459040  16.3919860
  93.8876320  50.8323140  16.0639160  94.6104450  51.3732080  16.3820380
  94.1600840  50.5586560  15.1880700 107.6967970  55.7015610  20.3310740
 108.1927090  55.4686480  21.1159620 107.4984040  54.8627450  19.9148380
  93.5768510  50.0829330  25.9661780  94.2244700  49.5326710  25.5256940
  93.9970350  50.3372480  26.7877590 109.1255130  54.3376560  22.8648420
 109.0154410  54.1832600  23.8030690 109.8862720  53.8097500  22.6223830
 107.4720850  50.2770690  29.3231420 108.1093070  50.8904830  29.6890610
 107.6195740  50.3131350  28.3780650 110.0145400  52.1684480  16.1054560
 110.9394710  52.0365660  15.8972850 109.9921190  52.2477300  17.0591010
 110.0883890  52.9395140  18.7311270 109.2935390  52.8740260  19.2604180
 110.2927170  53.8745780  18.7196620 107.0302310  66.9786690  22.7249660
 107.6261380  66.6571260  22.0484080 107.2880460  66.5058510  23.5162930
  93.3300510  50.2385000  28.7087100  92.9815330  50.6948820  29.4745280
  92.9988210  49.3442130  28.7909530  98.6370910  64.9664190  28.4750010
  98.3962270  65.2338750  27.5880530  99.5773550  65.1369920  28.5300870
 100.8425330  51.4296880  32.2306520 100.7814220  52.0218710  32.9801930
 101.7825710  51.3222840  32.0856780 109.8975070  66.9858570  29.2760650
 109.4033350  67.3827440  28.5587780 109.2888360  66.3607780  29.6697930
  94.0021150  49.7661200  31.9837870  94.5504140  49.5849250  31.2203980
  94.0676460  48.9755310  32.5194180  94.7752910  66.3566850  29.9938070
  94.1813230  66.2251550  30.7328110  94.7676750  65.5204990  29.5280170
 104.2207930  49.6499080  28.1968100 103.3467770  49.9834190  27.9941030
 104.1118680  49.1772260  29.0219970 105.1279910  51.8569950  29.5809820
 104.7993270  51.0421710  29.2011550 106.0762210  51.8139760  29.4575510
 107.5814520  67.6281990  26.5547390 107.1217490  68.3797800  26.1805410
 106.9526980  66.9088460  26.4962190  94.4065140  63.7225230  28.9446110
  93.6799200  63.1030520  28.8772060  94.4674290  64.1165840  28.0744190
  98.0110240  65.9370230  25.7295520  98.5275260  65.3257590  25.2043780
  98.6607620  66.4399010  26.2206530 100.7505740  66.8278720  26.5564500
 101.0383550  66.5733020  25.6797510 101.2628960  66.2756080  27.1470070
 101.9682750  50.5668920  27.1361010 101.1854540  51.0414420  27.4157770
 101.6745680  49.6623750  27.0274190 106.5203820  51.2692020  25.1810100
 106.9611910  51.2137120  24.3331700 106.2511410  52.1850030  25.2520280
 108.3842390  50.9007260  23.1918920 108.3230790  49.9568480  23.0449940
 109.1634420  51.0087350  23.7372380  92.6895140  67.0399620  22.1542870
  92.5217180  66.4070300  22.8524760  91.8229650  67.2459020  21.8037060
  93.3123160  50.8716400  19.6574730  94.0702520  50.9845280  19.0838760
  92.8500330  51.7085600  19.6118160  99.8536970  52.9855670  22.6477040
  99.0411480  52.6112560  22.3072920 100.3578610  52.2300750  22.9498230
 104.3561950  49.6498120  23.8860110 104.9591320  50.2218330  24.3608630
 103.6154940  50.2137560  23.6634010 107.4996550  50.0519680  19.1600390
 107.6947180  50.9503130  19.4267820 106.7126420  49.8206760  19.6533340
  94.2957840  65.7332850  19.5993010  93.7705460  66.1140880  18.8954970
  94.2202420  66.3583620  20.3202720  95.6848310  51.3980450  18.1976700
  96.2141070  50.6110250  18.0684650  96.3176630  52.0771640  18.4312230
  97.8786150  51.1355590  21.2522090  97.2488890  50.4342900  21.4192220
  97.3391290  51.8959720  21.0355250 100.8178100  67.7494820  33.9232700
 101.7445410  67.5139090  33.9668660 100.8028530  68.5766820  33.4418730
 109.0523160  67.2920390  20.9206950 109.2275350  66.6058130  20.2767870
 108.3544730  67.8167440  20.5283620  98.0041710  50.4139570  33.6874580
  97.7225980  50.9173170  32.9235400  98.3861410  49.6161320  33.3216710
  96.8950810  67.6815230  18.4742260  97.6269630  67.3974510  17.9266150
  97.1544480  67.4428510  19.3641640  96.0565600  63.7979960  18.4788590
  95.4274480  64.2665060  19.0274420  96.1713430  62.9529180  18.9134780
 107.3855660  66.9764680  33.7473740 108.1780980  66.4813910  33.5399700
 107.6788810  67.6554820  34.3549350 103.5115320  57.8485620   4.6289790
 103.4309370  56.9340230   4.3581500 103.0979740  58.3452690   3.9229500
 101.6433360  59.6264640   6.5099060 100.8675460  59.1465080   6.7997630
 102.2946290  58.9470290   6.3355220  95.6599190  59.9384450   7.3874820
  94.8284070  59.6833160   7.7871330  96.2680170  60.0095220   8.1232740
 105.6640790  64.0324830   5.2898190 105.2022320  63.2612070   5.6185360
 106.4766340  64.0590900   5.7950640  95.6400450  63.9724540   7.5832840
  95.9428490  63.0822280   7.4043060  96.3844040  64.5294760   7.3555090
  92.0324150  57.4991990   7.0556910  92.6040260  56.7314190   7.0560550
  92.0325690  57.7980750   6.1463520 101.8904100  66.3182840   4.9102180
 101.2715540  66.7740340   4.3396620 102.7455880  66.4734300   4.5091880
 101.0842350  62.3021830   6.5169220 101.0150630  61.3611770   6.3558350
 101.8462210  62.3923240   7.0891790  93.2749020  52.9076350   8.8425840
  93.0951860  52.0102100   9.1228600  92.8729100  53.4548220   9.5172790
 102.1147520  55.1092210   6.7438150 102.4912340  54.2364090   6.6311820
 102.0167030  55.4450910   5.8528590  96.2452530  53.4817840   2.2055590
  96.3519280  54.3821570   2.5124350  95.3344890  53.4335810   1.9150240
 105.8971640  52.6042650   3.6766490 106.7181260  52.1139220   3.7191970
 105.9305720  53.1940310   4.4298330  93.8935690  55.4036850   7.4508180
  94.5745800  55.6675220   8.0695580  93.5783740  54.5637720   7.7846190
  98.0860260  56.4504210   6.5380770  98.5938480  56.9485180   7.1785790
  98.6173500  55.6739410   6.3620130 110.1871190  54.6209400  10.2410120
 109.4823360  55.0091110   9.7225230 110.4529110  55.3159690  10.8431050
  96.3696360  51.0902770  10.8044190  96.3714800  51.6075160   9.9990090
  95.5400670  50.6132950  10.7814120 102.7567450  61.2022080   2.3034090
 102.1384720  61.6671530   1.7396810 103.2690700  61.8949560   2.7203600
  97.6199210  60.7297950   8.9817690  97.2868590  61.3566870   9.6238760
  97.7965890  61.2559830   8.2019360 106.1333120  54.5443030   6.4494030
 105.4288690  54.8327920   7.0297140 106.4945280  55.3543140   6.0893590
  96.0511690  52.8012730   8.8114640  96.3928500  53.6454780   8.5168510
  95.1127500  52.9496470   8.9279980  96.8318310  62.6978750  10.7966870
  97.4492310  63.3729830  10.5151320  95.9711430  63.1066730  10.7054370
 107.7495900  64.1618160   8.7121510 107.0659420  64.8317270   8.7038180
 108.2890190  64.3598810   7.9466370 109.2020040  53.9897820   6.8403240
 108.2544950  54.0236800   6.9718670 109.5270030  54.8036770   7.2252600
  99.7339580  50.2895000   5.1359230 100.0414560  49.7341890   4.4194730
  98.8040280  50.4239460   4.9532220 105.2854640  66.0062290   7.4266690
 105.2981800  65.6024580   6.5588950 104.7329860  66.7809580   7.3228120
 106.5800060  62.7278510   2.5156860 106.4696390  61.7852840   2.6406280
 106.5768310  63.0894150   3.4019620 104.6840080  60.9092130   8.7549300
 105.1008870  60.6952240   7.9202760 105.4079900  61.1664920   9.3257920
 102.1220340  58.3543830   1.8719350 101.1949620  58.2881210   2.1007820
 102.2745160  59.2923960   1.7574590 108.6302180  59.3079350   8.8465540
 107.8020810  59.3772440   8.3715670 109.2252660  59.8933660   8.3781370
 106.1517630  59.9164130   2.3754600 105.5330050  59.5783680   1.7280900
 106.1342080  59.2723890   3.0833790 105.5944190  56.0948670   9.7920410
 105.1815370  56.9202380  10.0460400 104.8620140  55.5093710   9.5996770
  97.7276980  58.8808570   4.6539080  97.3233980  58.1685820   4.1584980
  97.8140100  58.5361810   5.5427120  98.1958680  62.5676130   6.8178290
  97.8986970  61.9621600   6.1386070  99.1458500  62.6053440   6.7067650
  96.4405600  55.6551780   8.4338120  96.9920190  55.7647120   7.6591370
  96.9549110  56.0289380   9.1493350 106.2844290  66.1408000  10.4801390
 105.8074850  66.9480190  10.2874000 105.6006080  65.4886330  10.6327600
  97.2877110  62.3057820  13.4686090  96.3905640  62.5297790  13.7159490
  97.3129980  62.4292760  12.5197490  96.1148330  59.1771140  12.0443460
  95.9756100  60.0493940  12.4130860  95.2329690  58.8343950  11.8991400
 102.4377710  64.0947010   3.3508590 102.8773620  64.8371340   2.9363980
 102.3764600  64.3373580   4.2747550  97.9128680  65.1192840  14.2528610
  97.8844110  65.5235790  13.3857040  97.7493650  64.1903200  14.0900210
  94.4281610  57.7753550   2.1545730  94.3079210  58.5015640   1.5427000
  94.1182500  57.0056460   1.6773640 109.8643500  65.9019940  15.5492780
 110.3403220  66.3802830  16.2281860 110.4850660  65.8337430  14.8238280
  92.0666980  60.9468690   7.9614370  92.1447400  61.0817460   7.0170090
  92.6808660  60.2384580   8.1542490  93.3114610  62.6468880   4.3720550
  92.9042690  62.7883470   3.5174150  94.2027620  62.3629040   4.1691760
 109.2676750  63.0932790  12.7092790 109.3939810  62.8544670  11.7909970
 109.3098130  62.2617330  13.1814870 103.1293490  66.7960790  11.2787600
 103.6438160  66.7068800  12.0810030 102.2862570  67.1420490  11.5715510
  97.5836270  66.8614660   2.4843220  97.4078750  65.9450200   2.2711020
  96.7292010  67.2201950   2.7241020 104.3723950  66.2166400   3.3418090
 104.8280900  65.4355780   3.6556710 104.7116470  66.9273220   3.8859270
 109.1200760  55.1465250  13.6742530 108.5045030  55.6544920  13.1457990
 108.7997180  54.2463580  13.6168470  92.1226500  61.9882860  10.5008830
  92.2857540  61.5188220   9.6828200  92.5878950  61.4806420  11.1657670
  96.8945270  51.1188620   5.5369400  96.4513420  51.8998160   5.2053920
  97.4530260  51.4418510   6.2440340 101.1815080  53.9857140  11.1404720
 100.7194450  54.1940160  11.9524660 100.7793190  53.1716490  10.8375390
 106.1819590  55.2066090  12.2701380 105.3313180  54.9071840  12.5910450
 106.0221380  55.4508100  11.3585200 103.2769300  56.7067840  14.3700170
 103.6022710  55.8731590  14.0302400 104.0649630  57.2296360  14.5178500
  98.9321170  51.6635950   7.3959000  99.2293500  52.5698780   7.3151020
  99.4806730  51.1754730   6.7818570  96.6859490  56.2422190   3.2650650
  96.4600410  56.0259360   4.1697270  95.9052020  56.6750650   2.9196620
  99.1258700  57.1407770  13.9310920  99.0302300  56.2002500  13.7811320
  99.9690680  57.3622840  13.5358990 102.5222120  54.8849100   3.8944580
 102.9151690  55.2021300   3.0813270 102.8838970  54.0060980   4.0089100
  94.2569240  53.5521440  12.0844700  93.8632630  54.3996650  12.2917480
  93.5687640  52.9147810  12.2753340 100.8314290  53.6356410  15.1541440
 100.1412610  53.4428610  15.7887530 101.5746590  53.9191050  15.6865740
  91.5586290  51.4749900   6.1174780  91.2699340  52.0452760   6.8299760
  92.3032050  50.9954350   6.4806010 103.1077260  57.4754850   7.9895360
 102.3758380  57.9841660   8.3385460 102.7101600  56.6584830   7.6884140
  99.5454650  54.1509050   6.3947850  99.5490710  53.7099000   5.5452390
 100.4405770  54.4726380   6.5019670  95.3957030  54.0335540   5.3542060
  95.0557080  54.5110770   6.1109110  94.6334350  53.5800660   4.9943160
 103.5703170  52.9288530   7.4018300 103.5875910  53.3797180   8.2460150
 103.3218750  52.0294170   7.6151740 106.9973920  50.3420710  13.2404680
 107.3219690  49.6110370  13.7662660 107.0330430  50.0234350  12.3385670
  93.6965480  61.3634290  12.6604640  93.3120270  60.7227960  13.2587600
  94.0077670  62.0670410  13.2299370  99.8462620  58.2110830   8.1413260
 100.2132750  57.7369400   8.8874600  99.6567680  59.0852400   8.4821600
  92.7103110  52.9554520   4.2706730  92.4250030  52.5910190   5.1085350
  92.6481970  52.2234980   3.6569870  97.6361990  57.2519470  10.4597470
  97.3319060  58.1311450  10.6847830  98.5908450  57.3119260  10.4954910
 106.9231760  60.4545820   6.8490710 107.6430880  60.9501110   6.4586820
 106.7213580  59.7763710   6.2044580 102.3050560  60.5254880  12.7359710
 102.2387870  59.6050550  12.4817300 101.6755700  60.6230320  13.4504350
  96.2081180  61.1260840   4.6943130  96.7259850  60.3229100   4.6400020
  95.7565200  61.0639980   5.5359960  93.6925720  58.0922210  11.6068830
  93.3340660  58.7576060  12.1942170  93.3980280  57.2605760  11.9781450
  96.8938840  58.5506450  14.4908380  96.5938980  58.6963630  13.5936200
  97.6650080  57.9911740  14.3981770 102.2367290  63.3475450  12.4863510
 102.2511830  62.4156410  12.2682420 101.5292390  63.4335210  13.1253280
 108.4478500  59.9882790  11.8332090 107.7226690  60.5811570  11.6361480
 108.9753960  59.9806330  11.0345460 103.9778090  61.7142960   5.3315940
 104.3301910  61.1171090   4.6717310 103.0940420  61.3887190   5.5024190
 100.0641370  62.4740650   2.7386350 100.7512500  63.0209860   3.1193940
  99.2773790  63.0181380   2.7735960  99.3668580  59.4786680   2.3511710
  99.8231360  60.2891930   2.5771900  99.0156790  59.1609820   3.1830200
 101.6701190  64.9893020   9.5804010 102.3143410  65.1952400  10.2577430
 102.0330630  64.2281420   9.1274860  95.2680360  49.8224330   2.8234230
  95.1394990  49.8142230   3.7719150  94.4442380  50.1607420   2.4725240
 102.9433270  62.9925370   8.2981460 103.5855500  62.2918530   8.4113630
 103.4682620  63.7723810   8.1178350 104.7170890  63.7920270  11.5017520
 105.0527130  64.3786960  12.1795440 103.7971230  63.6612980  11.7315310
  92.2674290  51.5815450  12.2840930  91.5532810  51.7812370  12.8893540
  92.6869330  50.8055020  12.6555730  92.5546880  65.5695710  13.2707460
  92.6638000  64.6290450  13.1302850  91.9027440  65.8350460  12.6221190
 100.5459470  63.8411600  14.6705580 100.2256340  63.1220840  15.2151270
  99.8717830  64.5166670  14.7441640 103.7613070  54.0737760  10.0342380
 104.1293890  53.2532970  10.3621950 102.9011270  54.1339650  10.4498030
  99.0959130  55.3080650   2.2587820  98.3875280  55.7766990   2.7001430
  99.3803610  54.6502660   2.8933010 100.7215060  56.7277350  10.2580350
 101.2200310  57.2023170  10.9232200 100.8638010  55.8040870  10.4650380
 103.1274560  52.0331310   3.6983610 103.0042340  52.0517440   2.7493120
 104.0759120  52.0810250   3.8182010 100.2151350  67.2686610   2.9711590
 100.4692850  67.2308000   2.0490960  99.2663830  67.1419940   2.9639840
 107.9281920  52.9445310  11.1008740 107.4255520  53.6850710  11.4402550
 108.7438580  53.3329310  10.7845530 106.2203930  58.1878490   4.5470100
 105.2794070  58.2028720   4.7217790 106.5348000  57.4014450   4.9930400
 108.2229510  65.3587340   6.2224360 108.3476930  66.1818510   6.6948170
 109.0895070  65.1478070   5.8748510  95.6947040  67.4518550   5.8941490
  96.4309520  66.9034010   6.1650060  96.0787960  68.3174560   5.7547480
  92.5792520  63.5192120   1.7683000  91.6532300  63.7613260   1.7588410
  93.0448950  64.3466380   1.6467750  94.7005320  66.6364620  15.0827070
  95.5018050  66.9576670  15.4962470  94.1857140  66.2760200  15.8046980
 103.5369950  62.7444490  15.0302480 102.9308110  62.7676090  14.2898230
 103.2324060  62.0127530  15.5669730 104.9670320  66.4724780  13.6411890
 105.9192070  66.3882800  13.5912130 104.8198540  67.1366490  14.3145680
  92.4203130  59.1238080  14.0263120  92.9242150  58.5445360  14.5979350
  91.6810550  59.4078310  14.5639490  99.4741070  60.5309070  13.5598640
  98.7086740  61.0994070  13.4753310  99.6557030  60.2385280  12.6666870
 106.6164420  62.2614400  14.1173660 107.3573890  62.5990160  13.6141120
 105.8537100  62.4306460  13.5643430  94.4526210  57.2667670  14.9213190
  94.4931550  56.9681540  15.8298420  95.3071710  57.6675280  14.7620710
  96.3932020  55.8459770  12.8887680  95.8628480  55.3550720  12.2611020
  97.0620090  56.2743970  12.3545610 105.2910080  60.3129230  12.6528870
 105.7051100  60.4674310  13.5019290 104.3561080  60.4384450  12.8154650
 105.7632250  57.6525390  14.6568020 106.3453020  56.8977710  14.5688500
 105.9394020  58.1832830  13.8799500  96.8804320  52.8122140  12.9684970
  96.7861190  52.1942890  12.2435840  96.3001710  53.5388430  12.7414880
  99.6465760  51.3695380  10.0012360  99.1983060  51.3919640   9.1557910
  99.0130960  50.9714400  10.5982660 100.0525310  60.2649710  10.6224800
 100.4713420  61.1082440  10.4501040  99.1333940  60.4021750  10.3931580
 102.3889210  57.9965890  12.0062640 102.5085420  57.4007030  12.7457480
 103.2483210  58.0335580  11.5863940 104.7277110  58.5503080  10.5825150
 104.2012330  59.0745700   9.9790290 105.0708450  59.1830470  11.2134880
  97.9032730  66.5702720  11.7382530  97.3653820  67.2948780  11.4191230
  98.1566690  66.0933060  10.9479870  99.1557980  54.5387240  13.2638460
  99.7457670  54.2303090  13.9516280  98.3378220  54.0666990  13.4198360
 103.9751410  54.1553050  13.4971480 103.2866930  53.4934590  13.4321470
 104.6957430  53.7091320  13.9419940 100.7594940  67.8053930  11.9969180
 100.6853640  68.7089070  12.3041550  99.8573780  67.4865830  11.9691250
  92.1622230  65.1328520   5.3002800  92.4925240  64.2649580   5.0681440
  92.5913230  65.3387040   6.1307760  96.7584150  63.4637530   2.9604770
  96.4579690  63.3402500   3.8608680  96.6521640  62.6046120   2.5520500
  92.6512440  65.9999110   8.0384430  92.2143430  66.1799910   8.8708580
  93.2190120  66.7573730   7.8966150 108.2874620  65.5016110  12.3261740
 107.6876610  65.5608670  11.5825660 108.4168520  64.5621090  12.4558590
  92.4836870  58.5119340   4.3973310  91.8285710  58.2430980   3.7533010
  93.3214820  58.4023820   3.9475290 109.9892500  60.8431510   5.0107580
 110.3601330  60.0598830   4.6043550 110.6294430  61.5320610   4.8324880
 106.9726260  62.2268090  10.4237900 106.1586100  62.6565250  10.6863690
 107.3800460  62.8386500   9.8106950 108.9317040  58.2184770   2.3167600
 108.5560640  57.4512700   1.8848890 108.2020160  58.6007470   2.8042530
  93.5212800  58.8971910   8.9376650  93.8885840  58.8099310   9.8172670
  92.9523620  58.1338460   8.8383510 108.3216660  57.3656290  11.9507120
 108.0902750  57.1369040  11.0505070 108.5821210  58.2855840  11.9052010
  93.0728800  55.8081000  12.8435070  92.1784850  55.7747760  13.1828780
  93.6126350  56.0067790  13.6086320 106.7604730  52.5912720  14.7286820
 107.6374910  52.5996120  15.1120820 106.7725570  51.8543560  14.1179170
 108.2068000  56.4442260   5.6174840 108.7305480  55.9504910   4.9865010
 108.7927420  56.5792620   6.3622410 108.3857720  56.5282130   9.1394390
 107.4360430  56.4945670   9.2539380 108.5670730  57.4382240   8.9044160
  93.5768510  50.0829330   7.1918290  94.2244700  49.5326710   6.7513450
  93.9970350  50.3372480   8.0134100 109.1255130  54.3376560   4.0904930
 109.0154410  54.1832600   5.0287200 109.8862720  53.8097500   3.8480340
 107.4720850  50.2770690  10.5487930 108.1093070  50.8904830  10.9147120
 107.6195740  50.3131350   9.6037160 107.0302310  66.9786690   3.9506170
 107.6261380  66.6571260   3.2740590 107.2880460  66.5058510   4.7419440
  93.3300510  50.2385000   9.9343610  92.9815330  50.6948820  10.7001790
  92.9988210  49.3442130  10.0166040  94.9364880  63.4104600  14.0996800
  94.8934510  63.0397510  14.9811260  95.0675890  64.3482170  14.2398620
  98.6370910  64.9664190   9.7006520  98.3962270  65.2338750   8.8137040
  99.5773550  65.1369920   9.7557380 100.8425330  51.4296880  13.4563030
 100.7814220  52.0218710  14.2058440 101.7825710  51.3222840  13.3113290
 103.4799890  51.0866940  13.0955320 104.0940300  51.4046230  12.4336400
 104.0249450  50.6015530  13.7151180 109.8975070  66.9858570  10.5017160
 109.4033350  67.3827440   9.7844290 109.2888360  66.3607780  10.8954440
  94.0021150  49.7661200  13.2094380  94.5504140  49.5849250  12.4460490
  94.0676460  48.9755310  13.7450690  94.7752910  66.3566850  11.2194580
  94.1813230  66.2251550  11.9584620  94.7676750  65.5204990  10.7536680
 104.2207930  49.6499080   9.4224610 103.3467770  49.9834190   9.2197540
 104.1118680  49.1772260  10.2476480 105.1279910  51.8569950  10.8066330
 104.7993270  51.0421710  10.4268060 106.0762210  51.8139760  10.6832020
 107.5814520  67.6281990   7.7803900 107.1217490  68.3797800   7.4061920
 106.9526980  66.9088460   7.7218700  94.4065140  63.7225230  10.1702620
  93.6799200  63.1030520  10.1028570  94.4674290  64.1165840   9.3000700
  98.0110240  65.9370230   6.9552030  98.5275260  65.3257590   6.4300290
  98.6607620  66.4399010   7.4463040 100.7505740  66.8278720   7.7821010
 101.0383550  66.5733020   6.9054020 101.2628960  66.2756080   8.3726580
 101.9682750  50.5668920   8.3617520 101.1854540  51.0414420   8.6414280
 101.6745680  49.6623750   8.2530700 106.5203820  51.2692020   6.4066610
 106.9611910  51.2137120   5.5588210 106.2511410  52.1850030   6.4776790
 108.3842390  50.9007260   4.4175430 108.3230790  49.9568480   4.2706450
 109.1634420  51.0087350   4.9628890  92.6895140  67.0399620   3.3799380
  92.5217180  66.4070300   4.0781270  91.8229650  67.2459020   3.0293570
  99.8536970  52.9855670   3.8733550  99.0411480  52.6112560   3.5329430
 100.3578610  52.2300750   4.1754740 104.3561950  49.6498120   5.1116620
 104.9591320  50.2218330   5.5865140 103.6154940  50.2137560   4.8890520
  97.8786150  51.1355590   2.4778600  97.2488890  50.4342900   2.6448730
  97.3391290  51.8959720   2.2611760 100.8178100  67.7494820  15.1489210
 101.7445410  67.5139090  15.1925170 100.8028530  68.5766820  14.6675240
 109.0523160  67.2920390   2.1463460 109.2275350  66.6058130   1.5024380
 108.3544730  67.8167440   1.7540130  98.0041710  50.4139570  14.9131090
  97.7225980  50.9173170  14.1491910  98.3861410  49.6161320  14.5473220
 104.6057170  49.8293150  15.4911560 104.4922620  50.1487760  16.3863080
 105.4226910  50.2305660  15.1948840 107.3855660  66.9764680  14.9730250
 108.1780980  66.4813910  14.7656210 107.6788810  67.6554820  15.5805860
 103.5115320  39.0742130  98.5007240 103.4309370  38.1596740  98.2298950
 103.0979740  39.5709200  97.7946950 101.6433360  40.8521150 100.3816510
 100.8675460  40.3721590 100.6715080 102.2946290  40.1726800 100.2072670
  95.6599190  41.1640960 101.2592270  94.8284070  40.9089670 101.6588780
  96.2680170  41.2351730 101.9950190 105.6640790  45.2581340  99.1615640
 105.2022320  44.4868580  99.4902810 106.4766340  45.2847410  99.6668090
  95.6400450  45.1981050 101.4550290  95.9428490  44.3078790 101.2760510
  96.3844040  45.7551270 101.2272540  94.0691140  36.1242850  95.0434660
  93.1807840  36.4658820  94.9414540  94.3532330  35.9243170  94.1515490
  92.0324150  38.7248500 100.9274360  92.6040260  37.9570700 100.9278000
  92.0325690  39.0237260 100.0180970 101.8904100  47.5439350  98.7819630
 101.2715540  47.9996850  98.2114070 102.7455880  47.6990810  98.3809330
 101.0842350  43.5278340 100.3886670 101.0150630  42.5868280 100.2275800
 101.8462210  43.6179750 100.9609240  93.2749020  34.1332860 102.7143290
  93.0951860  33.2358610 102.9946050  92.8729100  34.6804730 103.3890240
 102.1147520  36.3348720 100.6155600 102.4912340  35.4620600 100.5029270
 102.0167030  36.6707420  99.7246040  96.2452530  34.7074350  96.0773040
  96.3519280  35.6078080  96.3841800  95.3344890  34.6592320  95.7867690
 105.8971640  33.8299160  97.5483940 106.7181260  33.3395730  97.5909420
 105.9305720  34.4196820  98.3015780  93.8935690  36.6293360 101.3225630
  94.5745800  36.8931730 101.9413030  93.5783740  35.7894230 101.6563640
  98.0860260  37.6760720 100.4098220  98.5938480  38.1741690 101.0503240
  98.6173500  36.8995920 100.2337580 110.1871190  35.8465910 104.1127570
 109.4823360  36.2347620 103.5942680 110.4529110  36.5416200 104.7148500
  96.3696360  32.3159280 104.6761640  96.3714800  32.8331670 103.8707540
  95.5400670  31.8389460 104.6531570 102.7567450  42.4278590  96.1751540
 102.1384720  42.8928040  95.6114260 103.2690700  43.1206070  96.5921050
  97.6199210  41.9554460 102.8535140  97.2868590  42.5823380 103.4956210
  97.7965890  42.4816340 102.0736810 106.1333120  35.7699540 100.3211480
 105.4288690  36.0584430 100.9014590 106.4945280  36.5799650  99.9611040
  96.0511690  34.0269240 102.6832090  96.3928500  34.8711290 102.3885960
  95.1127500  34.1752980 102.7997430  96.8318310  43.9235260 104.6684320
  97.4492310  44.5986340 104.3868770  95.9711430  44.3323240 104.5771820
  92.1250650  43.1135120  93.5491170  91.7478630  43.6022220  92.8176070
  92.3823720  43.7860400  94.1797700 107.7495900  45.3874670 102.5838960
 107.0659420  46.0573780 102.5755630 108.2890190  45.5855320 101.8183820
 109.2020040  35.2154330 100.7120690 108.2544950  35.2493310 100.8436120
 109.5270030  36.0293280 101.0970050  99.7339580  31.5151510  99.0076680
 100.0414560  30.9598400  98.2912180  98.8040280  31.6495970  98.8249670
 105.2854640  47.2318800 101.2984140 105.2981800  46.8281090 100.4306400
 104.7329860  48.0066090 101.1945570 106.5800060  43.9535020  96.3874310
 106.4696390  43.0109350  96.5123730 106.5768310  44.3150660  97.2737070
 104.6840080  42.1348640 102.6266750 105.1008870  41.9208750 101.7920210
 105.4079900  42.3921430 103.1975370 102.1220340  39.5800340  95.7436800
 101.1949620  39.5137720  95.9725270 102.2745160  40.5180470  95.6292040
 102.1089420  35.8517340  92.7403960 101.1693090  36.0131300  92.8256420
 102.4272680  36.5703020  92.1939950 108.6302180  40.5335860 102.7182990
 107.8020810  40.6028950 102.2433120 109.2252660  41.1190170 102.2498820
 106.1517630  41.1420640  96.2472050 105.5330050  40.8040190  95.5998350
 106.1342080  40.4980400  96.9551240 105.5944190  37.3205180 103.6637860
 105.1815370  38.1458890 103.9177850 104.8620140  36.7350220 103.4714220
  97.7276980  40.1065080  98.5256530  97.3233980  39.3942330  98.0302430
  97.8140100  39.7618320  99.4144570  98.1958680  43.7932640 100.6895740
  97.8986970  43.1878110 100.0103520  99.1458500  43.8309950 100.5785100
  96.4405600  36.8808290 102.3055570  96.9920190  36.9903630 101.5308820
  96.9549110  37.2545890 103.0210800 106.2844290  47.3664510 104.3518840
 105.8074850  48.1736700 104.1591450 105.6006080  46.7142840 104.5045050
 104.3282330  40.3807450  93.2544800 104.7675610  39.5429880  93.1082620
 105.0410750  41.0136850  93.3408940 102.4377710  45.3203520  97.2226040
 102.8773620  46.0627850  96.8081430 102.3764600  45.5630090  98.1465000
 107.9099470  31.6350260  91.5685840 107.5972130  31.7277090  92.4684910
 108.6711940  32.2131290  91.5183270  94.4281610  39.0010060  96.0263180
  94.3079210  39.7272150  95.4144450  94.1182500  38.2312970  95.5491090
  92.0666980  42.1725200 101.8331820  92.1447400  42.3073970 100.8887540
  92.6808660  41.4641090 102.0259940  93.3114610  43.8725390  98.2438000
  92.9042690  44.0139980  97.3891600  94.2027620  43.5885550  98.0409210
 105.1047890  48.3072640  94.5789050 104.9449030  48.0175580  95.4770880
 104.9394600  47.5312770  94.0434280  97.5836270  48.0871170  96.3560670
  97.4078750  47.1706710  96.1428470  96.7292010  48.4458460  96.5958470
 104.8074020  45.8160200  93.1387050 104.1139180  45.8137490  92.4789330
 105.5496880  45.3919520  92.7081220 104.3723950  47.4422910  97.2135540
 104.8280900  46.6612290  97.5274160 104.7116470  48.1529730  97.7576720
  96.8945270  32.3445130  99.4086850  96.4513420  33.1254670  99.0771370
  97.4530260  32.6675020 100.1157790 100.0104090  31.9655830  94.2892680
  99.3858270  31.9615700  95.0145990  99.9234210  31.0986790  93.8928650
  98.9321170  32.8892460 101.2676450  99.2293500  33.7955290 101.1868470
  99.4806730  32.4011240 100.6536020  96.6859490  37.4678700  97.1368100
  96.4600410  37.2515870  98.0414720  95.9052020  37.9007160  96.7914070
 103.9157250  37.4742070  95.7358750 103.3166140  38.1977870  95.5522370
 104.4636860  37.4118850  94.9535200 102.5222120  36.1105610  97.7662030
 102.9151690  36.4277810  96.9530720 102.8838970  35.2317490  97.8806550
  91.5586290  32.7006410  99.9892230  91.2699340  33.2709270 100.7017210
  92.3032050  32.2210860 100.3523460  91.7456520  36.6426530  91.1994950
  91.6631190  37.5857290  91.3409940  91.3939580  36.5001440  90.3207300
 103.1077260  38.7011360 101.8612810 102.3758380  39.2098170 102.2102910
 102.7101600  37.8841340 101.5601590  99.5454650  35.3765560 100.2665300
  99.5490710  34.9355510  99.4169840 100.4405770  35.6982890 100.3737120
  95.3957030  35.2592050  99.2259510  95.0557080  35.7367280  99.9826560
  94.6334350  34.8057170  98.8660610  99.6074800  36.3777640  93.2572060
  99.7287620  36.3364120  94.2057880  99.2223310  37.2401790  93.1018790
 103.5703170  34.1545040 101.2735750 103.5875910  34.6053690 102.1177600
 103.3218750  33.2550680 101.4869190  98.6196300  38.6878780  92.6555360
  98.0513200  38.2397030  92.0291270  99.3285300  39.0471560  92.1220510
  99.8462620  39.4367340 102.0130710 100.2132750  38.9625910 102.7592050
  99.6567680  40.3108910 102.3539050  92.7103110  34.1811030  98.1424180
  92.4250030  33.8166700  98.9802800  92.6481970  33.4491490  97.5287320
  97.6361990  38.4775980 104.3314920  97.3319060  39.3567960 104.5565280
  98.5908450  38.5375770 104.3672360  96.1643780  42.6836970  94.9281770
  95.3906040  42.1434590  94.7680490  96.8938410  42.1643580  94.5899530
 106.9231760  41.6802330 100.7208160 107.6430880  42.1757620 100.3304270
 106.7213580  41.0020220 100.0762030 102.3841700  33.0740290  94.8637550
 101.5706310  32.5753460  94.7882860 102.1903650  33.9138540  94.4473900
 105.0990090  37.4459940  93.1599710 105.9869710  37.7577170  92.9851050
 105.0695180  36.5732190  92.7680290  96.2081180  42.3517350  98.5660580
  96.7259850  41.5485610  98.5117470  95.7565200  42.2896490  99.4077410
 101.0950680  43.6183630  93.8387880 101.4366380  44.3625860  93.3431200
 100.2663390  43.9314750  94.2012710 107.3704360  38.7571780  92.6279570
 107.2868080  39.1886000  91.7776010 108.0898550  39.2170130  93.0606390
 108.3991610  45.6114040  95.3561700 107.7567770  44.9569660  95.6305420
 108.0122270  46.0169130  94.5802370 103.9778090  42.9399470  99.2033390
 104.3301910  42.3427600  98.5434760 103.0940420  42.6143700  99.3741640
 100.0641370  43.6997160  96.6103800 100.7512500  44.2466370  96.9911390
  99.2773790  44.2437890  96.6453410  92.2033770  39.3169980  92.1020880
  93.0728620  39.5994780  92.3856800  91.7124090  40.1305850  91.9869690
  99.3668580  40.7043190  96.2229160  99.8231360  41.5148440  96.4489350
  99.0156790  40.3866330  97.0547650 101.6701190  46.2149530 103.4521460
 102.3143410  46.4208910 104.1294880 102.0330630  45.4537930 102.9992310
  95.2680360  31.0480840  96.6951680  95.1394990  31.0398740  97.6436600
  94.4442380  31.3863930  96.3442690 102.9433270  44.2181880 102.1698910
 103.5855500  43.5175040 102.2831080 103.4682620  44.9980320 101.9895800
 106.7888990  44.5030500  91.8938050 106.5626570  43.7860940  92.4862690
 106.3985190  44.2542940  91.0559800  92.5705020  48.5297360  92.6682510
  92.9302660  49.1286700  92.0139780  92.4297360  49.0757250  93.4417540
 106.3705240  42.4202440  93.5552210 106.0826940  42.8815130  94.3430090
 107.1657410  41.9600210  93.8236430  98.5873640  45.9128560  93.4856180
  98.5783740  46.6458250  92.8700690  97.6672000  45.6660140  93.5783140
  94.1880280  41.1343450  94.2302940  93.5808230  41.8742350  94.2398240
  94.6629630  41.2242810  93.4041140 103.7613070  35.2994270 103.9059830
 104.1293890  34.4789480 104.2339400 102.9011270  35.3596160 104.3215480
 107.1275100  34.2551210  94.7147390 106.4988260  34.3596880  94.0005620
 106.6327020  34.4747990  95.5041270 101.5733240  45.9756800  92.1481370
 101.6745220  45.7720790  91.2183350 100.6734980  45.7215080  92.3529150
  99.0959130  36.5337160  96.1305270  98.3875280  37.0023500  96.5718880
  99.3803610  35.8759170  96.7650460 100.7215060  37.9533860 104.1297800
 101.2200310  38.4279680 104.7949650 100.8638010  37.0297380 104.3367830
 103.1274560  33.2587820  97.5701060 103.0042340  33.2773950  96.6210570
 104.0759120  33.3066760  97.6899460 100.2151350  48.4943120  96.8429040
 100.4692850  48.4564510  95.9208410  99.2663830  48.3676450  96.8357290
  97.2994150  34.8422240  93.5055980  98.1484680  35.2792390  93.4396170
  96.9325420  35.1542500  94.3328040 106.2203930  39.4135000  98.4187550
 105.2794070  39.4285230  98.5935240 106.5348000  38.6270960  98.8647850
  96.1985570  41.0954600  91.9791510  96.9648840  40.9835960  92.5416940
  96.2760260  40.3992570  91.3268280  94.8932330  38.5279670  92.6624400
  94.9735920  37.5807180  92.7741800  95.7852080  38.8586550  92.7685060
 108.2229510  46.5843850 100.0941810 108.3476930  47.4075020 100.5665620
 109.0895070  46.3734580  99.7465960  95.6947040  48.6775060  99.7658940
  96.4309520  48.1290520 100.0367510  96.0787960  49.5431070  99.6264930
  92.5792520  44.7448630  95.6400450  91.6532300  44.9869770  95.6305860
  93.0448950  45.5722890  95.5185200  98.8049350  47.8505370  91.5884510
  99.5977960  48.1394200  91.1366300  98.2853700  47.4197540  90.9096990
 107.8579520  47.0775500  93.0121250 107.5721030  46.6640640  92.1975430
 107.6599070  48.0063210  92.8921770  99.3226750  43.0708780  91.4526860
  99.2177390  42.4561130  92.1788240  99.1550970  42.5474670  90.6689870
  98.2304600  41.0919730  93.9534150  98.6521020  40.9259600  94.7965540
  98.3555440  40.2819960  93.4589290 100.7432240  40.1157340  91.2011250
 101.2637900  39.4006360  90.8352400 101.3900640  40.7543210  91.5011760
  99.6465760  32.5951890 103.8729810  99.1983060  32.6176150 103.0275360
  99.0130960  32.1970910 104.4700110 100.0525310  41.4906220 104.4942250
 100.4713420  42.3338950 104.3218490  99.1333940  41.6278260 104.2649030
  97.1263500  37.1652960  90.8992310  96.9252560  36.3020320  91.2605650
  96.9555550  37.0786320  89.9613910 104.6051810  31.9761190  93.4279190
 104.8854100  31.1329090  93.7838610 103.8317540  32.2084300  93.9417940
  95.9246300  34.2653580  90.8870190  96.2272200  34.2721010  89.9789340
  96.6640890  33.9151440  91.3837850  99.1431230  33.2088200  91.8726390
  98.7953230  32.5312190  91.2928840  99.3444000  32.7477710  92.6869780
 101.3080270  48.1968950  93.4912990 102.2031060  48.5353920  93.5131750
 101.3397900  47.4748360  92.8637270  94.9476430  43.5696000  91.7199990
  95.3851300  44.1125670  92.3757570  95.4324160  42.7442950  91.7296330
  92.1622230  46.3585030  99.1720250  92.4925240  45.4906090  98.9398890
  92.5913230  46.5643550 100.0025210  96.7584150  44.6894040  96.8322220
  96.4579690  44.5659010  97.7326130  96.6521640  43.8302630  96.4237950
  92.6512440  47.2255620 101.9101880  92.2143430  47.4056420 102.7426030
  93.2190120  47.9830240 101.7683600 109.5276070  44.4690440  91.5348900
 108.6969030  44.5367090  92.0056130 109.7047900  45.3594560  91.2315760
 108.9832530  41.2137920  94.0383100 109.7451440  41.7834570  94.1442790
 108.9986900  40.6465120  94.8091410  92.4836870  39.7375850  98.2690760
  91.8285710  39.4687490  97.6250460  93.3214820  39.6280330  97.8192740
 109.9892500  42.0688020  98.8825030 110.3601330  41.2855340  98.4761000
 110.6294430  42.7577120  98.7042330 106.9726260  43.4524600 104.2955350
 106.1586100  43.8821760 104.5581140 107.3800460  44.0643010 103.6824400
 109.0351700  41.5072290  91.1955620 109.3100540  42.4151170  91.0674840
 108.8462440  41.4434820  92.1317610 105.4327310  34.5317140  92.4909250
 105.8512190  34.3448120  91.6505910 105.1263370  33.6796190  92.8012180
 108.9317040  39.4441280  96.1885050 108.5560640  38.6769210  95.7566340
 108.2020160  39.8263980  96.6759980  93.5212800  40.1228420 102.8094100
  93.8885840  40.0355820 103.6890120  92.9523620  39.3594970 102.7100960
  91.6974950  36.9474780  94.2116090  90.7939030  37.2104980  94.0367750
  92.1815570  37.2185950  93.4316050 108.2068000  37.6698770  99.4892290
 108.7305480  37.1761420  98.8582460 108.7927420  37.8049130 100.2339860
 108.3857720  37.7538640 103.0111840 107.4360430  37.7202180 103.1256830
 108.5670730  38.6638750 102.7761610  94.2402160  36.0040320  92.1210470
  94.9493860  35.5823540  91.6357750  93.5242100  36.0715550  91.4893820
  93.8876320  32.0579650  91.1613120  94.6104450  32.5988590  91.4794340
  94.1600840  31.7843070  90.2854660 107.6967970  36.9272120  95.4284700
 108.1927090  36.6942990  96.2133580 107.4984040  36.0883960  95.0122340
  93.5768510  31.3085840 101.0635740  94.2244700  30.7583220 100.6230900
  93.9970350  31.5628990 101.8851550 109.1255130  35.5633070  97.9622380
 109.0154410  35.4089110  98.9004650 109.8862720  35.0354010  97.7197790
 107.4720850  31.5027200 104.4205380 108.1093070  32.1161340 104.7864570
 107.6195740  31.5387860 103.4754610 110.0145400  33.3940990  91.2028520
 110.9394710  33.2622170  90.9946810 109.9921190  33.4733810  92.1564970
 110.0883890  34.1651650  93.8285230 109.2935390  34.0996770  94.3578140
 110.2927170  35.1002290  93.8170580 107.0302310  48.2043200  97.8223620
 107.6261380  47.8827770  97.1458040 107.2880460  47.7315020  98.6136890
  93.3300510  31.4641510 103.8061060  92.9815330  31.9205330 104.5719240
  92.9988210  30.5698640 103.8883490  98.6370910  46.1920700 103.5723970
  98.3962270  46.4595260 102.6854490  99.5773550  46.3626430 103.6274830
 109.8975070  48.2115080 104.3734610 109.4033350  48.6083950 103.6561740
 109.2888360  47.5864290 104.7671890 104.2207930  30.8755590 103.2942060
 103.3467770  31.2090700 103.0914990 104.1118680  30.4028770 104.1193930
 105.1279910  33.0826460 104.6783780 104.7993270  32.2678220 104.2985510
 106.0762210  33.0396270 104.5549470 107.5814520  48.8538500 101.6521350
 107.1217490  49.6054310 101.2779370 106.9526980  48.1344970 101.5936150
  94.4065140  44.9481740 104.0420070  93.6799200  44.3287030 103.9746020
  94.4674290  45.3422350 103.1718150  98.0110240  47.1626740 100.8269480
  98.5275260  46.5514100 100.3017740  98.6607620  47.6655520 101.3180490
 100.7505740  48.0535230 101.6538460 101.0383550  47.7989530 100.7771470
 101.2628960  47.5012590 102.2444030 101.9682750  31.7925430 102.2334970
 101.1854540  32.2670930 102.5131730 101.6745680  30.8880260 102.1248150
 106.5203820  32.4948530 100.2784060 106.9611910  32.4393630  99.4305660
 106.2511410  33.4106540 100.3494240 108.3842390  32.1263770  98.2892880
 108.3230790  31.1824990  98.1423900 109.1634420  32.2343860  98.8346340
  92.6895140  48.2656130  97.2516830  92.5217180  47.6326810  97.9498720
  91.8229650  48.4715530  96.9011020  93.3123160  32.0972910  94.7548690
  94.0702520  32.2101790  94.1812720  92.8500330  32.9342110  94.7092120
  99.8536970  34.2112180  97.7451000  99.0411480  33.8369070  97.4046880
 100.3578610  33.4557260  98.0472190 104.3561950  30.8754630  98.9834070
 104.9591320  31.4474840  99.4582590 103.6154940  31.4394070  98.7607970
 107.4996550  31.2776190  94.2574350 107.6947180  32.1759640  94.5241780
 106.7126420  31.0463270  94.7507300  94.2957840  46.9589360  94.6966970
  93.7705460  47.3397390  93.9928930  94.2202420  47.5840130  95.4176680
  95.6848310  32.6236960  93.2950660  96.2141070  31.8366760  93.1658610
  96.3176630  33.3028150  93.5286190  97.8786150  32.3612100  96.3496050
  97.2488890  31.6599410  96.5166180  97.3391290  33.1216230  96.1329210
 109.0523160  48.5176900  96.0180910 109.2275350  47.8314640  95.3741830
 108.3544730  49.0423950  95.6257580  96.8950810  48.9071740  93.5716220
  97.6269630  48.6231020  93.0240110  97.1544480  48.6685020  94.4615600
  96.0565600  45.0236470  93.5762550  95.4274480  45.4921570  94.1248380
  96.1713430  44.1785690  94.0108740  94.0691140  36.1242850  76.2691170
  93.1807840  36.4658820  76.1671050  94.3532330  35.9243170  75.3772000
  92.0324150  38.7248500  82.1530870  92.6040260  37.9570700  82.1534510
  92.0325690  39.0237260  81.2437480  93.2749020  34.1332860  83.9399800
  93.0951860  33.2358610  84.2202560  92.8729100  34.6804730  84.6146750
  96.2452530  34.7074350  77.3029550  96.3519280  35.6078080  77.6098310
  95.3344890  34.6592320  77.0124200 105.8971640  33.8299160  78.7740450
 106.7181260  33.3395730  78.8165930 105.9305720  34.4196820  79.5272290
  93.8935690  36.6293360  82.5482140  94.5745800  36.8931730  83.1669540
  93.5783740  35.7894230  82.8820150  98.0860260  37.6760720  81.6354730
  98.5938480  38.1741690  82.2759750  98.6173500  36.8995920  81.4594090
 110.1871190  35.8465910  85.3384080 109.4823360  36.2347620  84.8199190
 110.4529110  36.5416200  85.9405010  96.3696360  32.3159280  85.9018150
  96.3714800  32.8331670  85.0964050  95.5400670  31.8389460  85.8788080
  96.0511690  34.0269240  83.9088600  96.3928500  34.8711290  83.6142470
  95.1127500  34.1752980  84.0253940 107.7495900  45.3874670  83.8095470
 107.0659420  46.0573780  83.8012140 108.2890190  45.5855320  83.0440330
 109.2020040  35.2154330  81.9377200 108.2544950  35.2493310  82.0692630
 109.5270030  36.0293280  82.3226560  99.7339580  31.5151510  80.2333190
 100.0414560  30.9598400  79.5168690  98.8040280  31.6495970  80.0506180
 102.1089420  35.8517340  73.9660470 101.1693090  36.0131300  74.0512930
 102.4272680  36.5703020  73.4196460 108.6302180  40.5335860  83.9439500
 107.8020810  40.6028950  83.4689630 109.2252660  41.1190170  83.4755330
  96.4405600  36.8808290  83.5312080  96.9920190  36.9903630  82.7565330
  96.9549110  37.2545890  84.2467310 106.2844290  47.3664510  85.5775350
 105.8074850  48.1736700  85.3847960 105.6006080  46.7142840  85.7301560
 107.9099470  31.6350260  72.7942350 107.5972130  31.7277090  73.6941420
 108.6711940  32.2131290  72.7439780  94.4281610  39.0010060  77.2519690
  94.3079210  39.7272150  76.6400960  94.1182500  38.2312970  76.7747600
 109.8643500  47.1276450  90.6466740 110.3403220  47.6059340  91.3255820
 110.4850660  47.0593940  89.9212240  92.0666980  42.1725200  83.0588330
  92.1447400  42.3073970  82.1144050  92.6808660  41.4641090  83.2516450
 109.2676750  44.3189300  87.8066750 109.3939810  44.0801180  86.8883930
 109.3098130  43.4873840  88.2788830 103.1293490  48.0217300  86.3761560
 103.6438160  47.9325310  87.1783990 102.2862570  48.3677000  86.6689470
 109.1200760  36.3721760  88.7716490 108.5045030  36.8801430  88.2431950
 108.7997180  35.4720090  88.7142430  96.8945270  32.3445130  80.6343360
  96.4513420  33.1254670  80.3027880  97.4530260  32.6675020  81.3414300
 101.1815080  35.2113650  86.2378680 100.7194450  35.4196670  87.0498620
 100.7793190  34.3973000  85.9349350 103.2769300  37.9324350  89.4674130
 103.6022710  37.0988100  89.1276360 104.0649630  38.4552870  89.6152460
 100.0104090  31.9655830  75.5149190  99.3858270  31.9615700  76.2402500
  99.9234210  31.0986790  75.1185160  98.9321170  32.8892460  82.4932960
  99.2293500  33.7955290  82.4124980  99.4806730  32.4011240  81.8792530
  99.1258700  38.3664280  89.0284880  99.0302300  37.4259010  88.8785280
  99.9690680  38.5879350  88.6332950  94.2569240  34.7777950  87.1818660
  93.8632630  35.6253160  87.3891440  93.5687640  34.1404320  87.3727300
 100.8314290  34.8612920  90.2515400 100.1412610  34.6685120  90.8861490
 101.5746590  35.1447560  90.7839700  91.5586290  32.7006410  81.2148740
  91.2699340  33.2709270  81.9273720  92.3032050  32.2210860  81.5779970
  91.7456520  36.6426530  72.4251460  91.6631190  37.5857290  72.5666450
  91.3939580  36.5001440  71.5463810  99.5454650  35.3765560  81.4921810
  99.5490710  34.9355510  80.6426350 100.4405770  35.6982890  81.5993630
  95.3957030  35.2592050  80.4516020  95.0557080  35.7367280  81.2083070
  94.6334350  34.8057170  80.0917120 103.5703170  34.1545040  82.4992260
 103.5875910  34.6053690  83.3434110 103.3218750  33.2550680  82.7125700
 106.9973920  31.5677220  88.3378640 107.3219690  30.8366880  88.8636620
 107.0330430  31.2490860  87.4359630  92.7103110  34.1811030  79.3680690
  92.4250030  33.8166700  80.2059310  92.6481970  33.4491490  78.7543830
 102.3841700  33.0740290  76.0894060 101.5706310  32.5753460  76.0139370
 102.1903650  33.9138540  75.6730410  96.8938840  39.7762960  89.5882340
  96.5938980  39.9220140  88.6910160  97.6650080  39.2168250  89.4955730
 108.4478500  41.2139300  86.9306050 107.7226690  41.8068080  86.7335440
 108.9753960  41.2062840  86.1319420  95.2680360  31.0480840  77.9208190
  95.1394990  31.0398740  78.8693110  94.4442380  31.3863930  77.5699200
 104.7170890  45.0176780  86.5991480 105.0527130  45.6043470  87.2769400
 103.7971230  44.8869490  86.8289270  92.2674290  32.8071960  87.3814890
  91.5532810  33.0068880  87.9867500  92.6869330  32.0311530  87.7529690
 107.1275100  34.2551210  75.9403900 106.4988260  34.3596880  75.2262130
 106.6327020  34.4747990  76.7297780 103.1274560  33.2587820  78.7957570
 103.0042340  33.2773950  77.8467080 104.0759120  33.3066760  78.9155970
  97.2994150  34.8422240  74.7312490  98.1484680  35.2792390  74.6652680
  96.9325420  35.1542500  75.5584550 107.9281920  34.1701820  86.1982700
 107.4255520  34.9107220  86.5376510 108.7438580  34.5585820  85.8819490
  94.7005320  47.8621130  90.1801030  95.5018050  48.1833180  90.5936430
  94.1857140  47.5016710  90.9020940 104.9670320  47.6981290  88.7385850
 105.9192070  47.6139310  88.6886090 104.8198540  48.3623000  89.4119640
  92.4203130  40.3494590  89.1237080  92.9242150  39.7701870  89.6953310
  91.6810550  40.6334820  89.6613450 102.5629480  42.1328810  73.2825360
 102.0139580  42.5798110  73.9268100 103.1848740  41.6278060  73.8063030
 106.6164420  43.4870910  89.2147620 107.3573890  43.8246670  88.7115080
 105.8537100  43.6562970  88.6617390  94.4526210  38.4924180  90.0187150
  94.4931550  38.1938050  90.9272380  95.3071710  38.8931790  89.8594670
  96.3932020  37.0716280  87.9861640  95.8628480  36.5807230  87.3584980
  97.0620090  37.5000480  87.4519570 100.7432240  40.1157340  72.4267760
 101.2637900  39.4006360  72.0608910 101.3900640  40.7543210  72.7268270
 105.2910080  41.5385740  87.7502830 105.7051100  41.6930820  88.5993250
 104.3561080  41.6640960  87.9128610 105.7632250  38.8781900  89.7541980
 106.3453020  38.1234220  89.6662460 105.9394020  39.4089340  88.9773460
  96.8804320  34.0378650  88.0658930  96.7861190  33.4199400  87.3409800
  96.3001710  34.7644940  87.8388840  99.6465760  32.5951890  85.0986320
  99.1983060  32.6176150  84.2531870  99.0130960  32.1970910  85.6956620
  99.1557980  35.7643750  88.3612420  99.7457670  35.4559600  89.0490240
  98.3378220  35.2923500  88.5172320 104.6051810  31.9761190  74.6535700
 104.8854100  31.1329090  75.0095120 103.8317540  32.2084300  75.1674450
  95.9246300  34.2653580  72.1126700  96.2272200  34.2721010  71.2045850
  96.6640890  33.9151440  72.6094360 100.7594940  49.0310440  87.0943140
 100.6853640  49.9345580  87.4015510  99.8573780  48.7122340  87.0665210
  99.1431230  33.2088200  73.0982900  98.7953230  32.5312190  72.5185350
  99.3444000  32.7477710  73.9126290 108.2874620  46.7272620  87.4235700
 107.6876610  46.7865180  86.6799620 108.4168520  45.7877600  87.5532550
 106.9726260  43.4524600  85.5211860 106.1586100  43.8821760  85.7837650
 107.3800460  44.0643010  84.9080910 105.4327310  34.5317140  73.7165760
 105.8512190  34.3448120  72.8762420 105.1263370  33.6796190  74.0268690
  93.5212800  40.1228420  84.0350610  93.8885840  40.0355820  84.9146630
  92.9523620  39.3594970  83.9357470 108.3216660  38.5912800  87.0481080
 108.0902750  38.3625550  86.1479030 108.5821210  39.5112350  87.0025970
  93.0728800  37.0337510  87.9409030  92.1784850  37.0004270  88.2802740
  93.6126350  37.2324300  88.7060280 106.7604730  33.8169230  89.8260780
 107.6374910  33.8252630  90.2094780 106.7725570  33.0800070  89.2153130
  91.6974950  36.9474780  75.4372600  90.7939030  37.2104980  75.2624260
  92.1815570  37.2185950  74.6572560 108.3857720  37.7538640  84.2368350
 107.4360430  37.7202180  84.3513340 108.5670730  38.6638750  84.0018120
  94.2402160  36.0040320  73.3466980  94.9493860  35.5823540  72.8614260
  93.5242100  36.0715550  72.7150330  93.8876320  32.0579650  72.3869630
  94.6104450  32.5988590  72.7050850  94.1600840  31.7843070  71.5111170
  93.5768510  31.3085840  82.2892250  94.2244700  30.7583220  81.8487410
  93.9970350  31.5628990  83.1108060 109.1255130  35.5633070  79.1878890
 109.0154410  35.4089110  80.1261160 109.8862720  35.0354010  78.9454300
 107.4720850  31.5027200  85.6461890 108.1093070  32.1161340  86.0121080
 107.6195740  31.5387860  84.7011120 110.0145400  33.3940990  72.4285030
 110.9394710  33.2622170  72.2203320 109.9921190  33.4733810  73.3821480
 110.0883890  34.1651650  75.0541740 109.2935390  34.0996770  75.5834650
 110.2927170  35.1002290  75.0427090  93.3300510  31.4641510  85.0317570
  92.9815330  31.9205330  85.7975750  92.9988210  30.5698640  85.1140000
 100.8425330  32.6553390  88.5536990 100.7814220  33.2475220  89.3032400
 101.7825710  32.5479350  88.4087250 103.4799890  32.3123450  88.1929280
 104.0940300  32.6302740  87.5310360 104.0249450  31.8272040  88.8125140
  94.0021150  30.9917710  88.3068340  94.5504140  30.8105760  87.5434450
  94.0676460  30.2011820  88.8424650 104.2207930  30.8755590  84.5198570
 103.3467770  31.2090700  84.3171500 104.1118680  30.4028770  85.3450440
 101.9682750  31.7925430  83.4591480 101.1854540  32.2670930  83.7388240
 101.6745680  30.8880260  83.3504660 106.5203820  32.4948530  81.5040570
 106.9611910  32.4393630  80.6562170 106.2511410  33.4106540  81.5750750
 108.3842390  32.1263770  79.5149390 108.3230790  31.1824990  79.3680410
 109.1634420  32.2343860  80.0602850  93.3123160  32.0972910  75.9805200
  94.0702520  32.2101790  75.4069230  92.8500330  32.9342110  75.9348630
  99.8536970  34.2112180  78.9707510  99.0411480  33.8369070  78.6303390
 100.3578610  33.4557260  79.2728700 104.3561950  30.8754630  80.2090580
 104.9591320  31.4474840  80.6839100 103.6154940  31.4394070  79.9864480
 107.4996550  31.2776190  75.4830860 107.6947180  32.1759640  75.7498290
 106.7126420  31.0463270  75.9763810  95.6848310  32.6236960  74.5207170
  96.2141070  31.8366760  74.3915120  96.3176630  33.3028150  74.7542700
  97.8786150  32.3612100  77.5752560  97.2488890  31.6599410  77.7422690
  97.3391290  33.1216230  77.3585720 100.8178100  48.9751330  90.2463170
 101.7445410  48.7395600  90.2899130 100.8028530  49.8023330  89.7649200
  98.0041710  31.6396080  90.0105050  97.7225980  32.1429680  89.2465870
  98.3861410  30.8417830  89.6447180 104.6057170  31.0549660  90.5885520
 104.4922620  31.3744270  91.4837040 105.4226910  31.4562170  90.2922800
 107.3855660  48.2021190  90.0704210 108.1780980  47.7070420  89.8630170
 107.6788810  48.8811330  90.6779820 103.5115320  39.0742130  60.9520260
 103.4309370  38.1596740  60.6811970 103.0979740  39.5709200  60.2459970
 101.6433360  40.8521150  62.8329530 100.8675460  40.3721590  63.1228100
 102.2946290  40.1726800  62.6585690  95.6599190  41.1640960  63.7105290
  94.8284070  40.9089670  64.1101800  96.2680170  41.2351730  64.4463210
 105.6640790  45.2581340  61.6128660 105.2022320  44.4868580  61.9415830
 106.4766340  45.2847410  62.1181110  95.6400450  45.1981050  63.9063310
  95.9428490  44.3078790  63.7273530  96.3844040  45.7551270  63.6785560
  94.0691140  36.1242850  57.4947680  93.1807840  36.4658820  57.3927560
  94.3532330  35.9243170  56.6028510  92.0324150  38.7248500  63.3787380
  92.6040260  37.9570700  63.3791020  92.0325690  39.0237260  62.4693990
 101.8904100  47.5439350  61.2332650 101.2715540  47.9996850  60.6627090
 102.7455880  47.6990810  60.8322350 101.0842350  43.5278340  62.8399690
 101.0150630  42.5868280  62.6788820 101.8462210  43.6179750  63.4122260
  93.2749020  34.1332860  65.1656310  93.0951860  33.2358610  65.4459070
  92.8729100  34.6804730  65.8403260 102.1147520  36.3348720  63.0668620
 102.4912340  35.4620600  62.9542290 102.0167030  36.6707420  62.1759060
  96.2452530  34.7074350  58.5286060  96.3519280  35.6078080  58.8354820
  95.3344890  34.6592320  58.2380710 105.8971640  33.8299160  59.9996960
 106.7181260  33.3395730  60.0422440 105.9305720  34.4196820  60.7528800
  93.8935690  36.6293360  63.7738650  94.5745800  36.8931730  64.3926050
  93.5783740  35.7894230  64.1076660  98.0860260  37.6760720  62.8611240
  98.5938480  38.1741690  63.5016260  98.6173500  36.8995920  62.6850600
 110.1871190  35.8465910  66.5640590 109.4823360  36.2347620  66.0455700
 110.4529110  36.5416200  67.1661520  96.3696360  32.3159280  67.1274660
  96.3714800  32.8331670  66.3220560  95.5400670  31.8389460  67.1044590
 102.7567450  42.4278590  58.6264560 102.1384720  42.8928040  58.0627280
 103.2690700  43.1206070  59.0434070  97.6199210  41.9554460  65.3048160
  97.2868590  42.5823380  65.9469230  97.7965890  42.4816340  64.5249830
 106.1333120  35.7699540  62.7724500 105.4288690  36.0584430  63.3527610
 106.4945280  36.5799650  62.4124060  96.0511690  34.0269240  65.1345110
  96.3928500  34.8711290  64.8398980  95.1127500  34.1752980  65.2510450
  92.1250650  43.1135120  56.0004190  91.7478630  43.6022220  55.2689090
  92.3823720  43.7860400  56.6310720 107.7495900  45.3874670  65.0351980
 107.0659420  46.0573780  65.0268650 108.2890190  45.5855320  64.2696840
 109.2020040  35.2154330  63.1633710 108.2544950  35.2493310  63.2949140
 109.5270030  36.0293280  63.5483070  99.7339580  31.5151510  61.4589700
 100.0414560  30.9598400  60.7425200  98.8040280  31.6495970  61.2762690
 105.2854640  47.2318800  63.7497160 105.2981800  46.8281090  62.8819420
 104.7329860  48.0066090  63.6458590 106.5800060  43.9535020  58.8387330
 106.4696390  43.0109350  58.9636750 106.5768310  44.3150660  59.7250090
 102.1220340  39.5800340  58.1949820 101.1949620  39.5137720  58.4238290
 102.2745160  40.5180470  58.0805060 102.1089420  35.8517340  55.1916980
 101.1693090  36.0131300  55.2769440 102.4272680  36.5703020  54.6452970
 108.6302180  40.5335860  65.1696010 107.8020810  40.6028950  64.6946140
 109.2252660  41.1190170  64.7011840 106.1517630  41.1420640  58.6985070
 105.5330050  40.8040190  58.0511370 106.1342080  40.4980400  59.4064260
 105.5944190  37.3205180  66.1150880 105.1815370  38.1458890  66.3690870
 104.8620140  36.7350220  65.9227240  97.7276980  40.1065080  60.9769550
  97.3233980  39.3942330  60.4815450  97.8140100  39.7618320  61.8657590
  98.1958680  43.7932640  63.1408760  97.8986970  43.1878110  62.4616540
  99.1458500  43.8309950  63.0298120  96.4405600  36.8808290  64.7568590
  96.9920190  36.9903630  63.9821840  96.9549110  37.2545890  65.4723820
 104.3282330  40.3807450  55.7057820 104.7675610  39.5429880  55.5595640
 105.0410750  41.0136850  55.7921960 102.4377710  45.3203520  59.6739060
 102.8773620  46.0627850  59.2594450 102.3764600  45.5630090  60.5978020
 107.9099470  31.6350260  54.0198860 107.5972130  31.7277090  54.9197930
 108.6711940  32.2131290  53.9696290  94.4281610  39.0010060  58.4776200
  94.3079210  39.7272150  57.8657470  94.1182500  38.2312970  58.0004110
  92.0666980  42.1725200  64.2844840  92.1447400  42.3073970  63.3400560
  92.6808660  41.4641090  64.4772960  93.3114610  43.8725390  60.6951020
  92.9042690  44.0139980  59.8404620  94.2027620  43.5885550  60.4922230
 109.2676750  44.3189300  69.0323260 109.3939810  44.0801180  68.1140440
 109.3098130  43.4873840  69.5045340 105.1047890  48.3072640  57.0302070
 104.9449030  48.0175580  57.9283900 104.9394600  47.5312770  56.4947300
  97.5836270  48.0871170  58.8073690  97.4078750  47.1706710  58.5941490
  96.7292010  48.4458460  59.0471490 104.8074020  45.8160200  55.5900070
 104.1139180  45.8137490  54.9302350 105.5496880  45.3919520  55.1594240
 104.3723950  47.4422910  59.6648560 104.8280900  46.6612290  59.9787180
 104.7116470  48.1529730  60.2089740 109.1200760  36.3721760  69.9973000
 108.5045030  36.8801430  69.4688460 108.7997180  35.4720090  69.9398940
  92.1226500  43.2139370  66.8239300  92.2857540  42.7444730  66.0058670
  92.5878950  42.7062930  67.4888140  96.8945270  32.3445130  61.8599870
  96.4513420  33.1254670  61.5284390  97.4530260  32.6675020  62.5670810
 101.1815080  35.2113650  67.4635190 100.7194450  35.4196670  68.2755130
 100.7793190  34.3973000  67.1605860 106.1819590  36.4322600  68.5931850
 105.3313180  36.1328350  68.9140920 106.0221380  36.6764610  67.6815670
 103.2769300  37.9324350  70.6930640 103.6022710  37.0988100  70.3532870
 104.0649630  38.4552870  70.8408970 100.0104090  31.9655830  56.7405700
  99.3858270  31.9615700  57.4659010  99.9234210  31.0986790  56.3441670
  98.9321170  32.8892460  63.7189470  99.2293500  33.7955290  63.6381490
  99.4806730  32.4011240  63.1049040  96.6859490  37.4678700  59.5881120
  96.4600410  37.2515870  60.4927740  95.9052020  37.9007160  59.2427090
 103.9157250  37.4742070  58.1871770 103.3166140  38.1977870  58.0035390
 104.4636860  37.4118850  57.4048220 102.5222120  36.1105610  60.2175050
 102.9151690  36.4277810  59.4043740 102.8838970  35.2317490  60.3319570
  94.2569240  34.7777950  68.4075170  93.8632630  35.6253160  68.6147950
  93.5687640  34.1404320  68.5983810 100.8314290  34.8612920  71.4771910
 100.1412610  34.6685120  72.1118000 101.5746590  35.1447560  72.0096210
  91.5586290  32.7006410  62.4405250  91.2699340  33.2709270  63.1530230
  92.3032050  32.2210860  62.8036480  91.7456520  36.6426530  53.6507970
  91.6631190  37.5857290  53.7922960  91.3939580  36.5001440  52.7720320
 103.1077260  38.7011360  64.3125830 102.3758380  39.2098170  64.6615930
 102.7101600  37.8841340  64.0114610  99.5454650  35.3765560  62.7178320
  99.5490710  34.9355510  61.8682860 100.4405770  35.6982890  62.8250140
  95.3957030  35.2592050  61.6772530  95.0557080  35.7367280  62.4339580
  94.6334350  34.8057170  61.3173630  99.6074800  36.3777640  55.7085080
  99.7287620  36.3364120  56.6570900  99.2223310  37.2401790  55.5531810
 103.5703170  34.1545040  63.7248770 103.5875910  34.6053690  64.5690620
 103.3218750  33.2550680  63.9382210  98.6196300  38.6878780  55.1068380
  98.0513200  38.2397030  54.4804290  99.3285300  39.0471560  54.5733530
 106.9973920  31.5677220  69.5635150 107.3219690  30.8366880  70.0893130
 107.0330430  31.2490860  68.6616140  99.8462620  39.4367340  64.4643730
 100.2132750  38.9625910  65.2105070  99.6567680  40.3108910  64.8052070
  92.7103110  34.1811030  60.5937200  92.4250030  33.8166700  61.4315820
  92.6481970  33.4491490  59.9800340  97.6361990  38.4775980  66.7827940
  97.3319060  39.3567960  67.0078300  98.5908450  38.5375770  66.8185380
  96.1643780  42.6836970  57.3794790  95.3906040  42.1434590  57.2193510
  96.8938410  42.1643580  57.0412550 106.9231760  41.6802330  63.1721180
 107.6430880  42.1757620  62.7817290 106.7213580  41.0020220  62.5275050
 102.3841700  33.0740290  57.3150570 101.5706310  32.5753460  57.2395880
 102.1903650  33.9138540  56.8986920 105.0990090  37.4459940  55.6112730
 105.9869710  37.7577170  55.4364070 105.0695180  36.5732190  55.2193310
  96.2081180  42.3517350  61.0173600  96.7259850  41.5485610  60.9630490
  95.7565200  42.2896490  61.8590430 101.0950680  43.6183630  56.2900900
 101.4366380  44.3625860  55.7944220 100.2663390  43.9314750  56.6525730
 107.3704360  38.7571780  55.0792590 107.2868080  39.1886000  54.2289030
 108.0898550  39.2170130  55.5119410 108.4478500  41.2139300  68.1562560
 107.7226690  41.8068080  67.9591950 108.9753960  41.2062840  67.3575930
 108.3991610  45.6114040  57.8074720 107.7567770  44.9569660  58.0818440
 108.0122270  46.0169130  57.0315390 103.9778090  42.9399470  61.6546410
 104.3301910  42.3427600  60.9947780 103.0940420  42.6143700  61.8254660
 100.0641370  43.6997160  59.0616820 100.7512500  44.2466370  59.4424410
  99.2773790  44.2437890  59.0966430  92.2033770  39.3169980  54.5533900
  93.0728620  39.5994780  54.8369820  91.7124090  40.1305850  54.4382710
  99.3668580  40.7043190  58.6742180  99.8231360  41.5148440  58.9002370
  99.0156790  40.3866330  59.5060670  95.2680360  31.0480840  59.1464700
  95.1394990  31.0398740  60.0949620  94.4442380  31.3863930  58.7955710
 102.9433270  44.2181880  64.6211930 103.5855500  43.5175040  64.7344100
 103.4682620  44.9980320  64.4408820 106.7888990  44.5030500  54.3451070
 106.5626570  43.7860940  54.9375710 106.3985190  44.2542940  53.5072820
  92.5705020  48.5297360  55.1195530  92.9302660  49.1286700  54.4652800
  92.4297360  49.0757250  55.8930560  92.2674290  32.8071960  68.6071400
  91.5532810  33.0068880  69.2124010  92.6869330  32.0311530  68.9786200
 106.3705240  42.4202440  56.0065230 106.0826940  42.8815130  56.7943110
 107.1657410  41.9600210  56.2749450  98.5873640  45.9128560  55.9369200
  98.5783740  46.6458250  55.3213710  97.6672000  45.6660140  56.0296160
  94.1880280  41.1343450  56.6815960  93.5808230  41.8742350  56.6911260
  94.6629630  41.2242810  55.8554160 103.7613070  35.2994270  66.3572850
 104.1293890  34.4789480  66.6852420 102.9011270  35.3596160  66.7728500
 107.1275100  34.2551210  57.1660410 106.4988260  34.3596880  56.4518640
 106.6327020  34.4747990  57.9554290 101.5733240  45.9756800  54.5994390
 101.6745220  45.7720790  53.6696370 100.6734980  45.7215080  54.8042170
  99.0959130  36.5337160  58.5818290  98.3875280  37.0023500  59.0231900
  99.3803610  35.8759170  59.2163480 100.7215060  37.9533860  66.5810820
 101.2200310  38.4279680  67.2462670 100.8638010  37.0297380  66.7880850
 103.1274560  33.2587820  60.0214080 103.0042340  33.2773950  59.0723590
 104.0759120  33.3066760  60.1412480 100.2151350  48.4943120  59.2942060
 100.4692850  48.4564510  58.3721430  99.2663830  48.3676450  59.2870310
  97.2994150  34.8422240  55.9569000  98.1484680  35.2792390  55.8909190
  96.9325420  35.1542500  56.7841060 107.9281920  34.1701820  67.4239210
 107.4255520  34.9107220  67.7633020 108.7438580  34.5585820  67.1076000
 106.2203930  39.4135000  60.8700570 105.2794070  39.4285230  61.0448260
 106.5348000  38.6270960  61.3160870  96.1985570  41.0954600  54.4304530
  96.9648840  40.9835960  54.9929960  96.2760260  40.3992570  53.7781300
  94.8932330  38.5279670  55.1137420  94.9735920  37.5807180  55.2254820
  95.7852080  38.8586550  55.2198080 108.2229510  46.5843850  62.5454830
 108.3476930  47.4075020  63.0178640 109.0895070  46.3734580  62.1978980
  95.6947040  48.6775060  62.2171960  96.4309520  48.1290520  62.4880530
  96.0787960  49.5431070  62.0777950  92.5792520  44.7448630  58.0913470
  91.6532300  44.9869770  58.0818880  93.0448950  45.5722890  57.9698220
  98.8049350  47.8505370  54.0397530  99.5977960  48.1394200  53.5879320
  98.2853700  47.4197540  53.3610010 107.8579520  47.0775500  55.4634270
 107.5721030  46.6640640  54.6488450 107.6599070  48.0063210  55.3434790
  99.3226750  43.0708780  53.9039880  99.2177390  42.4561130  54.6301260
  99.1550970  42.5474670  53.1202890 102.5629480  42.1328810  54.5081870
 102.0139580  42.5798110  55.1524610 103.1848740  41.6278060  55.0319540
 106.6164420  43.4870910  70.4404130 107.3573890  43.8246670  69.9371590
 105.8537100  43.6562970  69.8873900  98.2304600  41.0919730  56.4047170
  98.6521020  40.9259600  57.2478560  98.3555440  40.2819960  55.9102310
  96.3932020  37.0716280  69.2118150  95.8628480  36.5807230  68.5841490
  97.0620090  37.5000480  68.6776080 100.7432240  40.1157340  53.6524270
 101.2637900  39.4006360  53.2865420 101.3900640  40.7543210  53.9524780
  96.8804320  34.0378650  69.2915440  96.7861190  33.4199400  68.5666310
  96.3001710  34.7644940  69.0645350  99.6465760  32.5951890  66.3242830
  99.1983060  32.6176150  65.4788380  99.0130960  32.1970910  66.9213130
 100.0525310  41.4906220  66.9455270 100.4713420  42.3338950  66.7731510
  99.1333940  41.6278260  66.7162050 102.3889210  39.2222400  68.3293110
 102.5085420  38.6263540  69.0687950 103.2483210  39.2592090  67.9094410
  97.1263500  37.1652960  53.3505330  96.9252560  36.3020320  53.7118670
  96.9555550  37.0786320  52.4126930  99.1557980  35.7643750  69.5868930
  99.7457670  35.4559600  70.2746750  98.3378220  35.2923500  69.7428830
 103.9751410  35.3809560  69.8201950 103.2866930  34.7191100  69.7551940
 104.6957430  34.9347830  70.2650410 104.6051810  31.9761190  55.8792210
 104.8854100  31.1329090  56.2351630 103.8317540  32.2084300  56.3930960
  95.9246300  34.2653580  53.3383210  96.2272200  34.2721010  52.4302360
  96.6640890  33.9151440  53.8350870  99.1431230  33.2088200  54.3239410
  98.7953230  32.5312190  53.7441860  99.3444000  32.7477710  55.1382800
 101.3080270  48.1968950  55.9426010 102.2031060  48.5353920  55.9644770
 101.3397900  47.4748360  55.3150290  94.9476430  43.5696000  54.1713010
  95.3851300  44.1125670  54.8270590  95.4324160  42.7442950  54.1809350
  92.1622230  46.3585030  61.6233270  92.4925240  45.4906090  61.3911910
  92.5913230  46.5643550  62.4538230  96.7584150  44.6894040  59.2835240
  96.4579690  44.5659010  60.1839150  96.6521640  43.8302630  58.8750970
  92.6512440  47.2255620  64.3614900  92.2143430  47.4056420  65.1939050
  93.2190120  47.9830240  64.2196620 109.5276070  44.4690440  53.9861920
 108.6969030  44.5367090  54.4569150 109.7047900  45.3594560  53.6828780
 108.9832530  41.2137920  56.4896120 109.7451440  41.7834570  56.5955810
 108.9986900  40.6465120  57.2604430  92.4836870  39.7375850  60.7203780
  91.8285710  39.4687490  60.0763480  93.3214820  39.6280330  60.2705760
 109.9892500  42.0688020  61.3338050 110.3601330  41.2855340  60.9274020
 110.6294430  42.7577120  61.1555350 109.0351700  41.5072290  53.6468640
 109.3100540  42.4151170  53.5187860 108.8462440  41.4434820  54.5830630
 105.4327310  34.5317140  54.9422270 105.8512190  34.3448120  54.1018930
 105.1263370  33.6796190  55.2525200 108.9317040  39.4441280  58.6398070
 108.5560640  38.6769210  58.2079360 108.2020160  39.8263980  59.1273000
  93.5212800  40.1228420  65.2607120  93.8885840  40.0355820  66.1403140
  92.9523620  39.3594970  65.1613980 108.3216660  38.5912800  68.2737590
 108.0902750  38.3625550  67.3735540 108.5821210  39.5112350  68.2282480
 106.7604730  33.8169230  71.0517290 107.6374910  33.8252630  71.4351290
 106.7725570  33.0800070  70.4409640  91.6974950  36.9474780  56.6629110
  90.7939030  37.2104980  56.4880770  92.1815570  37.2185950  55.8829070
 108.2068000  37.6698770  61.9405310 108.7305480  37.1761420  61.3095480
 108.7927420  37.8049130  62.6852880 108.3857720  37.7538640  65.4624860
 107.4360430  37.7202180  65.5769850 108.5670730  38.6638750  65.2274630
  94.2402160  36.0040320  54.5723490  94.9493860  35.5823540  54.0870770
  93.5242100  36.0715550  53.9406840  93.8876320  32.0579650  53.6126140
  94.6104450  32.5988590  53.9307360  94.1600840  31.7843070  52.7367680
 107.6967970  36.9272120  57.8797720 108.1927090  36.6942990  58.6646600
 107.4984040  36.0883960  57.4635360  93.5768510  31.3085840  63.5148760
  94.2244700  30.7583220  63.0743920  93.9970350  31.5628990  64.3364570
 109.1255130  35.5633070  60.4135400 109.0154410  35.4089110  61.3517670
 109.8862720  35.0354010  60.1710810 107.4720850  31.5027200  66.8718400
 108.1093070  32.1161340  67.2377590 107.6195740  31.5387860  65.9267630
 110.0145400  33.3940990  53.6541540 110.9394710  33.2622170  53.4459830
 109.9921190  33.4733810  54.6077990 110.0883890  34.1651650  56.2798250
 109.2935390  34.0996770  56.8091160 110.2927170  35.1002290  56.2683600
 107.0302310  48.2043200  60.2736640 107.6261380  47.8827770  59.5971060
 107.2880460  47.7315020  61.0649910  93.3300510  31.4641510  66.2574080
  92.9815330  31.9205330  67.0232260  92.9988210  30.5698640  66.3396510
 100.8425330  32.6553390  69.7793500 100.7814220  33.2475220  70.5288910
 101.7825710  32.5479350  69.6343760 103.4799890  32.3123450  69.4185790
 104.0940300  32.6302740  68.7566870 104.0249450  31.8272040  70.0381650
 109.8975070  48.2115080  66.8247630 109.4033350  48.6083950  66.1074760
 109.2888360  47.5864290  67.2184910  94.0021150  30.9917710  69.5324850
  94.5504140  30.8105760  68.7690960  94.0676460  30.2011820  70.0681160
  94.7752910  47.5823360  67.5425050  94.1813230  47.4508060  68.2815090
  94.7676750  46.7461500  67.0767150 104.2207930  30.8755590  65.7455080
 103.3467770  31.2090700  65.5428010 104.1118680  30.4028770  66.5706950
 105.1279910  33.0826460  67.1296800 104.7993270  32.2678220  66.7498530
 106.0762210  33.0396270  67.0062490 107.5814520  48.8538500  64.1034370
 107.1217490  49.6054310  63.7292390 106.9526980  48.1344970  64.0449170
  94.4065140  44.9481740  66.4933090  93.6799200  44.3287030  66.4259040
  94.4674290  45.3422350  65.6231170  98.0110240  47.1626740  63.2782500
  98.5275260  46.5514100  62.7530760  98.6607620  47.6655520  63.7693510
 100.7505740  48.0535230  64.1051480 101.0383550  47.7989530  63.2284490
 101.2628960  47.5012590  64.6957050 101.9682750  31.7925430  64.6847990
 101.1854540  32.2670930  64.9644750 101.6745680  30.8880260  64.5761170
 106.5203820  32.4948530  62.7297080 106.9611910  32.4393630  61.8818680
 106.2511410  33.4106540  62.8007260 108.3842390  32.1263770  60.7405900
 108.3230790  31.1824990  60.5936920 109.1634420  32.2343860  61.2859360
  92.6895140  48.2656130  59.7029850  92.5217180  47.6326810  60.4011740
  91.8229650  48.4715530  59.3524040  93.3123160  32.0972910  57.2061710
  94.0702520  32.2101790  56.6325740  92.8500330  32.9342110  57.1605140
  99.8536970  34.2112180  60.1964020  99.0411480  33.8369070  59.8559900
 100.3578610  33.4557260  60.4985210 104.3561950  30.8754630  61.4347090
 104.9591320  31.4474840  61.9095610 103.6154940  31.4394070  61.2120990
 107.4996550  31.2776190  56.7087370 107.6947180  32.1759640  56.9754800
 106.7126420  31.0463270  57.2020320  94.2957840  46.9589360  57.1479990
  93.7705460  47.3397390  56.4441950  94.2202420  47.5840130  57.8689700
  95.6848310  32.6236960  55.7463680  96.2141070  31.8366760  55.6171630
  96.3176630  33.3028150  55.9799210  97.8786150  32.3612100  58.8009070
  97.2488890  31.6599410  58.9679200  97.3391290  33.1216230  58.5842230
 109.0523160  48.5176900  58.4693930 109.2275350  47.8314640  57.8254850
 108.3544730  49.0423950  58.0770600  98.0041710  31.6396080  71.2361560
  97.7225980  32.1429680  70.4722380  98.3861410  30.8417830  70.8703690
  96.8950810  48.9071740  56.0229240  97.6269630  48.6231020  55.4753130
  97.1544480  48.6685020  56.9128620  96.0565600  45.0236470  56.0275570
  95.4274480  45.4921570  56.5761400  96.1713430  44.1785690  56.4621760
 104.6057170  31.0549660  71.8142030 104.4922620  31.3744270  72.7093550
 105.4226910  31.4562170  71.5179310  95.6599190  41.1640960  44.9361800
  94.8284070  40.9089670  45.3358310  96.2680170  41.2351730  45.6719720
  94.0691140  36.1242850  38.7204190  93.1807840  36.4658820  38.6184070
  94.3532330  35.9243170  37.8285020  92.0324150  38.7248500  44.6043890
  92.6040260  37.9570700  44.6047530  92.0325690  39.0237260  43.6950500
  93.2749020  34.1332860  46.3912820  93.0951860  33.2358610  46.6715580
  92.8729100  34.6804730  47.0659770 102.1147520  36.3348720  44.2925130
 102.4912340  35.4620600  44.1798800 102.0167030  36.6707420  43.4015570
  96.2452530  34.7074350  39.7542570  96.3519280  35.6078080  40.0611330
  95.3344890  34.6592320  39.4637220 105.8971640  33.8299160  41.2253470
 106.7181260  33.3395730  41.2678950 105.9305720  34.4196820  41.9785310
  93.8935690  36.6293360  44.9995160  94.5745800  36.8931730  45.6182560
  93.5783740  35.7894230  45.3333170  98.0860260  37.6760720  44.0867750
  98.5938480  38.1741690  44.7272770  98.6173500  36.8995920  43.9107110
 110.1871190  35.8465910  47.7897100 109.4823360  36.2347620  47.2712210
 110.4529110  36.5416200  48.3918030  96.3696360  32.3159280  48.3531170
  96.3714800  32.8331670  47.5477070  95.5400670  31.8389460  48.3301100
  97.6199210  41.9554460  46.5304670  97.2868590  42.5823380  47.1725740
  97.7965890  42.4816340  45.7506340 106.1333120  35.7699540  43.9981010
 105.4288690  36.0584430  44.5784120 106.4945280  36.5799650  43.6380570
  96.0511690  34.0269240  46.3601620  96.3928500  34.8711290  46.0655490
  95.1127500  34.1752980  46.4766960  96.8318310  43.9235260  48.3453850
  97.4492310  44.5986340  48.0638300  95.9711430  44.3323240  48.2541350
  92.1250650  43.1135120  37.2260700  91.7478630  43.6022220  36.4945600
  92.3823720  43.7860400  37.8567230 107.7495900  45.3874670  46.2608490
 107.0659420  46.0573780  46.2525160 108.2890190  45.5855320  45.4953350
 109.2020040  35.2154330  44.3890220 108.2544950  35.2493310  44.5205650
 109.5270030  36.0293280  44.7739580  99.7339580  31.5151510  42.6846210
 100.0414560  30.9598400  41.9681710  98.8040280  31.6495970  42.5019200
 102.1220340  39.5800340  39.4206330 101.1949620  39.5137720  39.6494800
 102.2745160  40.5180470  39.3061570 102.1089420  35.8517340  36.4173490
 101.1693090  36.0131300  36.5025950 102.4272680  36.5703020  35.8709480
 105.5944190  37.3205180  47.3407390 105.1815370  38.1458890  47.5947380
 104.8620140  36.7350220  47.1483750  97.7276980  40.1065080  42.2026060
  97.3233980  39.3942330  41.7071960  97.8140100  39.7618320  43.0914100
  96.4405600  36.8808290  45.9825100  96.9920190  36.9903630  45.2078350
  96.9549110  37.2545890  46.6980330  97.2877110  43.5314330  51.0173070
  96.3905640  43.7554300  51.2646470  97.3129980  43.6549270  50.0684470
 104.3282330  40.3807450  36.9314330 104.7675610  39.5429880  36.7852150
 105.0410750  41.0136850  37.0178470  96.1148330  40.4027650  49.5930440
  95.9756100  41.2750450  49.9617840  95.2329690  40.0600460  49.4478380
  97.9128680  46.3449350  51.8015590  97.8844110  46.7492300  50.9344020
  97.7493650  45.4159710  51.6387190 107.9099470  31.6350260  35.2455370
 107.5972130  31.7277090  36.1454440 108.6711940  32.2131290  35.1952800
  94.4281610  39.0010060  39.7032710  94.3079210  39.7272150  39.0913980
  94.1182500  38.2312970  39.2260620 109.8643500  47.1276450  53.0979760
 110.3403220  47.6059340  53.7768840 110.4850660  47.0593940  52.3725260
  92.0666980  42.1725200  45.5101350  92.1447400  42.3073970  44.5657070
  92.6808660  41.4641090  45.7029470  93.3114610  43.8725390  41.9207530
  92.9042690  44.0139980  41.0661130  94.2027620  43.5885550  41.7178740
 109.2676750  44.3189300  50.2579770 109.3939810  44.0801180  49.3396950
 109.3098130  43.4873840  50.7301850 109.1200760  36.3721760  51.2229510
 108.5045030  36.8801430  50.6944970 108.7997180  35.4720090  51.1655450
  92.1226500  43.2139370  48.0495810  92.2857540  42.7444730  47.2315180
  92.5878950  42.7062930  48.7144650  96.8945270  32.3445130  43.0856380
  96.4513420  33.1254670  42.7540900  97.4530260  32.6675020  43.7927320
 101.1815080  35.2113650  48.6891700 100.7194450  35.4196670  49.5011640
 100.7793190  34.3973000  48.3862370 106.1819590  36.4322600  49.8188360
 105.3313180  36.1328350  50.1397430 106.0221380  36.6764610  48.9072180
 103.2769300  37.9324350  51.9187150 103.6022710  37.0988100  51.5789380
 104.0649630  38.4552870  52.0665480 100.0104090  31.9655830  37.9662210
  99.3858270  31.9615700  38.6915520  99.9234210  31.0986790  37.5698180
  98.9321170  32.8892460  44.9445980  99.2293500  33.7955290  44.8638000
  99.4806730  32.4011240  44.3305550  96.6859490  37.4678700  40.8137630
  96.4600410  37.2515870  41.7184250  95.9052020  37.9007160  40.4683600
 103.9157250  37.4742070  39.4128280 103.3166140  38.1977870  39.2291900
 104.4636860  37.4118850  38.6304730  99.1258700  38.3664280  51.4797900
  99.0302300  37.4259010  51.3298300  99.9690680  38.5879350  51.0845970
 102.5222120  36.1105610  41.4431560 102.9151690  36.4277810  40.6300250
 102.8838970  35.2317490  41.5576080  94.2569240  34.7777950  49.6331680
  93.8632630  35.6253160  49.8404460  93.5687640  34.1404320  49.8240320
 100.8314290  34.8612920  52.7028420 100.1412610  34.6685120  53.3374510
 101.5746590  35.1447560  53.2352720  91.5586290  32.7006410  43.6661760
  91.2699340  33.2709270  44.3786740  92.3032050  32.2210860  44.0292990
  91.7456520  36.6426530  34.8764480  91.6631190  37.5857290  35.0179470
  91.3939580  36.5001440  33.9976830 103.1077260  38.7011360  45.5382340
 102.3758380  39.2098170  45.8872440 102.7101600  37.8841340  45.2371120
  99.5454650  35.3765560  43.9434830  99.5490710  34.9355510  43.0939370
 100.4405770  35.6982890  44.0506650  95.3957030  35.2592050  42.9029040
  95.0557080  35.7367280  43.6596090  94.6334350  34.8057170  42.5430140
  99.6074800  36.3777640  36.9341590  99.7287620  36.3364120  37.8827410
  99.2223310  37.2401790  36.7788320 103.5703170  34.1545040  44.9505280
 103.5875910  34.6053690  45.7947130 103.3218750  33.2550680  45.1638720
  98.6196300  38.6878780  36.3324890  98.0513200  38.2397030  35.7060800
  99.3285300  39.0471560  35.7990040 106.9973920  31.5677220  50.7891660
 107.3219690  30.8366880  51.3149640 107.0330430  31.2490860  49.8872650
  93.6965480  42.5890800  50.2091620  93.3120270  41.9484470  50.8074580
  94.0077670  43.2926920  50.7786350  99.8462620  39.4367340  45.6900240
 100.2132750  38.9625910  46.4361580  99.6567680  40.3108910  46.0308580
  92.7103110  34.1811030  41.8193710  92.4250030  33.8166700  42.6572330
  92.6481970  33.4491490  41.2056850  97.6361990  38.4775980  48.0084450
  97.3319060  39.3567960  48.2334810  98.5908450  38.5375770  48.0441890
  96.1643780  42.6836970  38.6051300  95.3906040  42.1434590  38.4450020
  96.8938410  42.1643580  38.2669060 102.3841700  33.0740290  38.5407080
 101.5706310  32.5753460  38.4652390 102.1903650  33.9138540  38.1243430
 102.3050560  41.7511390  50.2846690 102.2387870  40.8307060  50.0304280
 101.6755700  41.8486830  50.9991330 105.0990090  37.4459940  36.8369240
 105.9869710  37.7577170  36.6620580 105.0695180  36.5732190  36.4449820
  96.2081180  42.3517350  42.2430110  96.7259850  41.5485610  42.1887000
  95.7565200  42.2896490  43.0846940 101.0950680  43.6183630  37.5157410
 101.4366380  44.3625860  37.0200730 100.2663390  43.9314750  37.8782240
  93.6925720  39.3178720  49.1555810  93.3340660  39.9832570  49.7429150
  93.3980280  38.4862270  49.5268430  96.8938840  39.7762960  52.0395360
  96.5938980  39.9220140  51.1423180  97.6650080  39.2168250  51.9468750
 107.3704360  38.7571780  36.3049100 107.2868080  39.1886000  35.4545540
 108.0898550  39.2170130  36.7375920 108.4478500  41.2139300  49.3819070
 107.7226690  41.8068080  49.1848460 108.9753960  41.2062840  48.5832440
  92.2033770  39.3169980  35.7790410  93.0728620  39.5994780  36.0626330
  91.7124090  40.1305850  35.6639220  99.3668580  40.7043190  39.8998690
  99.8231360  41.5148440  40.1258880  99.0156790  40.3866330  40.7317180
  95.2680360  31.0480840  40.3721210  95.1394990  31.0398740  41.3206130
  94.4442380  31.3863930  40.0212220 106.7888990  44.5030500  35.5707580
 106.5626570  43.7860940  36.1632220 106.3985190  44.2542940  34.7329330
  92.5705020  48.5297360  36.3452040  92.9302660  49.1286700  35.6909310
  92.4297360  49.0757250  37.1187070  92.2674290  32.8071960  49.8327910
  91.5532810  33.0068880  50.4380520  92.6869330  32.0311530  50.2042710
  92.5546880  46.7952220  50.8194440  92.6638000  45.8546960  50.6789830
  91.9027440  47.0606970  50.1708170 100.5459470  45.0668110  52.2192560
 100.2256340  44.3477350  52.7638250  99.8717830  45.7423180  52.2928620
  98.5873640  45.9128560  37.1625710  98.5783740  46.6458250  36.5470220
  97.6672000  45.6660140  37.2552670  94.1880280  41.1343450  37.9072470
  93.5808230  41.8742350  37.9167770  94.6629630  41.2242810  37.0810670
 103.7613070  35.2994270  47.5829360 104.1293890  34.4789480  47.9108930
 102.9011270  35.3596160  47.9985010 107.1275100  34.2551210  38.3916920
 106.4988260  34.3596880  37.6775150 106.6327020  34.4747990  39.1810800
  99.0959130  36.5337160  39.8074800  98.3875280  37.0023500  40.2488410
  99.3803610  35.8759170  40.4419990 100.7215060  37.9533860  47.8067330
 101.2200310  38.4279680  48.4719180 100.8638010  37.0297380  48.0137360
 103.1274560  33.2587820  41.2470590 103.0042340  33.2773950  40.2980100
 104.0759120  33.3066760  41.3668990  97.2994150  34.8422240  37.1825510
  98.1484680  35.2792390  37.1165700  96.9325420  35.1542500  38.0097570
 107.9281920  34.1701820  48.6495720 107.4255520  34.9107220  48.9889530
 108.7438580  34.5585820  48.3332510  96.1985570  41.0954600  35.6561040
  96.9648840  40.9835960  36.2186470  96.2760260  40.3992570  35.0037810
  94.8932330  38.5279670  36.3393930  94.9735920  37.5807180  36.4511330
  95.7852080  38.8586550  36.4454590  92.5792520  44.7448630  39.3169980
  91.6532300  44.9869770  39.3075390  93.0448950  45.5722890  39.1954730
  98.8049350  47.8505370  35.2654040  99.5977960  48.1394200  34.8135830
  98.2853700  47.4197540  34.5866520 103.5369950  43.9701000  52.5789460
 102.9308110  43.9932600  51.8385210 103.2324060  43.2384040  53.1156710
  92.4203130  40.3494590  51.5750100  92.9242150  39.7701870  52.1466330
  91.6810550  40.6334820  52.1126470  99.3226750  43.0708780  35.1296390
  99.2177390  42.4561130  35.8557770  99.1550970  42.5474670  34.3459400
  99.4741070  41.7565580  51.1085620  98.7086740  42.3250580  51.0240290
  99.6557030  41.4641790  50.2153850 102.5629480  42.1328810  35.7338380
 102.0139580  42.5798110  36.3781120 103.1848740  41.6278060  36.2576050
 106.6164420  43.4870910  51.6660640 107.3573890  43.8246670  51.1628100
 105.8537100  43.6562970  51.1130410  94.4526210  38.4924180  52.4700170
  94.4931550  38.1938050  53.3785400  95.3071710  38.8931790  52.3107690
  98.2304600  41.0919730  37.6303680  98.6521020  40.9259600  38.4735070
  98.3555440  40.2819960  37.1358820  96.3932020  37.0716280  50.4374660
  95.8628480  36.5807230  49.8098000  97.0620090  37.5000480  49.9032590
 100.7432240  40.1157340  34.8780780 101.2637900  39.4006360  34.5121930
 101.3900640  40.7543210  35.1781290 105.2910080  41.5385740  50.2015850
 105.7051100  41.6930820  51.0506270 104.3561080  41.6640960  50.3641630
 105.7632250  38.8781900  52.2055000 106.3453020  38.1234220  52.1175480
 105.9394020  39.4089340  51.4286480  96.8804320  34.0378650  50.5171950
  96.7861190  33.4199400  49.7922820  96.3001710  34.7644940  50.2901860
  99.6465760  32.5951890  47.5499340  99.1983060  32.6176150  46.7044890
  99.0130960  32.1970910  48.1469640 100.0525310  41.4906220  48.1711780
 100.4713420  42.3338950  47.9988020  99.1333940  41.6278260  47.9418560
 102.3889210  39.2222400  49.5549620 102.5085420  38.6263540  50.2944460
 103.2483210  39.2592090  49.1350920 104.7277110  39.7759590  48.1312130
 104.2012330  40.3002210  47.5277270 105.0708450  40.4086980  48.7621860
  97.1263500  37.1652960  34.5761840  96.9252560  36.3020320  34.9375180
  96.9555550  37.0786320  33.6383440  99.1557980  35.7643750  50.8125440
  99.7457670  35.4559600  51.5003260  98.3378220  35.2923500  50.9685340
 103.9751410  35.3809560  51.0458460 103.2866930  34.7191100  50.9808450
 104.6957430  34.9347830  51.4906920 104.6051810  31.9761190  37.1048720
 104.8854100  31.1329090  37.4608140 103.8317540  32.2084300  37.6187470
  95.9246300  34.2653580  34.5639720  96.2272200  34.2721010  33.6558870
  96.6640890  33.9151440  35.0607380  99.1431230  33.2088200  35.5495920
  98.7953230  32.5312190  34.9698370  99.3444000  32.7477710  36.3639310
  94.9476430  43.5696000  35.3969520  95.3851300  44.1125670  36.0527100
  95.4324160  42.7442950  35.4065860  92.1622230  46.3585030  42.8489780
  92.4925240  45.4906090  42.6168420  92.5913230  46.5643550  43.6794740
  96.7584150  44.6894040  40.5091750  96.4579690  44.5659010  41.4095660
  96.6521640  43.8302630  40.1007480  92.6512440  47.2255620  45.5871410
  92.2143430  47.4056420  46.4195560  93.2190120  47.9830240  45.4453130
 109.5276070  44.4690440  35.2118430 108.6969030  44.5367090  35.6825660
 109.7047900  45.3594560  34.9085290  92.4836870  39.7375850  41.9460290
  91.8285710  39.4687490  41.3019990  93.3214820  39.6280330  41.4962270
 106.9726260  43.4524600  47.9724880 106.1586100  43.8821760  48.2350670
 107.3800460  44.0643010  47.3593930 109.0351700  41.5072290  34.8725150
 109.3100540  42.4151170  34.7444370 108.8462440  41.4434820  35.8087140
 105.4327310  34.5317140  36.1678780 105.8512190  34.3448120  35.3275440
 105.1263370  33.6796190  36.4781710  93.5212800  40.1228420  46.4863630
  93.8885840  40.0355820  47.3659650  92.9523620  39.3594970  46.3870490
 108.3216660  38.5912800  49.4994100 108.0902750  38.3625550  48.5992050
 108.5821210  39.5112350  49.4538990  93.0728800  37.0337510  50.3922050
  92.1784850  37.0004270  50.7315760  93.6126350  37.2324300  51.1573300
 106.7604730  33.8169230  52.2773800 107.6374910  33.8252630  52.6607800
 106.7725570  33.0800070  51.6666150  91.6974950  36.9474780  37.8885620
  90.7939030  37.2104980  37.7137280  92.1815570  37.2185950  37.1085580
 108.2068000  37.6698770  43.1661820 108.7305480  37.1761420  42.5351990
 108.7927420  37.8049130  43.9109390 108.3857720  37.7538640  46.6881370
 107.4360430  37.7202180  46.8026360 108.5670730  38.6638750  46.4531140
  94.2402160  36.0040320  35.7980000  94.9493860  35.5823540  35.3127280
  93.5242100  36.0715550  35.1663350  93.8876320  32.0579650  34.8382650
  94.6104450  32.5988590  35.1563870  94.1600840  31.7843070  33.9624190
 107.6967970  36.9272120  39.1054230 108.1927090  36.6942990  39.8903110
 107.4984040  36.0883960  38.6891870  93.5768510  31.3085840  44.7405270
  94.2244700  30.7583220  44.3000430  93.9970350  31.5628990  45.5621080
 109.1255130  35.5633070  41.6391910 109.0154410  35.4089110  42.5774180
 109.8862720  35.0354010  41.3967320 107.4720850  31.5027200  48.0974910
 108.1093070  32.1161340  48.4634100 107.6195740  31.5387860  47.1524140
 110.0145400  33.3940990  34.8798050 110.9394710  33.2622170  34.6716340
 109.9921190  33.4733810  35.8334500 110.0883890  34.1651650  37.5054760
 109.2935390  34.0996770  38.0347670 110.2927170  35.1002290  37.4940110
  93.3300510  31.4641510  47.4830590  92.9815330  31.9205330  48.2488770
  92.9988210  30.5698640  47.5653020  94.9364880  44.6361110  51.6483780
  94.8934510  44.2654020  52.5298240  95.0675890  45.5738680  51.7885600
 100.8425330  32.6553390  51.0050010 100.7814220  33.2475220  51.7545420
 101.7825710  32.5479350  50.8600270 103.4799890  32.3123450  50.6442300
 104.0940300  32.6302740  49.9823380 104.0249450  31.8272040  51.2638160
  94.0021150  30.9917710  50.7581360  94.5504140  30.8105760  49.9947470
  94.0676460  30.2011820  51.2937670 104.2207930  30.8755590  46.9711590
 103.3467770  31.2090700  46.7684520 104.1118680  30.4028770  47.7963460
 105.1279910  33.0826460  48.3553310 104.7993270  32.2678220  47.9755040
 106.0762210  33.0396270  48.2319000  94.4065140  44.9481740  47.7189600
  93.6799200  44.3287030  47.6515550  94.4674290  45.3422350  46.8487680
 101.9682750  31.7925430  45.9104500 101.1854540  32.2670930  46.1901260
 101.6745680  30.8880260  45.8017680 106.5203820  32.4948530  43.9553590
 106.9611910  32.4393630  43.1075190 106.2511410  33.4106540  44.0263770
 108.3842390  32.1263770  41.9662410 108.3230790  31.1824990  41.8193430
 109.1634420  32.2343860  42.5115870  92.6895140  48.2656130  40.9286360
  92.5217180  47.6326810  41.6268250  91.8229650  48.4715530  40.5780550
  93.3123160  32.0972910  38.4318220  94.0702520  32.2101790  37.8582250
  92.8500330  32.9342110  38.3861650  99.8536970  34.2112180  41.4220530
  99.0411480  33.8369070  41.0816410 100.3578610  33.4557260  41.7241720
 104.3561950  30.8754630  42.6603600 104.9591320  31.4474840  43.1352120
 103.6154940  31.4394070  42.4377500 107.4996550  31.2776190  37.9343880
 107.6947180  32.1759640  38.2011310 106.7126420  31.0463270  38.4276830
  94.2957840  46.9589360  38.3736500  93.7705460  47.3397390  37.6698460
  94.2202420  47.5840130  39.0946210  95.6848310  32.6236960  36.9720190
  96.2141070  31.8366760  36.8428140  96.3176630  33.3028150  37.2055720
  97.8786150  32.3612100  40.0265580  97.2488890  31.6599410  40.1935710
  97.3391290  33.1216230  39.8098740 100.8178100  48.9751330  52.6976190
 101.7445410  48.7395600  52.7412150 100.8028530  49.8023330  52.2162220
  98.0041710  31.6396080  52.4618070  97.7225980  32.1429680  51.6978890
  98.3861410  30.8417830  52.0960200  96.8950810  48.9071740  37.2485750
  97.6269630  48.6231020  36.7009640  97.1544480  48.6685020  38.1385130
  96.0565600  45.0236470  37.2532080  95.4274480  45.4921570  37.8017910
  96.1713430  44.1785690  37.6878270 104.6057170  31.0549660  53.0398540
 104.4922620  31.3744270  53.9350060 105.4226910  31.4562170  52.7435820
 107.3855660  48.2021190  52.5217230 108.1780980  47.7070420  52.3143190
 107.6788810  48.8811330  53.1292840 103.5115320  39.0742130  23.4033280
 103.4309370  38.1596740  23.1324990 103.0979740  39.5709200  22.6972990
 101.6433360  40.8521150  25.2842550 100.8675460  40.3721590  25.5741120
 102.2946290  40.1726800  25.1098710  95.6599190  41.1640960  26.1618310
  94.8284070  40.9089670  26.5614820  96.2680170  41.2351730  26.8976230
 105.6640790  45.2581340  24.0641680 105.2022320  44.4868580  24.3928850
 106.4766340  45.2847410  24.5694130  95.6400450  45.1981050  26.3576330
  95.9428490  44.3078790  26.1786550  96.3844040  45.7551270  26.1298580
  94.0691140  36.1242850  19.9460700  93.1807840  36.4658820  19.8440580
  94.3532330  35.9243170  19.0541530  92.0324150  38.7248500  25.8300400
  92.6040260  37.9570700  25.8304040  92.0325690  39.0237260  24.9207010
 101.8904100  47.5439350  23.6845670 101.2715540  47.9996850  23.1140110
 102.7455880  47.6990810  23.2835370 101.0842350  43.5278340  25.2912710
 101.0150630  42.5868280  25.1301840 101.8462210  43.6179750  25.8635280
  93.2749020  34.1332860  27.6169330  93.0951860  33.2358610  27.8972090
  92.8729100  34.6804730  28.2916280 102.1147520  36.3348720  25.5181640
 102.4912340  35.4620600  25.4055310 102.0167030  36.6707420  24.6272080
  96.2452530  34.7074350  20.9799080  96.3519280  35.6078080  21.2867840
  95.3344890  34.6592320  20.6893730 105.8971640  33.8299160  22.4509980
 106.7181260  33.3395730  22.4935460 105.9305720  34.4196820  23.2041820
  93.8935690  36.6293360  26.2251670  94.5745800  36.8931730  26.8439070
  93.5783740  35.7894230  26.5589680  98.0860260  37.6760720  25.3124260
  98.5938480  38.1741690  25.9529280  98.6173500  36.8995920  25.1363620
 110.1871190  35.8465910  29.0153610 109.4823360  36.2347620  28.4968720
 110.4529110  36.5416200  29.6174540  96.3696360  32.3159280  29.5787680
  96.3714800  32.8331670  28.7733580  95.5400670  31.8389460  29.5557610
 102.7567450  42.4278590  21.0777580 102.1384720  42.8928040  20.5140300
 103.2690700  43.1206070  21.4947090  97.6199210  41.9554460  27.7561180
  97.2868590  42.5823380  28.3982250  97.7965890  42.4816340  26.9762850
 106.1333120  35.7699540  25.2237520 105.4288690  36.0584430  25.8040630
 106.4945280  36.5799650  24.8637080  96.0511690  34.0269240  27.5858130
  96.3928500  34.8711290  27.2912000  95.1127500  34.1752980  27.7023470
  96.8318310  43.9235260  29.5710360  97.4492310  44.5986340  29.2894810
  95.9711430  44.3323240  29.4797860  92.1250650  43.1135120  18.4517210
  91.7478630  43.6022220  17.7202110  92.3823720  43.7860400  19.0823740
 107.7495900  45.3874670  27.4865000 107.0659420  46.0573780  27.4781670
 108.2890190  45.5855320  26.7209860 109.2020040  35.2154330  25.6146730
 108.2544950  35.2493310  25.7462160 109.5270030  36.0293280  25.9996090
  99.7339580  31.5151510  23.9102720 100.0414560  30.9598400  23.1938220
  98.8040280  31.6495970  23.7275710 105.2854640  47.2318800  26.2010180
 105.2981800  46.8281090  25.3332440 104.7329860  48.0066090  26.0971610
 106.5800060  43.9535020  21.2900350 106.4696390  43.0109350  21.4149770
 106.5768310  44.3150660  22.1763110 104.6840080  42.1348640  27.5292790
 105.1008870  41.9208750  26.6946250 105.4079900  42.3921430  28.1001410
 102.1220340  39.5800340  20.6462840 101.1949620  39.5137720  20.8751310
 102.2745160  40.5180470  20.5318080 102.1089420  35.8517340  17.6430000
 101.1693090  36.0131300  17.7282460 102.4272680  36.5703020  17.0965990
 108.6302180  40.5335860  27.6209030 107.8020810  40.6028950  27.1459160
 109.2252660  41.1190170  27.1524860 106.1517630  41.1420640  21.1498090
 105.5330050  40.8040190  20.5024390 106.1342080  40.4980400  21.8577280
 105.5944190  37.3205180  28.5663900 105.1815370  38.1458890  28.8203890
 104.8620140  36.7350220  28.3740260  97.7276980  40.1065080  23.4282570
  97.3233980  39.3942330  22.9328470  97.8140100  39.7618320  24.3170610
  98.1958680  43.7932640  25.5921780  97.8986970  43.1878110  24.9129560
  99.1458500  43.8309950  25.4811140  96.4405600  36.8808290  27.2081610
  96.9920190  36.9903630  26.4334860  96.9549110  37.2545890  27.9236840
 106.2844290  47.3664510  29.2544880 105.8074850  48.1736700  29.0617490
 105.6006080  46.7142840  29.4071090  97.2877110  43.5314330  32.2429580
  96.3905640  43.7554300  32.4902980  97.3129980  43.6549270  31.2940980
 104.3282330  40.3807450  18.1570840 104.7675610  39.5429880  18.0108660
 105.0410750  41.0136850  18.2434980  96.1148330  40.4027650  30.8186950
  95.9756100  41.2750450  31.1874350  95.2329690  40.0600460  30.6734890
 102.4377710  45.3203520  22.1252080 102.8773620  46.0627850  21.7107470
 102.3764600  45.5630090  23.0491040  97.9128680  46.3449350  33.0272100
  97.8844110  46.7492300  32.1600530  97.7493650  45.4159710  32.8643700
 107.9099470  31.6350260  16.4711880 107.5972130  31.7277090  17.3710950
 108.6711940  32.2131290  16.4209310  94.4281610  39.0010060  20.9289220
  94.3079210  39.7272150  20.3170490  94.1182500  38.2312970  20.4517130
 109.8643500  47.1276450  34.3236270 110.3403220  47.6059340  35.0025350
 110.4850660  47.0593940  33.5981770  92.0666980  42.1725200  26.7357860
  92.1447400  42.3073970  25.7913580  92.6808660  41.4641090  26.9285980
  93.3114610  43.8725390  23.1464040  92.9042690  44.0139980  22.2917640
  94.2027620  43.5885550  22.9435250 109.2676750  44.3189300  31.4836280
 109.3939810  44.0801180  30.5653460 109.3098130  43.4873840  31.9558360
 103.1293490  48.0217300  30.0531090 103.6438160  47.9325310  30.8553520
 102.2862570  48.3677000  30.3459000 105.1047890  48.3072640  19.4815090
 104.9449030  48.0175580  20.3796920 104.9394600  47.5312770  18.9460320
  97.5836270  48.0871170  21.2586710  97.4078750  47.1706710  21.0454510
  96.7292010  48.4458460  21.4984510 104.8074020  45.8160200  18.0413090
 104.1139180  45.8137490  17.3815370 105.5496880  45.3919520  17.6107260
 104.3723950  47.4422910  22.1161580 104.8280900  46.6612290  22.4300200
 104.7116470  48.1529730  22.6602760 109.1200760  36.3721760  32.4486020
 108.5045030  36.8801430  31.9201480 108.7997180  35.4720090  32.3911960
  92.1226500  43.2139370  29.2752320  92.2857540  42.7444730  28.4571690
  92.5878950  42.7062930  29.9401160  96.8945270  32.3445130  24.3112890
  96.4513420  33.1254670  23.9797410  97.4530260  32.6675020  25.0183830
 101.1815080  35.2113650  29.9148210 100.7194450  35.4196670  30.7268150
 100.7793190  34.3973000  29.6118880 106.1819590  36.4322600  31.0444870
 105.3313180  36.1328350  31.3653940 106.0221380  36.6764610  30.1328690
 103.2769300  37.9324350  33.1443660 103.6022710  37.0988100  32.8045890
 104.0649630  38.4552870  33.2921990 100.0104090  31.9655830  19.1918720
  99.3858270  31.9615700  19.9172030  99.9234210  31.0986790  18.7954690
  98.9321170  32.8892460  26.1702490  99.2293500  33.7955290  26.0894510
  99.4806730  32.4011240  25.5562060  96.6859490  37.4678700  22.0394140
  96.4600410  37.2515870  22.9440760  95.9052020  37.9007160  21.6940110
 103.9157250  37.4742070  20.6384790 103.3166140  38.1977870  20.4548410
 104.4636860  37.4118850  19.8561240  99.1258700  38.3664280  32.7054410
  99.0302300  37.4259010  32.5554810  99.9690680  38.5879350  32.3102480
 102.5222120  36.1105610  22.6688070 102.9151690  36.4277810  21.8556760
 102.8838970  35.2317490  22.7832590  94.2569240  34.7777950  30.8588190
  93.8632630  35.6253160  31.0660970  93.5687640  34.1404320  31.0496830
 100.8314290  34.8612920  33.9284930 100.1412610  34.6685120  34.5631020
 101.5746590  35.1447560  34.4609230  91.5586290  32.7006410  24.8918270
  91.2699340  33.2709270  25.6043250  92.3032050  32.2210860  25.2549500
  91.7456520  36.6426530  16.1020990  91.6631190  37.5857290  16.2435980
  91.3939580  36.5001440  15.2233340 103.1077260  38.7011360  26.7638850
 102.3758380  39.2098170  27.1128950 102.7101600  37.8841340  26.4627630
  99.5454650  35.3765560  25.1691340  99.5490710  34.9355510  24.3195880
 100.4405770  35.6982890  25.2763160  95.3957030  35.2592050  24.1285550
  95.0557080  35.7367280  24.8852600  94.6334350  34.8057170  23.7686650
  99.6074800  36.3777640  18.1598100  99.7287620  36.3364120  19.1083920
  99.2223310  37.2401790  18.0044830 103.5703170  34.1545040  26.1761790
 103.5875910  34.6053690  27.0203640 103.3218750  33.2550680  26.3895230
  98.6196300  38.6878780  17.5581400  98.0513200  38.2397030  16.9317310
  99.3285300  39.0471560  17.0246550 106.9973920  31.5677220  32.0148170
 107.3219690  30.8366880  32.5406150 107.0330430  31.2490860  31.1129160
  93.6965480  42.5890800  31.4348130  93.3120270  41.9484470  32.0331090
  94.0077670  43.2926920  32.0042860  99.8462620  39.4367340  26.9156750
 100.2132750  38.9625910  27.6618090  99.6567680  40.3108910  27.2565090
  92.7103110  34.1811030  23.0450220  92.4250030  33.8166700  23.8828840
  92.6481970  33.4491490  22.4313360  97.6361990  38.4775980  29.2340960
  97.3319060  39.3567960  29.4591320  98.5908450  38.5375770  29.2698400
  96.1643780  42.6836970  19.8307810  95.3906040  42.1434590  19.6706530
  96.8938410  42.1643580  19.4925570 106.9231760  41.6802330  25.6234200
 107.6430880  42.1757620  25.2330310 106.7213580  41.0020220  24.9788070
 102.3841700  33.0740290  19.7663590 101.5706310  32.5753460  19.6908900
 102.1903650  33.9138540  19.3499940 102.3050560  41.7511390  31.5103200
 102.2387870  40.8307060  31.2560790 101.6755700  41.8486830  32.2247840
 105.0990090  37.4459940  18.0625750 105.9869710  37.7577170  17.8877090
 105.0695180  36.5732190  17.6706330  96.2081180  42.3517350  23.4686620
  96.7259850  41.5485610  23.4143510  95.7565200  42.2896490  24.3103450
 101.0950680  43.6183630  18.7413920 101.4366380  44.3625860  18.2457240
 100.2663390  43.9314750  19.1038750  93.6925720  39.3178720  30.3812320
  93.3340660  39.9832570  30.9685660  93.3980280  38.4862270  30.7524940
  96.8938840  39.7762960  33.2651870  96.5938980  39.9220140  32.3679690
  97.6650080  39.2168250  33.1725260 102.2367290  44.5731960  31.2607000
 102.2511830  43.6412920  31.0425910 101.5292390  44.6591720  31.8996770
 107.3704360  38.7571780  17.5305610 107.2868080  39.1886000  16.6802050
 108.0898550  39.2170130  17.9632430 108.4478500  41.2139300  30.6075580
 107.7226690  41.8068080  30.4104970 108.9753960  41.2062840  29.8088950
 108.3991610  45.6114040  20.2587740 107.7567770  44.9569660  20.5331460
 108.0122270  46.0169130  19.4828410 103.9778090  42.9399470  24.1059430
 104.3301910  42.3427600  23.4460800 103.0940420  42.6143700  24.2767680
 100.0641370  43.6997160  21.5129840 100.7512500  44.2466370  21.8937430
  99.2773790  44.2437890  21.5479450  92.2033770  39.3169980  17.0046920
  93.0728620  39.5994780  17.2882840  91.7124090  40.1305850  16.8895730
  99.3668580  40.7043190  21.1255200  99.8231360  41.5148440  21.3515390
  99.0156790  40.3866330  21.9573690 101.6701190  46.2149530  28.3547500
 102.3143410  46.4208910  29.0320920 102.0330630  45.4537930  27.9018350
  95.2680360  31.0480840  21.5977720  95.1394990  31.0398740  22.5462640
  94.4442380  31.3863930  21.2468730 102.9433270  44.2181880  27.0724950
 103.5855500  43.5175040  27.1857120 103.4682620  44.9980320  26.8921840
 106.7888990  44.5030500  16.7964090 106.5626570  43.7860940  17.3888730
 106.3985190  44.2542940  15.9585840 104.7170890  45.0176780  30.2761010
 105.0527130  45.6043470  30.9538930 103.7971230  44.8869490  30.5058800
  92.5705020  48.5297360  17.5708550  92.9302660  49.1286700  16.9165820
  92.4297360  49.0757250  18.3443580  92.2674290  32.8071960  31.0584420
  91.5532810  33.0068880  31.6637030  92.6869330  32.0311530  31.4299220
 106.3705240  42.4202440  18.4578250 106.0826940  42.8815130  19.2456130
 107.1657410  41.9600210  18.7262470  92.5546880  46.7952220  32.0450950
  92.6638000  45.8546960  31.9046340  91.9027440  47.0606970  31.3964680
 100.5459470  45.0668110  33.4449070 100.2256340  44.3477350  33.9894760
  99.8717830  45.7423180  33.5185130  98.5873640  45.9128560  18.3882220
  98.5783740  46.6458250  17.7726730  97.6672000  45.6660140  18.4809180
  94.1880280  41.1343450  19.1328980  93.5808230  41.8742350  19.1424280
  94.6629630  41.2242810  18.3067180 103.7613070  35.2994270  28.8085870
 104.1293890  34.4789480  29.1365440 102.9011270  35.3596160  29.2241520
 107.1275100  34.2551210  19.6173430 106.4988260  34.3596880  18.9031660
 106.6327020  34.4747990  20.4067310 101.5733240  45.9756800  17.0507410
 101.6745220  45.7720790  16.1209390 100.6734980  45.7215080  17.2555190
  99.0959130  36.5337160  21.0331310  98.3875280  37.0023500  21.4744920
  99.3803610  35.8759170  21.6676500 100.7215060  37.9533860  29.0323840
 101.2200310  38.4279680  29.6975690 100.8638010  37.0297380  29.2393870
 103.1274560  33.2587820  22.4727100 103.0042340  33.2773950  21.5236610
 104.0759120  33.3066760  22.5925500 100.2151350  48.4943120  21.7455080
 100.4692850  48.4564510  20.8234450  99.2663830  48.3676450  21.7383330
  97.2994150  34.8422240  18.4082020  98.1484680  35.2792390  18.3422210
  96.9325420  35.1542500  19.2354080 107.9281920  34.1701820  29.8752230
 107.4255520  34.9107220  30.2146040 108.7438580  34.5585820  29.5589020
 106.2203930  39.4135000  23.3213590 105.2794070  39.4285230  23.4961280
 106.5348000  38.6270960  23.7673890  96.1985570  41.0954600  16.8817550
  96.9648840  40.9835960  17.4442980  96.2760260  40.3992570  16.2294320
  94.8932330  38.5279670  17.5650440  94.9735920  37.5807180  17.6767840
  95.7852080  38.8586550  17.6711100 108.2229510  46.5843850  24.9967850
 108.3476930  47.4075020  25.4691660 109.0895070  46.3734580  24.6492000
  95.6947040  48.6775060  24.6684980  96.4309520  48.1290520  24.9393550
  96.0787960  49.5431070  24.5290970  92.5792520  44.7448630  20.5426490
  91.6532300  44.9869770  20.5331900  93.0448950  45.5722890  20.4211240
  94.7005320  47.8621130  33.8570560  95.5018050  48.1833180  34.2705960
  94.1857140  47.5016710  34.5790470  98.8049350  47.8505370  16.4910550
  99.5977960  48.1394200  16.0392340  98.2853700  47.4197540  15.8123030
 103.5369950  43.9701000  33.8045970 102.9308110  43.9932600  33.0641720
 103.2324060  43.2384040  34.3413220 107.8579520  47.0775500  17.9147290
 107.5721030  46.6640640  17.1001470 107.6599070  48.0063210  17.7947810
  92.4203130  40.3494590  32.8006610  92.9242150  39.7701870  33.3722840
  91.6810550  40.6334820  33.3382980  99.3226750  43.0708780  16.3552900
  99.2177390  42.4561130  17.0814280  99.1550970  42.5474670  15.5715910
  99.4741070  41.7565580  32.3342130  98.7086740  42.3250580  32.2496800
  99.6557030  41.4641790  31.4410360 102.5629480  42.1328810  16.9594890
 102.0139580  42.5798110  17.6037630 103.1848740  41.6278060  17.4832560
 106.6164420  43.4870910  32.8917150 107.3573890  43.8246670  32.3884610
 105.8537100  43.6562970  32.3386920  94.4526210  38.4924180  33.6956680
  94.4931550  38.1938050  34.6041910  95.3071710  38.8931790  33.5364200
  98.2304600  41.0919730  18.8560190  98.6521020  40.9259600  19.6991580
  98.3555440  40.2819960  18.3615330  96.3932020  37.0716280  31.6631170
  95.8628480  36.5807230  31.0354510  97.0620090  37.5000480  31.1289100
 100.7432240  40.1157340  16.1037290 101.2637900  39.4006360  15.7378440
 101.3900640  40.7543210  16.4037800 105.2910080  41.5385740  31.4272360
 105.7051100  41.6930820  32.2762780 104.3561080  41.6640960  31.5898140
 105.7632250  38.8781900  33.4311510 106.3453020  38.1234220  33.3431990
 105.9394020  39.4089340  32.6542990  96.8804320  34.0378650  31.7428460
  96.7861190  33.4199400  31.0179330  96.3001710  34.7644940  31.5158370
  99.6465760  32.5951890  28.7755850  99.1983060  32.6176150  27.9301400
  99.0130960  32.1970910  29.3726150 100.0525310  41.4906220  29.3968290
 100.4713420  42.3338950  29.2244530  99.1333940  41.6278260  29.1675070
 102.3889210  39.2222400  30.7806130 102.5085420  38.6263540  31.5200970
 103.2483210  39.2592090  30.3607430 104.7277110  39.7759590  29.3568640
 104.2012330  40.3002210  28.7533780 105.0708450  40.4086980  29.9878370
  97.1263500  37.1652960  15.8018350  96.9252560  36.3020320  16.1631690
  96.9555550  37.0786320  14.8639950  97.9032730  47.7959230  30.5126020
  97.3653820  48.5205290  30.1934720  98.1566690  47.3189570  29.7223360
  99.1557980  35.7643750  32.0381950  99.7457670  35.4559600  32.7259770
  98.3378220  35.2923500  32.1941850 103.9751410  35.3809560  32.2714970
 103.2866930  34.7191100  32.2064960 104.6957430  34.9347830  32.7163430
 104.6051810  31.9761190  18.3305230 104.8854100  31.1329090  18.6864650
 103.8317540  32.2084300  18.8443980  95.9246300  34.2653580  15.7896230
  96.2272200  34.2721010  14.8815380  96.6640890  33.9151440  16.2863890
 100.7594940  49.0310440  30.7712670 100.6853640  49.9345580  31.0785040
  99.8573780  48.7122340  30.7434740  99.1431230  33.2088200  16.7752430
  98.7953230  32.5312190  16.1954880  99.3444000  32.7477710  17.5895820
 101.3080270  48.1968950  18.3939030 102.2031060  48.5353920  18.4157790
 101.3397900  47.4748360  17.7663310  94.9476430  43.5696000  16.6226030
  95.3851300  44.1125670  17.2783610  95.4324160  42.7442950  16.6322370
  92.1622230  46.3585030  24.0746290  92.4925240  45.4906090  23.8424930
  92.5913230  46.5643550  24.9051250  96.7584150  44.6894040  21.7348260
  96.4579690  44.5659010  22.6352170  96.6521640  43.8302630  21.3263990
  92.6512440  47.2255620  26.8127920  92.2143430  47.4056420  27.6452070
  93.2190120  47.9830240  26.6709640 108.2874620  46.7272620  31.1005230
 107.6876610  46.7865180  30.3569150 108.4168520  45.7877600  31.2302080
 109.5276070  44.4690440  16.4374940 108.6969030  44.5367090  16.9082170
 109.7047900  45.3594560  16.1341800 108.9832530  41.2137920  18.9409140
 109.7451440  41.7834570  19.0468830 108.9986900  40.6465120  19.7117450
  92.4836870  39.7375850  23.1716800  91.8285710  39.4687490  22.5276500
  93.3214820  39.6280330  22.7218780 109.9892500  42.0688020  23.7851070
 110.3601330  41.2855340  23.3787040 110.6294430  42.7577120  23.6068370
 106.9726260  43.4524600  29.1981390 106.1586100  43.8821760  29.4607180
 107.3800460  44.0643010  28.5850440 109.0351700  41.5072290  16.0981660
 109.3100540  42.4151170  15.9700880 108.8462440  41.4434820  17.0343650
 105.4327310  34.5317140  17.3935290 105.8512190  34.3448120  16.5531950
 105.1263370  33.6796190  17.7038220 108.9317040  39.4441280  21.0911090
 108.5560640  38.6769210  20.6592380 108.2020160  39.8263980  21.5786020
  93.5212800  40.1228420  27.7120140  93.8885840  40.0355820  28.5916160
  92.9523620  39.3594970  27.6127000 108.3216660  38.5912800  30.7250610
 108.0902750  38.3625550  29.8248560 108.5821210  39.5112350  30.6795500
  93.0728800  37.0337510  31.6178560  92.1784850  37.0004270  31.9572270
  93.6126350  37.2324300  32.3829810 106.7604730  33.8169230  33.5030310
 107.6374910  33.8252630  33.8864310 106.7725570  33.0800070  32.8922660
  91.6974950  36.9474780  19.1142130  90.7939030  37.2104980  18.9393790
  92.1815570  37.2185950  18.3342090 108.2068000  37.6698770  24.3918330
 108.7305480  37.1761420  23.7608500 108.7927420  37.8049130  25.1365900
 108.3857720  37.7538640  27.9137880 107.4360430  37.7202180  28.0282870
 108.5670730  38.6638750  27.6787650  94.2402160  36.0040320  17.0236510
  94.9493860  35.5823540  16.5383790  93.5242100  36.0715550  16.3919860
  93.8876320  32.0579650  16.0639160  94.6104450  32.5988590  16.3820380
  94.1600840  31.7843070  15.1880700 107.6967970  36.9272120  20.3310740
 108.1927090  36.6942990  21.1159620 107.4984040  36.0883960  19.9148380
  93.5768510  31.3085840  25.9661780  94.2244700  30.7583220  25.5256940
  93.9970350  31.5628990  26.7877590 109.1255130  35.5633070  22.8648420
 109.0154410  35.4089110  23.8030690 109.8862720  35.0354010  22.6223830
 107.4720850  31.5027200  29.3231420 108.1093070  32.1161340  29.6890610
 107.6195740  31.5387860  28.3780650 110.0145400  33.3940990  16.1054560
 110.9394710  33.2622170  15.8972850 109.9921190  33.4733810  17.0591010
 110.0883890  34.1651650  18.7311270 109.2935390  34.0996770  19.2604180
 110.2927170  35.1002290  18.7196620 107.0302310  48.2043200  22.7249660
 107.6261380  47.8827770  22.0484080 107.2880460  47.7315020  23.5162930
  93.3300510  31.4641510  28.7087100  92.9815330  31.9205330  29.4745280
  92.9988210  30.5698640  28.7909530  94.9364880  44.6361110  32.8740290
  94.8934510  44.2654020  33.7554750  95.0675890  45.5738680  33.0142110
  98.6370910  46.1920700  28.4750010  98.3962270  46.4595260  27.5880530
  99.5773550  46.3626430  28.5300870 100.8425330  32.6553390  32.2306520
 100.7814220  33.2475220  32.9801930 101.7825710  32.5479350  32.0856780
 103.4799890  32.3123450  31.8698810 104.0940300  32.6302740  31.2079890
 104.0249450  31.8272040  32.4894670 109.8975070  48.2115080  29.2760650
 109.4033350  48.6083950  28.5587780 109.2888360  47.5864290  29.6697930
  94.0021150  30.9917710  31.9837870  94.5504140  30.8105760  31.2203980
  94.0676460  30.2011820  32.5194180  94.7752910  47.5823360  29.9938070
  94.1813230  47.4508060  30.7328110  94.7676750  46.7461500  29.5280170
 104.2207930  30.8755590  28.1968100 103.3467770  31.2090700  27.9941030
 104.1118680  30.4028770  29.0219970 105.1279910  33.0826460  29.5809820
 104.7993270  32.2678220  29.2011550 106.0762210  33.0396270  29.4575510
 107.5814520  48.8538500  26.5547390 107.1217490  49.6054310  26.1805410
 106.9526980  48.1344970  26.4962190  94.4065140  44.9481740  28.9446110
  93.6799200  44.3287030  28.8772060  94.4674290  45.3422350  28.0744190
  98.0110240  47.1626740  25.7295520  98.5275260  46.5514100  25.2043780
  98.6607620  47.6655520  26.2206530 100.7505740  48.0535230  26.5564500
 101.0383550  47.7989530  25.6797510 101.2628960  47.5012590  27.1470070
 101.9682750  31.7925430  27.1361010 101.1854540  32.2670930  27.4157770
 101.6745680  30.8880260  27.0274190 106.5203820  32.4948530  25.1810100
 106.9611910  32.4393630  24.3331700 106.2511410  33.4106540  25.2520280
 108.3842390  32.1263770  23.1918920 108.3230790  31.1824990  23.0449940
 109.1634420  32.2343860  23.7372380  92.6895140  48.2656130  22.1542870
  92.5217180  47.6326810  22.8524760  91.8229650  48.4715530  21.8037060
  93.3123160  32.0972910  19.6574730  94.0702520  32.2101790  19.0838760
  92.8500330  32.9342110  19.6118160  99.8536970  34.2112180  22.6477040
  99.0411480  33.8369070  22.3072920 100.3578610  33.4557260  22.9498230
 104.3561950  30.8754630  23.8860110 104.9591320  31.4474840  24.3608630
 103.6154940  31.4394070  23.6634010 107.4996550  31.2776190  19.1600390
 107.6947180  32.1759640  19.4267820 106.7126420  31.0463270  19.6533340
  94.2957840  46.9589360  19.5993010  93.7705460  47.3397390  18.8954970
  94.2202420  47.5840130  20.3202720  95.6848310  32.6236960  18.1976700
  96.2141070  31.8366760  18.0684650  96.3176630  33.3028150  18.4312230
  97.8786150  32.3612100  21.2522090  97.2488890  31.6599410  21.4192220
  97.3391290  33.1216230  21.0355250 109.0523160  48.5176900  20.9206950
 109.2275350  47.8314640  20.2767870 108.3544730  49.0423950  20.5283620
  98.0041710  31.6396080  33.6874580  97.7225980  32.1429680  32.9235400
  98.3861410  30.8417830  33.3216710  96.8950810  48.9071740  18.4742260
  97.6269630  48.6231020  17.9266150  97.1544480  48.6685020  19.3641640
  96.0565600  45.0236470  18.4788590  95.4274480  45.4921570  19.0274420
  96.1713430  44.1785690  18.9134780 104.6057170  31.0549660  34.2655050
 104.4922620  31.3744270  35.1606570 105.4226910  31.4562170  33.9692330
 107.3855660  48.2021190  33.7473740 108.1780980  47.7070420  33.5399700
 107.6788810  48.8811330  34.3549350 103.5115320  39.0742130   4.6289790
 103.4309370  38.1596740   4.3581500 103.0979740  39.5709200   3.9229500
 101.6433360  40.8521150   6.5099060 100.8675460  40.3721590   6.7997630
 102.2946290  40.1726800   6.3355220  95.6599190  41.1640960   7.3874820
  94.8284070  40.9089670   7.7871330  96.2680170  41.2351730   8.1232740
 105.6640790  45.2581340   5.2898190 105.2022320  44.4868580   5.6185360
 106.4766340  45.2847410   5.7950640  95.6400450  45.1981050   7.5832840
  95.9428490  44.3078790   7.4043060  96.3844040  45.7551270   7.3555090
  92.0324150  38.7248500   7.0556910  92.6040260  37.9570700   7.0560550
  92.0325690  39.0237260   6.1463520 101.8904100  47.5439350   4.9102180
 101.2715540  47.9996850   4.3396620 102.7455880  47.6990810   4.5091880
 101.0842350  43.5278340   6.5169220 101.0150630  42.5868280   6.3558350
 101.8462210  43.6179750   7.0891790  93.2749020  34.1332860   8.8425840
  93.0951860  33.2358610   9.1228600  92.8729100  34.6804730   9.5172790
 102.1147520  36.3348720   6.7438150 102.4912340  35.4620600   6.6311820
 102.0167030  36.6707420   5.8528590  96.2452530  34.7074350   2.2055590
  96.3519280  35.6078080   2.5124350  95.3344890  34.6592320   1.9150240
 105.8971640  33.8299160   3.6766490 106.7181260  33.3395730   3.7191970
 105.9305720  34.4196820   4.4298330  93.8935690  36.6293360   7.4508180
  94.5745800  36.8931730   8.0695580  93.5783740  35.7894230   7.7846190
  98.0860260  37.6760720   6.5380770  98.5938480  38.1741690   7.1785790
  98.6173500  36.8995920   6.3620130 110.1871190  35.8465910  10.2410120
 109.4823360  36.2347620   9.7225230 110.4529110  36.5416200  10.8431050
  96.3696360  32.3159280  10.8044190  96.3714800  32.8331670   9.9990090
  95.5400670  31.8389460  10.7814120 102.7567450  42.4278590   2.3034090
 102.1384720  42.8928040   1.7396810 103.2690700  43.1206070   2.7203600
  97.6199210  41.9554460   8.9817690  97.2868590  42.5823380   9.6238760
  97.7965890  42.4816340   8.2019360 106.1333120  35.7699540   6.4494030
 105.4288690  36.0584430   7.0297140 106.4945280  36.5799650   6.0893590
  96.0511690  34.0269240   8.8114640  96.3928500  34.8711290   8.5168510
  95.1127500  34.1752980   8.9279980  96.8318310  43.9235260  10.7966870
  97.4492310  44.5986340  10.5151320  95.9711430  44.3323240  10.7054370
 107.7495900  45.3874670   8.7121510 107.0659420  46.0573780   8.7038180
 108.2890190  45.5855320   7.9466370 109.2020040  35.2154330   6.8403240
 108.2544950  35.2493310   6.9718670 109.5270030  36.0293280   7.2252600
  99.7339580  31.5151510   5.1359230 100.0414560  30.9598400   4.4194730
  98.8040280  31.6495970   4.9532220 105.2854640  47.2318800   7.4266690
 105.2981800  46.8281090   6.5588950 104.7329860  48.0066090   7.3228120
 106.5800060  43.9535020   2.5156860 106.4696390  43.0109350   2.6406280
 106.5768310  44.3150660   3.4019620 104.6840080  42.1348640   8.7549300
 105.1008870  41.9208750   7.9202760 105.4079900  42.3921430   9.3257920
 102.1220340  39.5800340   1.8719350 101.1949620  39.5137720   2.1007820
 102.2745160  40.5180470   1.7574590 108.6302180  40.5335860   8.8465540
 107.8020810  40.6028950   8.3715670 109.2252660  41.1190170   8.3781370
 106.1517630  41.1420640   2.3754600 105.5330050  40.8040190   1.7280900
 106.1342080  40.4980400   3.0833790 105.5944190  37.3205180   9.7920410
 105.1815370  38.1458890  10.0460400 104.8620140  36.7350220   9.5996770
  97.7276980  40.1065080   4.6539080  97.3233980  39.3942330   4.1584980
  97.8140100  39.7618320   5.5427120  98.1958680  43.7932640   6.8178290
  97.8986970  43.1878110   6.1386070  99.1458500  43.8309950   6.7067650
  96.4405600  36.8808290   8.4338120  96.9920190  36.9903630   7.6591370
  96.9549110  37.2545890   9.1493350 106.2844290  47.3664510  10.4801390
 105.8074850  48.1736700  10.2874000 105.6006080  46.7142840  10.6327600
  97.2877110  43.5314330  13.4686090  96.3905640  43.7554300  13.7159490
  97.3129980  43.6549270  12.5197490  96.1148330  40.4027650  12.0443460
  95.9756100  41.2750450  12.4130860  95.2329690  40.0600460  11.8991400
 102.4377710  45.3203520   3.3508590 102.8773620  46.0627850   2.9363980
 102.3764600  45.5630090   4.2747550  97.9128680  46.3449350  14.2528610
  97.8844110  46.7492300  13.3857040  97.7493650  45.4159710  14.0900210
  94.4281610  39.0010060   2.1545730  94.3079210  39.7272150   1.5427000
  94.1182500  38.2312970   1.6773640 109.8643500  47.1276450  15.5492780
 110.3403220  47.6059340  16.2281860 110.4850660  47.0593940  14.8238280
  92.0666980  42.1725200   7.9614370  92.1447400  42.3073970   7.0170090
  92.6808660  41.4641090   8.1542490  93.3114610  43.8725390   4.3720550
  92.9042690  44.0139980   3.5174150  94.2027620  43.5885550   4.1691760
 109.2676750  44.3189300  12.7092790 109.3939810  44.0801180  11.7909970
 109.3098130  43.4873840  13.1814870 103.1293490  48.0217300  11.2787600
 103.6438160  47.9325310  12.0810030 102.2862570  48.3677000  11.5715510
  97.5836270  48.0871170   2.4843220  97.4078750  47.1706710   2.2711020
  96.7292010  48.4458460   2.7241020 104.3723950  47.4422910   3.3418090
 104.8280900  46.6612290   3.6556710 104.7116470  48.1529730   3.8859270
 109.1200760  36.3721760  13.6742530 108.5045030  36.8801430  13.1457990
 108.7997180  35.4720090  13.6168470  92.1226500  43.2139370  10.5008830
  92.2857540  42.7444730   9.6828200  92.5878950  42.7062930  11.1657670
  96.8945270  32.3445130   5.5369400  96.4513420  33.1254670   5.2053920
  97.4530260  32.6675020   6.2440340 101.1815080  35.2113650  11.1404720
 100.7194450  35.4196670  11.9524660 100.7793190  34.3973000  10.8375390
 106.1819590  36.4322600  12.2701380 105.3313180  36.1328350  12.5910450
 106.0221380  36.6764610  11.3585200 103.2769300  37.9324350  14.3700170
 103.6022710  37.0988100  14.0302400 104.0649630  38.4552870  14.5178500
  98.9321170  32.8892460   7.3959000  99.2293500  33.7955290   7.3151020
  99.4806730  32.4011240   6.7818570  96.6859490  37.4678700   3.2650650
  96.4600410  37.2515870   4.1697270  95.9052020  37.9007160   2.9196620
  99.1258700  38.3664280  13.9310920  99.0302300  37.4259010  13.7811320
  99.9690680  38.5879350  13.5358990 102.5222120  36.1105610   3.8944580
 102.9151690  36.4277810   3.0813270 102.8838970  35.2317490   4.0089100
  94.2569240  34.7777950  12.0844700  93.8632630  35.6253160  12.2917480
  93.5687640  34.1404320  12.2753340 100.8314290  34.8612920  15.1541440
 100.1412610  34.6685120  15.7887530 101.5746590  35.1447560  15.6865740
  91.5586290  32.7006410   6.1174780  91.2699340  33.2709270   6.8299760
  92.3032050  32.2210860   6.4806010 103.1077260  38.7011360   7.9895360
 102.3758380  39.2098170   8.3385460 102.7101600  37.8841340   7.6884140
  99.5454650  35.3765560   6.3947850  99.5490710  34.9355510   5.5452390
 100.4405770  35.6982890   6.5019670  95.3957030  35.2592050   5.3542060
  95.0557080  35.7367280   6.1109110  94.6334350  34.8057170   4.9943160
 103.5703170  34.1545040   7.4018300 103.5875910  34.6053690   8.2460150
 103.3218750  33.2550680   7.6151740 106.9973920  31.5677220  13.2404680
 107.3219690  30.8366880  13.7662660 107.0330430  31.2490860  12.3385670
  93.6965480  42.5890800  12.6604640  93.3120270  41.9484470  13.2587600
  94.0077670  43.2926920  13.2299370  99.8462620  39.4367340   8.1413260
 100.2132750  38.9625910   8.8874600  99.6567680  40.3108910   8.4821600
  92.7103110  34.1811030   4.2706730  92.4250030  33.8166700   5.1085350
  92.6481970  33.4491490   3.6569870  97.6361990  38.4775980  10.4597470
  97.3319060  39.3567960  10.6847830  98.5908450  38.5375770  10.4954910
 106.9231760  41.6802330   6.8490710 107.6430880  42.1757620   6.4586820
 106.7213580  41.0020220   6.2044580 102.3050560  41.7511390  12.7359710
 102.2387870  40.8307060  12.4817300 101.6755700  41.8486830  13.4504350
  96.2081180  42.3517350   4.6943130  96.7259850  41.5485610   4.6400020
  95.7565200  42.2896490   5.5359960  93.6925720  39.3178720  11.6068830
  93.3340660  39.9832570  12.1942170  93.3980280  38.4862270  11.9781450
  96.8938840  39.7762960  14.4908380  96.5938980  39.9220140  13.5936200
  97.6650080  39.2168250  14.3981770 102.2367290  44.5731960  12.4863510
 102.2511830  43.6412920  12.2682420 101.5292390  44.6591720  13.1253280
 108.4478500  41.2139300  11.8332090 107.7226690  41.8068080  11.6361480
 108.9753960  41.2062840  11.0345460 103.9778090  42.9399470   5.3315940
 104.3301910  42.3427600   4.6717310 103.0940420  42.6143700   5.5024190
 100.0641370  43.6997160   2.7386350 100.7512500  44.2466370   3.1193940
  99.2773790  44.2437890   2.7735960  99.3668580  40.7043190   2.3511710
  99.8231360  41.5148440   2.5771900  99.0156790  40.3866330   3.1830200
 101.6701190  46.2149530   9.5804010 102.3143410  46.4208910  10.2577430
 102.0330630  45.4537930   9.1274860  95.2680360  31.0480840   2.8234230
  95.1394990  31.0398740   3.7719150  94.4442380  31.3863930   2.4725240
 102.9433270  44.2181880   8.2981460 103.5855500  43.5175040   8.4113630
 103.4682620  44.9980320   8.1178350 104.7170890  45.0176780  11.5017520
 105.0527130  45.6043470  12.1795440 103.7971230  44.8869490  11.7315310
  92.2674290  32.8071960  12.2840930  91.5532810  33.0068880  12.8893540
  92.6869330  32.0311530  12.6555730  92.5546880  46.7952220  13.2707460
  92.6638000  45.8546960  13.1302850  91.9027440  47.0606970  12.6221190
 100.5459470  45.0668110  14.6705580 100.2256340  44.3477350  15.2151270
  99.8717830  45.7423180  14.7441640 103.7613070  35.2994270  10.0342380
 104.1293890  34.4789480  10.3621950 102.9011270  35.3596160  10.4498030
  99.0959130  36.5337160   2.2587820  98.3875280  37.0023500   2.7001430
  99.3803610  35.8759170   2.8933010 100.7215060  37.9533860  10.2580350
 101.2200310  38.4279680  10.9232200 100.8638010  37.0297380  10.4650380
 103.1274560  33.2587820   3.6983610 103.0042340  33.2773950   2.7493120
 104.0759120  33.3066760   3.8182010 100.2151350  48.4943120   2.9711590
 100.4692850  48.4564510   2.0490960  99.2663830  48.3676450   2.9639840
 107.9281920  34.1701820  11.1008740 107.4255520  34.9107220  11.4402550
 108.7438580  34.5585820  10.7845530 106.2203930  39.4135000   4.5470100
 105.2794070  39.4285230   4.7217790 106.5348000  38.6270960   4.9930400
 108.2229510  46.5843850   6.2224360 108.3476930  47.4075020   6.6948170
 109.0895070  46.3734580   5.8748510  95.6947040  48.6775060   5.8941490
  96.4309520  48.1290520   6.1650060  96.0787960  49.5431070   5.7547480
  92.5792520  44.7448630   1.7683000  91.6532300  44.9869770   1.7588410
  93.0448950  45.5722890   1.6467750  94.7005320  47.8621130  15.0827070
  95.5018050  48.1833180  15.4962470  94.1857140  47.5016710  15.8046980
 103.5369950  43.9701000  15.0302480 102.9308110  43.9932600  14.2898230
 103.2324060  43.2384040  15.5669730 104.9670320  47.6981290  13.6411890
 105.9192070  47.6139310  13.5912130 104.8198540  48.3623000  14.3145680
  92.4203130  40.3494590  14.0263120  92.9242150  39.7701870  14.5979350
  91.6810550  40.6334820  14.5639490  99.4741070  41.7565580  13.5598640
  98.7086740  42.3250580  13.4753310  99.6557030  41.4641790  12.6666870
 106.6164420  43.4870910  14.1173660 107.3573890  43.8246670  13.6141120
 105.8537100  43.6562970  13.5643430  94.4526210  38.4924180  14.9213190
  94.4931550  38.1938050  15.8298420  95.3071710  38.8931790  14.7620710
  96.3932020  37.0716280  12.8887680  95.8628480  36.5807230  12.2611020
  97.0620090  37.5000480  12.3545610 105.2910080  41.5385740  12.6528870
 105.7051100  41.6930820  13.5019290 104.3561080  41.6640960  12.8154650
 105.7632250  38.8781900  14.6568020 106.3453020  38.1234220  14.5688500
 105.9394020  39.4089340  13.8799500  96.8804320  34.0378650  12.9684970
  96.7861190  33.4199400  12.2435840  96.3001710  34.7644940  12.7414880
  99.6465760  32.5951890  10.0012360  99.1983060  32.6176150   9.1557910
  99.0130960  32.1970910  10.5982660 100.0525310  41.4906220  10.6224800
 100.4713420  42.3338950  10.4501040  99.1333940  41.6278260  10.3931580
 102.3889210  39.2222400  12.0062640 102.5085420  38.6263540  12.7457480
 103.2483210  39.2592090  11.5863940 104.7277110  39.7759590  10.5825150
 104.2012330  40.3002210   9.9790290 105.0708450  40.4086980  11.2134880
  97.9032730  47.7959230  11.7382530  97.3653820  48.5205290  11.4191230
  98.1566690  47.3189570  10.9479870  99.1557980  35.7643750  13.2638460
  99.7457670  35.4559600  13.9516280  98.3378220  35.2923500  13.4198360
 103.9751410  35.3809560  13.4971480 103.2866930  34.7191100  13.4321470
 104.6957430  34.9347830  13.9419940 100.7594940  49.0310440  11.9969180
 100.6853640  49.9345580  12.3041550  99.8573780  48.7122340  11.9691250
  92.1622230  46.3585030   5.3002800  92.4925240  45.4906090   5.0681440
  92.5913230  46.5643550   6.1307760  96.7584150  44.6894040   2.9604770
  96.4579690  44.5659010   3.8608680  96.6521640  43.8302630   2.5520500
  92.6512440  47.2255620   8.0384430  92.2143430  47.4056420   8.8708580
  93.2190120  47.9830240   7.8966150 108.2874620  46.7272620  12.3261740
 107.6876610  46.7865180  11.5825660 108.4168520  45.7877600  12.4558590
  92.4836870  39.7375850   4.3973310  91.8285710  39.4687490   3.7533010
  93.3214820  39.6280330   3.9475290 109.9892500  42.0688020   5.0107580
 110.3601330  41.2855340   4.6043550 110.6294430  42.7577120   4.8324880
 106.9726260  43.4524600  10.4237900 106.1586100  43.8821760  10.6863690
 107.3800460  44.0643010   9.8106950 108.9317040  39.4441280   2.3167600
 108.5560640  38.6769210   1.8848890 108.2020160  39.8263980   2.8042530
  93.5212800  40.1228420   8.9376650  93.8885840  40.0355820   9.8172670
  92.9523620  39.3594970   8.8383510 108.3216660  38.5912800  11.9507120
 108.0902750  38.3625550  11.0505070 108.5821210  39.5112350  11.9052010
  93.0728800  37.0337510  12.8435070  92.1784850  37.0004270  13.1828780
  93.6126350  37.2324300  13.6086320 106.7604730  33.8169230  14.7286820
 107.6374910  33.8252630  15.1120820 106.7725570  33.0800070  14.1179170
 108.2068000  37.6698770   5.6174840 108.7305480  37.1761420   4.9865010
 108.7927420  37.8049130   6.3622410 108.3857720  37.7538640   9.1394390
 107.4360430  37.7202180   9.2539380 108.5670730  38.6638750   8.9044160
  93.5768510  31.3085840   7.1918290  94.2244700  30.7583220   6.7513450
  93.9970350  31.5628990   8.0134100 109.1255130  35.5633070   4.0904930
 109.0154410  35.4089110   5.0287200 109.8862720  35.0354010   3.8480340
 107.4720850  31.5027200  10.5487930 108.1093070  32.1161340  10.9147120
 107.6195740  31.5387860   9.6037160 107.0302310  48.2043200   3.9506170
 107.6261380  47.8827770   3.2740590 107.2880460  47.7315020   4.7419440
  93.3300510  31.4641510   9.9343610  92.9815330  31.9205330  10.7001790
  92.9988210  30.5698640  10.0166040  94.9364880  44.6361110  14.0996800
  94.8934510  44.2654020  14.9811260  95.0675890  45.5738680  14.2398620
  98.6370910  46.1920700   9.7006520  98.3962270  46.4595260   8.8137040
  99.5773550  46.3626430   9.7557380 100.8425330  32.6553390  13.4563030
 100.7814220  33.2475220  14.2058440 101.7825710  32.5479350  13.3113290
 103.4799890  32.3123450  13.0955320 104.0940300  32.6302740  12.4336400
 104.0249450  31.8272040  13.7151180 109.8975070  48.2115080  10.5017160
 109.4033350  48.6083950   9.7844290 109.2888360  47.5864290  10.8954440
  94.0021150  30.9917710  13.2094380  94.5504140  30.8105760  12.4460490
  94.0676460  30.2011820  13.7450690  94.7752910  47.5823360  11.2194580
  94.1813230  47.4508060  11.9584620  94.7676750  46.7461500  10.7536680
 104.2207930  30.8755590   9.4224610 103.3467770  31.2090700   9.2197540
 104.1118680  30.4028770  10.2476480 105.1279910  33.0826460  10.8066330
 104.7993270  32.2678220  10.4268060 106.0762210  33.0396270  10.6832020
 107.5814520  48.8538500   7.7803900 107.1217490  49.6054310   7.4061920
 106.9526980  48.1344970   7.7218700  94.4065140  44.9481740  10.1702620
  93.6799200  44.3287030  10.1028570  94.4674290  45.3422350   9.3000700
  98.0110240  47.1626740   6.9552030  98.5275260  46.5514100   6.4300290
  98.6607620  47.6655520   7.4463040 100.7505740  48.0535230   7.7821010
 101.0383550  47.7989530   6.9054020 101.2628960  47.5012590   8.3726580
 101.9682750  31.7925430   8.3617520 101.1854540  32.2670930   8.6414280
 101.6745680  30.8880260   8.2530700 106.5203820  32.4948530   6.4066610
 106.9611910  32.4393630   5.5588210 106.2511410  33.4106540   6.4776790
 108.3842390  32.1263770   4.4175430 108.3230790  31.1824990   4.2706450
 109.1634420  32.2343860   4.9628890  92.6895140  48.2656130   3.3799380
  92.5217180  47.6326810   4.0781270  91.8229650  48.4715530   3.0293570
  99.8536970  34.2112180   3.8733550  99.0411480  33.8369070   3.5329430
 100.3578610  33.4557260   4.1754740 104.3561950  30.8754630   5.1116620
 104.9591320  31.4474840   5.5865140 103.6154940  31.4394070   4.8890520
  97.8786150  32.3612100   2.4778600  97.2488890  31.6599410   2.6448730
  97.3391290  33.1216230   2.2611760 100.8178100  48.9751330  15.1489210
 101.7445410  48.7395600  15.1925170 100.8028530  49.8023330  14.6675240
 109.0523160  48.5176900   2.1463460 109.2275350  47.8314640   1.5024380
 108.3544730  49.0423950   1.7540130  98.0041710  31.6396080  14.9131090
  97.7225980  32.1429680  14.1491910  98.3861410  30.8417830  14.5473220
 104.6057170  31.0549660  15.4911560 104.4922620  31.3744270  16.3863080
 105.4226910  31.4562170  15.1948840 107.3855660  48.2021190  14.9730250
 108.1780980  47.7070420  14.7656210 107.6788810  48.8811330  15.5805860
 103.5115320  20.2998640  98.5007240 103.4309370  19.3853250  98.2298950
 103.0979740  20.7965710  97.7946950 101.6433360  22.0777660 100.3816510
 100.8675460  21.5978100 100.6715080 102.2946290  21.3983310 100.2072670
  95.6599190  22.3897470 101.2592270  94.8284070  22.1346180 101.6588780
  96.2680170  22.4608240 101.9950190 105.6640790  26.4837850  99.1615640
 105.2022320  25.7125090  99.4902810 106.4766340  26.5103920  99.6668090
  95.6400450  26.4237560 101.4550290  95.9428490  25.5335300 101.2760510
  96.3844040  26.9807780 101.2272540  94.0691140  17.3499360  95.0434660
  93.1807840  17.6915330  94.9414540  94.3532330  17.1499680  94.1515490
  92.0324150  19.9505010 100.9274360  92.6040260  19.1827210 100.9278000
  92.0325690  20.2493770 100.0180970 101.8904100  28.7695860  98.7819630
 101.2715540  29.2253360  98.2114070 102.7455880  28.9247320  98.3809330
 101.0842350  24.7534850 100.3886670 101.0150630  23.8124790 100.2275800
 101.8462210  24.8436260 100.9609240  93.2749020  15.3589370 102.7143290
  93.0951860  14.4615120 102.9946050  92.8729100  15.9061240 103.3890240
 102.1147520  17.5605230 100.6155600 102.4912340  16.6877110 100.5029270
 102.0167030  17.8963930  99.7246040  96.2452530  15.9330860  96.0773040
  96.3519280  16.8334590  96.3841800  95.3344890  15.8848830  95.7867690
 105.8971640  15.0555670  97.5483940 106.7181260  14.5652240  97.5909420
 105.9305720  15.6453330  98.3015780  93.8935690  17.8549870 101.3225630
  94.5745800  18.1188240 101.9413030  93.5783740  17.0150740 101.6563640
  98.0860260  18.9017230 100.4098220  98.5938480  19.3998200 101.0503240
  98.6173500  18.1252430 100.2337580 110.1871190  17.0722420 104.1127570
 109.4823360  17.4604130 103.5942680 110.4529110  17.7672710 104.7148500
  96.3696360  13.5415790 104.6761640  96.3714800  14.0588180 103.8707540
  95.5400670  13.0645970 104.6531570 102.7567450  23.6535100  96.1751540
 102.1384720  24.1184550  95.6114260 103.2690700  24.3462580  96.5921050
  97.6199210  23.1810970 102.8535140  97.2868590  23.8079890 103.4956210
  97.7965890  23.7072850 102.0736810 106.1333120  16.9956050 100.3211480
 105.4288690  17.2840940 100.9014590 106.4945280  17.8056160  99.9611040
  96.0511690  15.2525750 102.6832090  96.3928500  16.0967800 102.3885960
  95.1127500  15.4009490 102.7997430  96.8318310  25.1491770 104.6684320
  97.4492310  25.8242850 104.3868770  95.9711430  25.5579750 104.5771820
  92.1250650  24.3391630  93.5491170  91.7478630  24.8278730  92.8176070
  92.3823720  25.0116910  94.1797700 107.7495900  26.6131180 102.5838960
 107.0659420  27.2830290 102.5755630 108.2890190  26.8111830 101.8183820
 109.2020040  16.4410840 100.7120690 108.2544950  16.4749820 100.8436120
 109.5270030  17.2549790 101.0970050  99.7339580  12.7408020  99.0076680
 100.0414560  12.1854910  98.2912180  98.8040280  12.8752480  98.8249670
 105.2854640  28.4575310 101.2984140 105.2981800  28.0537600 100.4306400
 104.7329860  29.2322600 101.1945570 106.5800060  25.1791530  96.3874310
 106.4696390  24.2365860  96.5123730 106.5768310  25.5407170  97.2737070
 104.6840080  23.3605150 102.6266750 105.1008870  23.1465260 101.7920210
 105.4079900  23.6177940 103.1975370 102.1220340  20.8056850  95.7436800
 101.1949620  20.7394230  95.9725270 102.2745160  21.7436980  95.6292040
 102.1089420  17.0773850  92.7403960 101.1693090  17.2387810  92.8256420
 102.4272680  17.7959530  92.1939950 108.6302180  21.7592370 102.7182990
 107.8020810  21.8285460 102.2433120 109.2252660  22.3446680 102.2498820
 106.1517630  22.3677150  96.2472050 105.5330050  22.0296700  95.5998350
 106.1342080  21.7236910  96.9551240 105.5944190  18.5461690 103.6637860
 105.1815370  19.3715400 103.9177850 104.8620140  17.9606730 103.4714220
  97.7276980  21.3321590  98.5256530  97.3233980  20.6198840  98.0302430
  97.8140100  20.9874830  99.4144570  98.1958680  25.0189150 100.6895740
  97.8986970  24.4134620 100.0103520  99.1458500  25.0566460 100.5785100
  96.4405600  18.1064800 102.3055570  96.9920190  18.2160140 101.5308820
  96.9549110  18.4802400 103.0210800 106.2844290  28.5921020 104.3518840
 105.8074850  29.3993210 104.1591450 105.6006080  27.9399350 104.5045050
 104.3282330  21.6063960  93.2544800 104.7675610  20.7686390  93.1082620
 105.0410750  22.2393360  93.3408940 102.4377710  26.5460030  97.2226040
 102.8773620  27.2884360  96.8081430 102.3764600  26.7886600  98.1465000
 107.9099470  12.8606770  91.5685840 107.5972130  12.9533600  92.4684910
 108.6711940  13.4387800  91.5183270  94.4281610  20.2266570  96.0263180
  94.3079210  20.9528660  95.4144450  94.1182500  19.4569480  95.5491090
  92.0666980  23.3981710 101.8331820  92.1447400  23.5330480 100.8887540
  92.6808660  22.6897600 102.0259940  93.3114610  25.0981900  98.2438000
  92.9042690  25.2396490  97.3891600  94.2027620  24.8142060  98.0409210
 105.1047890  29.5329150  94.5789050 104.9449030  29.2432090  95.4770880
 104.9394600  28.7569280  94.0434280  97.5836270  29.3127680  96.3560670
  97.4078750  28.3963220  96.1428470  96.7292010  29.6714970  96.5958470
 104.8074020  27.0416710  93.1387050 104.1139180  27.0394000  92.4789330
 105.5496880  26.6176030  92.7081220 104.3723950  28.6679420  97.2135540
 104.8280900  27.8868800  97.5274160 104.7116470  29.3786240  97.7576720
  96.8945270  13.5701640  99.4086850  96.4513420  14.3511180  99.0771370
  97.4530260  13.8931530 100.1157790 100.0104090  13.1912340  94.2892680
  99.3858270  13.1872210  95.0145990  99.9234210  12.3243300  93.8928650
  98.9321170  14.1148970 101.2676450  99.2293500  15.0211800 101.1868470
  99.4806730  13.6267750 100.6536020  96.6859490  18.6935210  97.1368100
  96.4600410  18.4772380  98.0414720  95.9052020  19.1263670  96.7914070
 103.9157250  18.6998580  95.7358750 103.3166140  19.4234380  95.5522370
 104.4636860  18.6375360  94.9535200 102.5222120  17.3362120  97.7662030
 102.9151690  17.6534320  96.9530720 102.8838970  16.4574000  97.8806550
  91.5586290  13.9262920  99.9892230  91.2699340  14.4965780 100.7017210
  92.3032050  13.4467370 100.3523460  91.7456520  17.8683040  91.1994950
  91.6631190  18.8113800  91.3409940  91.3939580  17.7257950  90.3207300
 103.1077260  19.9267870 101.8612810 102.3758380  20.4354680 102.2102910
 102.7101600  19.1097850 101.5601590  99.5454650  16.6022070 100.2665300
  99.5490710  16.1612020  99.4169840 100.4405770  16.9239400 100.3737120
  95.3957030  16.4848560  99.2259510  95.0557080  16.9623790  99.9826560
  94.6334350  16.0313680  98.8660610  99.6074800  17.6034150  93.2572060
  99.7287620  17.5620630  94.2057880  99.2223310  18.4658300  93.1018790
 103.5703170  15.3801550 101.2735750 103.5875910  15.8310200 102.1177600
 103.3218750  14.4807190 101.4869190  98.6196300  19.9135290  92.6555360
  98.0513200  19.4653540  92.0291270  99.3285300  20.2728070  92.1220510
  99.8462620  20.6623850 102.0130710 100.2132750  20.1882420 102.7592050
  99.6567680  21.5365420 102.3539050  92.7103110  15.4067540  98.1424180
  92.4250030  15.0423210  98.9802800  92.6481970  14.6748000  97.5287320
  97.6361990  19.7032490 104.3314920  97.3319060  20.5824470 104.5565280
  98.5908450  19.7632280 104.3672360  96.1643780  23.9093480  94.9281770
  95.3906040  23.3691100  94.7680490  96.8938410  23.3900090  94.5899530
 106.9231760  22.9058840 100.7208160 107.6430880  23.4014130 100.3304270
 106.7213580  22.2276730 100.0762030 102.3841700  14.2996800  94.8637550
 101.5706310  13.8009970  94.7882860 102.1903650  15.1395050  94.4473900
 105.0990090  18.6716450  93.1599710 105.9869710  18.9833680  92.9851050
 105.0695180  17.7988700  92.7680290  96.2081180  23.5773860  98.5660580
  96.7259850  22.7742120  98.5117470  95.7565200  23.5153000  99.4077410
 101.0950680  24.8440140  93.8387880 101.4366380  25.5882370  93.3431200
 100.2663390  25.1571260  94.2012710 107.3704360  19.9828290  92.6279570
 107.2868080  20.4142510  91.7776010 108.0898550  20.4426640  93.0606390
 108.3991610  26.8370550  95.3561700 107.7567770  26.1826170  95.6305420
 108.0122270  27.2425640  94.5802370 103.9778090  24.1655980  99.2033390
 104.3301910  23.5684110  98.5434760 103.0940420  23.8400210  99.3741640
 100.0641370  24.9253670  96.6103800 100.7512500  25.4722880  96.9911390
  99.2773790  25.4694400  96.6453410  92.2033770  20.5426490  92.1020880
  93.0728620  20.8251290  92.3856800  91.7124090  21.3562360  91.9869690
  99.3668580  21.9299700  96.2229160  99.8231360  22.7404950  96.4489350
  99.0156790  21.6122840  97.0547650 101.6701190  27.4406040 103.4521460
 102.3143410  27.6465420 104.1294880 102.0330630  26.6794440 102.9992310
  95.2680360  12.2737350  96.6951680  95.1394990  12.2655250  97.6436600
  94.4442380  12.6120440  96.3442690 102.9433270  25.4438390 102.1698910
 103.5855500  24.7431550 102.2831080 103.4682620  26.2236830 101.9895800
 106.7888990  25.7287010  91.8938050 106.5626570  25.0117450  92.4862690
 106.3985190  25.4799450  91.0559800  92.5705020  29.7553870  92.6682510
  92.9302660  30.3543210  92.0139780  92.4297360  30.3013760  93.4417540
 106.3705240  23.6458950  93.5552210 106.0826940  24.1071640  94.3430090
 107.1657410  23.1856720  93.8236430  98.5873640  27.1385070  93.4856180
  98.5783740  27.8714760  92.8700690  97.6672000  26.8916650  93.5783140
  94.1880280  22.3599960  94.2302940  93.5808230  23.0998860  94.2398240
  94.6629630  22.4499320  93.4041140 103.7613070  16.5250780 103.9059830
 104.1293890  15.7045990 104.2339400 102.9011270  16.5852670 104.3215480
 107.1275100  15.4807720  94.7147390 106.4988260  15.5853390  94.0005620
 106.6327020  15.7004500  95.5041270 101.5733240  27.2013310  92.1481370
 101.6745220  26.9977300  91.2183350 100.6734980  26.9471590  92.3529150
  99.0959130  17.7593670  96.1305270  98.3875280  18.2280010  96.5718880
  99.3803610  17.1015680  96.7650460 100.7215060  19.1790370 104.1297800
 101.2200310  19.6536190 104.7949650 100.8638010  18.2553890 104.3367830
 103.1274560  14.4844330  97.5701060 103.0042340  14.5030460  96.6210570
 104.0759120  14.5323270  97.6899460 100.2151350  29.7199630  96.8429040
 100.4692850  29.6821020  95.9208410  99.2663830  29.5932960  96.8357290
  97.2994150  16.0678750  93.5055980  98.1484680  16.5048900  93.4396170
  96.9325420  16.3799010  94.3328040 106.2203930  20.6391510  98.4187550
 105.2794070  20.6541740  98.5935240 106.5348000  19.8527470  98.8647850
  96.1985570  22.3211110  91.9791510  96.9648840  22.2092470  92.5416940
  96.2760260  21.6249080  91.3268280  94.8932330  19.7536180  92.6624400
  94.9735920  18.8063690  92.7741800  95.7852080  20.0843060  92.7685060
 108.2229510  27.8100360 100.0941810 108.3476930  28.6331530 100.5665620
 109.0895070  27.5991090  99.7465960  95.6947040  29.9031570  99.7658940
  96.4309520  29.3547030 100.0367510  96.0787960  30.7687580  99.6264930
  92.5792520  25.9705140  95.6400450  91.6532300  26.2126280  95.6305860
  93.0448950  26.7979400  95.5185200  98.8049350  29.0761880  91.5884510
  99.5977960  29.3650710  91.1366300  98.2853700  28.6454050  90.9096990
 107.8579520  28.3032010  93.0121250 107.5721030  27.8897150  92.1975430
 107.6599070  29.2319720  92.8921770  99.3226750  24.2965290  91.4526860
  99.2177390  23.6817640  92.1788240  99.1550970  23.7731180  90.6689870
 102.5629480  23.3585320  92.0568850 102.0139580  23.8054620  92.7011590
 103.1848740  22.8534570  92.5806520  98.2304600  22.3176240  93.9534150
  98.6521020  22.1516110  94.7965540  98.3555440  21.5076470  93.4589290
 100.7432240  21.3413850  91.2011250 101.2637900  20.6262870  90.8352400
 101.3900640  21.9799720  91.5011760  99.6465760  13.8208400 103.8729810
  99.1983060  13.8432660 103.0275360  99.0130960  13.4227420 104.4700110
 100.0525310  22.7162730 104.4942250 100.4713420  23.5595460 104.3218490
  99.1333940  22.8534770 104.2649030  97.1263500  18.3909470  90.8992310
  96.9252560  17.5276830  91.2605650  96.9555550  18.3042830  89.9613910
 104.6051810  13.2017700  93.4279190 104.8854100  12.3585600  93.7838610
 103.8317540  13.4340810  93.9417940  95.9246300  15.4910090  90.8870190
  96.2272200  15.4977520  89.9789340  96.6640890  15.1407950  91.3837850
  99.1431230  14.4344710  91.8726390  98.7953230  13.7568700  91.2928840
  99.3444000  13.9734220  92.6869780 101.3080270  29.4225460  93.4912990
 102.2031060  29.7610430  93.5131750 101.3397900  28.7004870  92.8637270
  94.9476430  24.7952510  91.7199990  95.3851300  25.3382180  92.3757570
  95.4324160  23.9699460  91.7296330  92.1622230  27.5841540  99.1720250
  92.4925240  26.7162600  98.9398890  92.5913230  27.7900060 100.0025210
  96.7584150  25.9150550  96.8322220  96.4579690  25.7915520  97.7326130
  96.6521640  25.0559140  96.4237950  92.6512440  28.4512130 101.9101880
  92.2143430  28.6312930 102.7426030  93.2190120  29.2086750 101.7683600
 109.5276070  25.6946950  91.5348900 108.6969030  25.7623600  92.0056130
 109.7047900  26.5851070  91.2315760 108.9832530  22.4394430  94.0383100
 109.7451440  23.0091080  94.1442790 108.9986900  21.8721630  94.8091410
  92.4836870  20.9632360  98.2690760  91.8285710  20.6944000  97.6250460
  93.3214820  20.8536840  97.8192740 109.9892500  23.2944530  98.8825030
 110.3601330  22.5111850  98.4761000 110.6294430  23.9833630  98.7042330
 106.9726260  24.6781110 104.2955350 106.1586100  25.1078270 104.5581140
 107.3800460  25.2899520 103.6824400 109.0351700  22.7328800  91.1955620
 109.3100540  23.6407680  91.0674840 108.8462440  22.6691330  92.1317610
 105.4327310  15.7573650  92.4909250 105.8512190  15.5704630  91.6505910
 105.1263370  14.9052700  92.8012180 108.9317040  20.6697790  96.1885050
 108.5560640  19.9025720  95.7566340 108.2020160  21.0520490  96.6759980
  93.5212800  21.3484930 102.8094100  93.8885840  21.2612330 103.6890120
  92.9523620  20.5851480 102.7100960  91.6974950  18.1731290  94.2116090
  90.7939030  18.4361490  94.0367750  92.1815570  18.4442460  93.4316050
 108.2068000  18.8955280  99.4892290 108.7305480  18.4017930  98.8582460
 108.7927420  19.0305640 100.2339860 108.3857720  18.9795150 103.0111840
 107.4360430  18.9458690 103.1256830 108.5670730  19.8895260 102.7761610
  94.2402160  17.2296830  92.1210470  94.9493860  16.8080050  91.6357750
  93.5242100  17.2972060  91.4893820  93.8876320  13.2836160  91.1613120
  94.6104450  13.8245100  91.4794340  94.1600840  13.0099580  90.2854660
 107.6967970  18.1528630  95.4284700 108.1927090  17.9199500  96.2133580
 107.4984040  17.3140470  95.0122340  93.5768510  12.5342350 101.0635740
  94.2244700  11.9839730 100.6230900  93.9970350  12.7885500 101.8851550
 109.1255130  16.7889580  97.9622380 109.0154410  16.6345620  98.9004650
 109.8862720  16.2610520  97.7197790 107.4720850  12.7283710 104.4205380
 108.1093070  13.3417850 104.7864570 107.6195740  12.7644370 103.4754610
 110.0145400  14.6197500  91.2028520 110.9394710  14.4878680  90.9946810
 109.9921190  14.6990320  92.1564970 110.0883890  15.3908160  93.8285230
 109.2935390  15.3253280  94.3578140 110.2927170  16.3258800  93.8170580
 107.0302310  29.4299710  97.8223620 107.6261380  29.1084280  97.1458040
 107.2880460  28.9571530  98.6136890  93.3300510  12.6898020 103.8061060
  92.9815330  13.1461840 104.5719240  92.9988210  11.7955150 103.8883490
  98.6370910  27.4177210 103.5723970  98.3962270  27.6851770 102.6854490
  99.5773550  27.5882940 103.6274830 109.8975070  29.4371590 104.3734610
 109.4033350  29.8340460 103.6561740 109.2888360  28.8120800 104.7671890
 104.2207930  12.1012100 103.2942060 103.3467770  12.4347210 103.0914990
 104.1118680  11.6285280 104.1193930 105.1279910  14.3082970 104.6783780
 104.7993270  13.4934730 104.2985510 106.0762210  14.2652780 104.5549470
 107.5814520  30.0795010 101.6521350 107.1217490  30.8310820 101.2779370
 106.9526980  29.3601480 101.5936150  94.4065140  26.1738250 104.0420070
  93.6799200  25.5543540 103.9746020  94.4674290  26.5678860 103.1718150
  98.0110240  28.3883250 100.8269480  98.5275260  27.7770610 100.3017740
  98.6607620  28.8912030 101.3180490 100.7505740  29.2791740 101.6538460
 101.0383550  29.0246040 100.7771470 101.2628960  28.7269100 102.2444030
 101.9682750  13.0181940 102.2334970 101.1854540  13.4927440 102.5131730
 101.6745680  12.1136770 102.1248150 106.5203820  13.7205040 100.2784060
 106.9611910  13.6650140  99.4305660 106.2511410  14.6363050 100.3494240
 108.3842390  13.3520280  98.2892880 108.3230790  12.4081500  98.1423900
 109.1634420  13.4600370  98.8346340  92.6895140  29.4912640  97.2516830
  92.5217180  28.8583320  97.9498720  91.8229650  29.6972040  96.9011020
  93.3123160  13.3229420  94.7548690  94.0702520  13.4358300  94.1812720
  92.8500330  14.1598620  94.7092120  99.8536970  15.4368690  97.7451000
  99.0411480  15.0625580  97.4046880 100.3578610  14.6813770  98.0472190
 104.3561950  12.1011140  98.9834070 104.9591320  12.6731350  99.4582590
 103.6154940  12.6650580  98.7607970 107.4996550  12.5032700  94.2574350
 107.6947180  13.4016150  94.5241780 106.7126420  12.2719780  94.7507300
  94.2957840  28.1845870  94.6966970  93.7705460  28.5653900  93.9928930
  94.2202420  28.8096640  95.4176680  95.6848310  13.8493470  93.2950660
  96.2141070  13.0623270  93.1658610  96.3176630  14.5284660  93.5286190
  97.8786150  13.5868610  96.3496050  97.2488890  12.8855920  96.5166180
  97.3391290  14.3472740  96.1329210 109.0523160  29.7433410  96.0180910
 109.2275350  29.0571150  95.3741830 108.3544730  30.2680460  95.6257580
  96.8950810  30.1328250  93.5716220  97.6269630  29.8487530  93.0240110
  97.1544480  29.8941530  94.4615600  96.0565600  26.2492980  93.5762550
  95.4274480  26.7178080  94.1248380  96.1713430  25.4042200  94.0108740
 103.5115320  20.2998640  79.7263750 103.4309370  19.3853250  79.4555460
 103.0979740  20.7965710  79.0203460 101.6433360  22.0777660  81.6073020
 100.8675460  21.5978100  81.8971590 102.2946290  21.3983310  81.4329180
  95.6599190  22.3897470  82.4848780  94.8284070  22.1346180  82.8845290
  96.2680170  22.4608240  83.2206700 105.6640790  26.4837850  80.3872150
 105.2022320  25.7125090  80.7159320 106.4766340  26.5103920  80.8924600
  95.6400450  26.4237560  82.6806800  95.9428490  25.5335300  82.5017020
  96.3844040  26.9807780  82.4529050  94.0691140  17.3499360  76.2691170
  93.1807840  17.6915330  76.1671050  94.3532330  17.1499680  75.3772000
  92.0324150  19.9505010  82.1530870  92.6040260  19.1827210  82.1534510
  92.0325690  20.2493770  81.2437480 101.8904100  28.7695860  80.0076140
 101.2715540  29.2253360  79.4370580 102.7455880  28.9247320  79.6065840
 101.0842350  24.7534850  81.6143180 101.0150630  23.8124790  81.4532310
 101.8462210  24.8436260  82.1865750  93.2749020  15.3589370  83.9399800
  93.0951860  14.4615120  84.2202560  92.8729100  15.9061240  84.6146750
 102.1147520  17.5605230  81.8412110 102.4912340  16.6877110  81.7285780
 102.0167030  17.8963930  80.9502550  96.2452530  15.9330860  77.3029550
  96.3519280  16.8334590  77.6098310  95.3344890  15.8848830  77.0124200
 105.8971640  15.0555670  78.7740450 106.7181260  14.5652240  78.8165930
 105.9305720  15.6453330  79.5272290  93.8935690  17.8549870  82.5482140
  94.5745800  18.1188240  83.1669540  93.5783740  17.0150740  82.8820150
  98.0860260  18.9017230  81.6354730  98.5938480  19.3998200  82.2759750
  98.6173500  18.1252430  81.4594090 110.1871190  17.0722420  85.3384080
 109.4823360  17.4604130  84.8199190 110.4529110  17.7672710  85.9405010
  96.3696360  13.5415790  85.9018150  96.3714800  14.0588180  85.0964050
  95.5400670  13.0645970  85.8788080 102.7567450  23.6535100  77.4008050
 102.1384720  24.1184550  76.8370770 103.2690700  24.3462580  77.8177560
  97.6199210  23.1810970  84.0791650  97.2868590  23.8079890  84.7212720
  97.7965890  23.7072850  83.2993320 106.1333120  16.9956050  81.5467990
 105.4288690  17.2840940  82.1271100 106.4945280  17.8056160  81.1867550
  96.0511690  15.2525750  83.9088600  96.3928500  16.0967800  83.6142470
  95.1127500  15.4009490  84.0253940  96.8318310  25.1491770  85.8940830
  97.4492310  25.8242850  85.6125280  95.9711430  25.5579750  85.8028330
  92.1250650  24.3391630  74.7747680  91.7478630  24.8278730  74.0432580
  92.3823720  25.0116910  75.4054210 107.7495900  26.6131180  83.8095470
 107.0659420  27.2830290  83.8012140 108.2890190  26.8111830  83.0440330
 109.2020040  16.4410840  81.9377200 108.2544950  16.4749820  82.0692630
 109.5270030  17.2549790  82.3226560  99.7339580  12.7408020  80.2333190
 100.0414560  12.1854910  79.5168690  98.8040280  12.8752480  80.0506180
 105.2854640  28.4575310  82.5240650 105.2981800  28.0537600  81.6562910
 104.7329860  29.2322600  82.4202080 106.5800060  25.1791530  77.6130820
 106.4696390  24.2365860  77.7380240 106.5768310  25.5407170  78.4993580
 104.6840080  23.3605150  83.8523260 105.1008870  23.1465260  83.0176720
 105.4079900  23.6177940  84.4231880 102.1220340  20.8056850  76.9693310
 101.1949620  20.7394230  77.1981780 102.2745160  21.7436980  76.8548550
 102.1089420  17.0773850  73.9660470 101.1693090  17.2387810  74.0512930
 102.4272680  17.7959530  73.4196460 108.6302180  21.7592370  83.9439500
 107.8020810  21.8285460  83.4689630 109.2252660  22.3446680  83.4755330
 106.1517630  22.3677150  77.4728560 105.5330050  22.0296700  76.8254860
 106.1342080  21.7236910  78.1807750 105.5944190  18.5461690  84.8894370
 105.1815370  19.3715400  85.1434360 104.8620140  17.9606730  84.6970730
  97.7276980  21.3321590  79.7513040  97.3233980  20.6198840  79.2558940
  97.8140100  20.9874830  80.6401080  98.1958680  25.0189150  81.9152250
  97.8986970  24.4134620  81.2360030  99.1458500  25.0566460  81.8041610
  96.4405600  18.1064800  83.5312080  96.9920190  18.2160140  82.7565330
  96.9549110  18.4802400  84.2467310 106.2844290  28.5921020  85.5775350
 105.8074850  29.3993210  85.3847960 105.6006080  27.9399350  85.7301560
  97.2877110  24.7570840  88.5660050  96.3905640  24.9810810  88.8133450
  97.3129980  24.8805780  87.6171450 104.3282330  21.6063960  74.4801310
 104.7675610  20.7686390  74.3339130 105.0410750  22.2393360  74.5665450
  96.1148330  21.6284160  87.1417420  95.9756100  22.5006960  87.5104820
  95.2329690  21.2856970  86.9965360 102.4377710  26.5460030  78.4482550
 102.8773620  27.2884360  78.0337940 102.3764600  26.7886600  79.3721510
  97.9128680  27.5705860  89.3502570  97.8844110  27.9748810  88.4831000
  97.7493650  26.6416220  89.1874170 107.9099470  12.8606770  72.7942350
 107.5972130  12.9533600  73.6941420 108.6711940  13.4387800  72.7439780
  94.4281610  20.2266570  77.2519690  94.3079210  20.9528660  76.6400960
  94.1182500  19.4569480  76.7747600 109.8643500  28.3532960  90.6466740
 110.3403220  28.8315850  91.3255820 110.4850660  28.2850450  89.9212240
  92.0666980  23.3981710  83.0588330  92.1447400  23.5330480  82.1144050
  92.6808660  22.6897600  83.2516450  93.3114610  25.0981900  79.4694510
  92.9042690  25.2396490  78.6148110  94.2027620  24.8142060  79.2665720
 109.2676750  25.5445810  87.8066750 109.3939810  25.3057690  86.8883930
 109.3098130  24.7130350  88.2788830 103.1293490  29.2473810  86.3761560
 103.6438160  29.1581820  87.1783990 102.2862570  29.5933510  86.6689470
 105.1047890  29.5329150  75.8045560 104.9449030  29.2432090  76.7027390
 104.9394600  28.7569280  75.2690790  97.5836270  29.3127680  77.5817180
  97.4078750  28.3963220  77.3684980  96.7292010  29.6714970  77.8214980
 104.8074020  27.0416710  74.3643560 104.1139180  27.0394000  73.7045840
 105.5496880  26.6176030  73.9337730 104.3723950  28.6679420  78.4392050
 104.8280900  27.8868800  78.7530670 104.7116470  29.3786240  78.9833230
 109.1200760  17.5978270  88.7716490 108.5045030  18.1057940  88.2431950
 108.7997180  16.6976600  88.7142430  92.1226500  24.4395880  85.5982790
  92.2857540  23.9701240  84.7802160  92.5878950  23.9319440  86.2631630
  96.8945270  13.5701640  80.6343360  96.4513420  14.3511180  80.3027880
  97.4530260  13.8931530  81.3414300 101.1815080  16.4370160  86.2378680
 100.7194450  16.6453180  87.0498620 100.7793190  15.6229510  85.9349350
 106.1819590  17.6579110  87.3675340 105.3313180  17.3584860  87.6884410
 106.0221380  17.9021120  86.4559160 103.2769300  19.1580860  89.4674130
 103.6022710  18.3244610  89.1276360 104.0649630  19.6809380  89.6152460
 100.0104090  13.1912340  75.5149190  99.3858270  13.1872210  76.2402500
  99.9234210  12.3243300  75.1185160  98.9321170  14.1148970  82.4932960
  99.2293500  15.0211800  82.4124980  99.4806730  13.6267750  81.8792530
  96.6859490  18.6935210  78.3624610  96.4600410  18.4772380  79.2671230
  95.9052020  19.1263670  78.0170580 103.9157250  18.6998580  76.9615260
 103.3166140  19.4234380  76.7778880 104.4636860  18.6375360  76.1791710
  99.1258700  19.5920790  89.0284880  99.0302300  18.6515520  88.8785280
  99.9690680  19.8135860  88.6332950 102.5222120  17.3362120  78.9918540
 102.9151690  17.6534320  78.1787230 102.8838970  16.4574000  79.1063060
  94.2569240  16.0034460  87.1818660  93.8632630  16.8509670  87.3891440
  93.5687640  15.3660830  87.3727300 100.8314290  16.0869430  90.2515400
 100.1412610  15.8941630  90.8861490 101.5746590  16.3704070  90.7839700
  91.5586290  13.9262920  81.2148740  91.2699340  14.4965780  81.9273720
  92.3032050  13.4467370  81.5779970  91.7456520  17.8683040  72.4251460
  91.6631190  18.8113800  72.5666450  91.3939580  17.7257950  71.5463810
 103.1077260  19.9267870  83.0869320 102.3758380  20.4354680  83.4359420
 102.7101600  19.1097850  82.7858100  99.5454650  16.6022070  81.4921810
  99.5490710  16.1612020  80.6426350 100.4405770  16.9239400  81.5993630
  95.3957030  16.4848560  80.4516020  95.0557080  16.9623790  81.2083070
  94.6334350  16.0313680  80.0917120  99.6074800  17.6034150  74.4828570
  99.7287620  17.5620630  75.4314390  99.2223310  18.4658300  74.3275300
 103.5703170  15.3801550  82.4992260 103.5875910  15.8310200  83.3434110
 103.3218750  14.4807190  82.7125700  98.6196300  19.9135290  73.8811870
  98.0513200  19.4653540  73.2547780  99.3285300  20.2728070  73.3477020
 106.9973920  12.7933730  88.3378640 107.3219690  12.0623390  88.8636620
 107.0330430  12.4747370  87.4359630  93.6965480  23.8147310  87.7578600
  93.3120270  23.1740980  88.3561560  94.0077670  24.5183430  88.3273330
  99.8462620  20.6623850  83.2387220 100.2132750  20.1882420  83.9848560
  99.6567680  21.5365420  83.5795560  92.7103110  15.4067540  79.3680690
  92.4250030  15.0423210  80.2059310  92.6481970  14.6748000  78.7543830
  97.6361990  19.7032490  85.5571430  97.3319060  20.5824470  85.7821790
  98.5908450  19.7632280  85.5928870  96.1643780  23.9093480  76.1538280
  95.3906040  23.3691100  75.9937000  96.8938410  23.3900090  75.8156040
 106.9231760  22.9058840  81.9464670 107.6430880  23.4014130  81.5560780
 106.7213580  22.2276730  81.3018540 102.3841700  14.2996800  76.0894060
 101.5706310  13.8009970  76.0139370 102.1903650  15.1395050  75.6730410
 102.3050560  22.9767900  87.8333670 102.2387870  22.0563570  87.5791260
 101.6755700  23.0743340  88.5478310 105.0990090  18.6716450  74.3856220
 105.9869710  18.9833680  74.2107560 105.0695180  17.7988700  73.9936800
  96.2081180  23.5773860  79.7917090  96.7259850  22.7742120  79.7373980
  95.7565200  23.5153000  80.6333920 101.0950680  24.8440140  75.0644390
 101.4366380  25.5882370  74.5687710 100.2663390  25.1571260  75.4269220
  93.6925720  20.5435230  86.7042790  93.3340660  21.2089080  87.2916130
  93.3980280  19.7118780  87.0755410  96.8938840  21.0019470  89.5882340
  96.5938980  21.1476650  88.6910160  97.6650080  20.4424760  89.4955730
 102.2367290  25.7988470  87.5837470 102.2511830  24.8669430  87.3656380
 101.5292390  25.8848230  88.2227240 107.3704360  19.9828290  73.8536080
 107.2868080  20.4142510  73.0032520 108.0898550  20.4426640  74.2862900
 108.4478500  22.4395810  86.9306050 107.7226690  23.0324590  86.7335440
 108.9753960  22.4319350  86.1319420 108.3991610  26.8370550  76.5818210
 107.7567770  26.1826170  76.8561930 108.0122270  27.2425640  75.8058880
 103.9778090  24.1655980  80.4289900 104.3301910  23.5684110  79.7691270
 103.0940420  23.8400210  80.5998150 100.0641370  24.9253670  77.8360310
 100.7512500  25.4722880  78.2167900  99.2773790  25.4694400  77.8709920
  92.2033770  20.5426490  73.3277390  93.0728620  20.8251290  73.6113310
  91.7124090  21.3562360  73.2126200  99.3668580  21.9299700  77.4485670
  99.8231360  22.7404950  77.6745860  99.0156790  21.6122840  78.2804160
 101.6701190  27.4406040  84.6777970 102.3143410  27.6465420  85.3551390
 102.0330630  26.6794440  84.2248820  95.2680360  12.2737350  77.9208190
  95.1394990  12.2655250  78.8693110  94.4442380  12.6120440  77.5699200
 102.9433270  25.4438390  83.3955420 103.5855500  24.7431550  83.5087590
 103.4682620  26.2236830  83.2152310 106.7888990  25.7287010  73.1194560
 106.5626570  25.0117450  73.7119200 106.3985190  25.4799450  72.2816310
 104.7170890  26.2433290  86.5991480 105.0527130  26.8299980  87.2769400
 103.7971230  26.1126000  86.8289270  92.5705020  29.7553870  73.8939020
  92.9302660  30.3543210  73.2396290  92.4297360  30.3013760  74.6674050
  92.2674290  14.0328470  87.3814890  91.5532810  14.2325390  87.9867500
  92.6869330  13.2568040  87.7529690 106.3705240  23.6458950  74.7808720
 106.0826940  24.1071640  75.5686600 107.1657410  23.1856720  75.0492940
  92.5546880  28.0208730  88.3681420  92.6638000  27.0803470  88.2276810
  91.9027440  28.2863480  87.7195150 100.5459470  26.2924620  89.7679540
 100.2256340  25.5733860  90.3125230  99.8717830  26.9679690  89.8415600
  98.5873640  27.1385070  74.7112690  98.5783740  27.8714760  74.0957200
  97.6672000  26.8916650  74.8039650  94.1880280  22.3599960  75.4559450
  93.5808230  23.0998860  75.4654750  94.6629630  22.4499320  74.6297650
 103.7613070  16.5250780  85.1316340 104.1293890  15.7045990  85.4595910
 102.9011270  16.5852670  85.5471990 107.1275100  15.4807720  75.9403900
 106.4988260  15.5853390  75.2262130 106.6327020  15.7004500  76.7297780
 101.5733240  27.2013310  73.3737880 101.6745220  26.9977300  72.4439860
 100.6734980  26.9471590  73.5785660  99.0959130  17.7593670  77.3561780
  98.3875280  18.2280010  77.7975390  99.3803610  17.1015680  77.9906970
 100.7215060  19.1790370  85.3554310 101.2200310  19.6536190  86.0206160
 100.8638010  18.2553890  85.5624340 103.1274560  14.4844330  78.7957570
 103.0042340  14.5030460  77.8467080 104.0759120  14.5323270  78.9155970
 100.2151350  29.7199630  78.0685550 100.4692850  29.6821020  77.1464920
  99.2663830  29.5932960  78.0613800  97.2994150  16.0678750  74.7312490
  98.1484680  16.5048900  74.6652680  96.9325420  16.3799010  75.5584550
 107.9281920  15.3958330  86.1982700 107.4255520  16.1363730  86.5376510
 108.7438580  15.7842330  85.8819490 106.2203930  20.6391510  79.6444060
 105.2794070  20.6541740  79.8191750 106.5348000  19.8527470  80.0904360
  96.1985570  22.3211110  73.2048020  96.9648840  22.2092470  73.7673450
  96.2760260  21.6249080  72.5524790  94.8932330  19.7536180  73.8880910
  94.9735920  18.8063690  73.9998310  95.7852080  20.0843060  73.9941570
 108.2229510  27.8100360  81.3198320 108.3476930  28.6331530  81.7922130
 109.0895070  27.5991090  80.9722470  95.6947040  29.9031570  80.9915450
  96.4309520  29.3547030  81.2624020  96.0787960  30.7687580  80.8521440
  92.5792520  25.9705140  76.8656960  91.6532300  26.2126280  76.8562370
  93.0448950  26.7979400  76.7441710  94.7005320  29.0877640  90.1801030
  95.5018050  29.4089690  90.5936430  94.1857140  28.7273220  90.9020940
  98.8049350  29.0761880  72.8141020  99.5977960  29.3650710  72.3622810
  98.2853700  28.6454050  72.1353500 103.5369950  25.1957510  90.1276440
 102.9308110  25.2189110  89.3872190 103.2324060  24.4640550  90.6643690
 104.9670320  28.9237800  88.7385850 105.9192070  28.8395820  88.6886090
 104.8198540  29.5879510  89.4119640 107.8579520  28.3032010  74.2377760
 107.5721030  27.8897150  73.4231940 107.6599070  29.2319720  74.1178280
  92.4203130  21.5751100  89.1237080  92.9242150  20.9958380  89.6953310
  91.6810550  21.8591330  89.6613450  99.3226750  24.2965290  72.6783370
  99.2177390  23.6817640  73.4044750  99.1550970  23.7731180  71.8946380
  99.4741070  22.9822090  88.6572600  98.7086740  23.5507090  88.5727270
  99.6557030  22.6898300  87.7640830 102.5629480  23.3585320  73.2825360
 102.0139580  23.8054620  73.9268100 103.1848740  22.8534570  73.8063030
 106.6164420  24.7127420  89.2147620 107.3573890  25.0503180  88.7115080
 105.8537100  24.8819480  88.6617390  94.4526210  19.7180690  90.0187150
  94.4931550  19.4194560  90.9272380  95.3071710  20.1188300  89.8594670
  98.2304600  22.3176240  75.1790660  98.6521020  22.1516110  76.0222050
  98.3555440  21.5076470  74.6845800  96.3932020  18.2972790  87.9861640
  95.8628480  17.8063740  87.3584980  97.0620090  18.7256990  87.4519570
 100.7432240  21.3413850  72.4267760 101.2637900  20.6262870  72.0608910
 101.3900640  21.9799720  72.7268270 105.2910080  22.7642250  87.7502830
 105.7051100  22.9187330  88.5993250 104.3561080  22.8897470  87.9128610
 105.7632250  20.1038410  89.7541980 106.3453020  19.3490730  89.6662460
 105.9394020  20.6345850  88.9773460  96.8804320  15.2635160  88.0658930
  96.7861190  14.6455910  87.3409800  96.3001710  15.9901450  87.8388840
  99.6465760  13.8208400  85.0986320  99.1983060  13.8432660  84.2531870
  99.0130960  13.4227420  85.6956620 100.0525310  22.7162730  85.7198760
 100.4713420  23.5595460  85.5475000  99.1333940  22.8534770  85.4905540
 102.3889210  20.4478910  87.1036600 102.5085420  19.8520050  87.8431440
 103.2483210  20.4848600  86.6837900 104.7277110  21.0016100  85.6799110
 104.2012330  21.5258720  85.0764250 105.0708450  21.6343490  86.3108840
  97.1263500  18.3909470  72.1248820  96.9252560  17.5276830  72.4862160
  96.9555550  18.3042830  71.1870420  97.9032730  29.0215740  86.8356490
  97.3653820  29.7461800  86.5165190  98.1566690  28.5446080  86.0453830
  99.1557980  16.9900260  88.3612420  99.7457670  16.6816110  89.0490240
  98.3378220  16.5180010  88.5172320 103.9751410  16.6066070  88.5945440
 103.2866930  15.9447610  88.5295430 104.6957430  16.1604340  89.0393900
 104.6051810  13.2017700  74.6535700 104.8854100  12.3585600  75.0095120
 103.8317540  13.4340810  75.1674450  95.9246300  15.4910090  72.1126700
  96.2272200  15.4977520  71.2045850  96.6640890  15.1407950  72.6094360
 100.7594940  30.2566950  87.0943140 100.6853640  31.1602090  87.4015510
  99.8573780  29.9378850  87.0665210  99.1431230  14.4344710  73.0982900
  98.7953230  13.7568700  72.5185350  99.3444000  13.9734220  73.9126290
 101.3080270  29.4225460  74.7169500 102.2031060  29.7610430  74.7388260
 101.3397900  28.7004870  74.0893780  94.9476430  24.7952510  72.9456500
  95.3851300  25.3382180  73.6014080  95.4324160  23.9699460  72.9552840
  92.1622230  27.5841540  80.3976760  92.4925240  26.7162600  80.1655400
  92.5913230  27.7900060  81.2281720  96.7584150  25.9150550  78.0578730
  96.4579690  25.7915520  78.9582640  96.6521640  25.0559140  77.6494460
  92.6512440  28.4512130  83.1358390  92.2143430  28.6312930  83.9682540
  93.2190120  29.2086750  82.9940110 108.2874620  27.9529130  87.4235700
 107.6876610  28.0121690  86.6799620 108.4168520  27.0134110  87.5532550
 109.5276070  25.6946950  72.7605410 108.6969030  25.7623600  73.2312640
 109.7047900  26.5851070  72.4572270 108.9832530  22.4394430  75.2639610
 109.7451440  23.0091080  75.3699300 108.9986900  21.8721630  76.0347920
  92.4836870  20.9632360  79.4947270  91.8285710  20.6944000  78.8506970
  93.3214820  20.8536840  79.0449250 109.9892500  23.2944530  80.1081540
 110.3601330  22.5111850  79.7017510 110.6294430  23.9833630  79.9298840
 106.9726260  24.6781110  85.5211860 106.1586100  25.1078270  85.7837650
 107.3800460  25.2899520  84.9080910 109.0351700  22.7328800  72.4212130
 109.3100540  23.6407680  72.2931350 108.8462440  22.6691330  73.3574120
 105.4327310  15.7573650  73.7165760 105.8512190  15.5704630  72.8762420
 105.1263370  14.9052700  74.0268690 108.9317040  20.6697790  77.4141560
 108.5560640  19.9025720  76.9822850 108.2020160  21.0520490  77.9016490
  93.5212800  21.3484930  84.0350610  93.8885840  21.2612330  84.9146630
  92.9523620  20.5851480  83.9357470 108.3216660  19.8169310  87.0481080
 108.0902750  19.5882060  86.1479030 108.5821210  20.7368860  87.0025970
  93.0728800  18.2594020  87.9409030  92.1784850  18.2260780  88.2802740
  93.6126350  18.4580810  88.7060280 106.7604730  15.0425740  89.8260780
 107.6374910  15.0509140  90.2094780 106.7725570  14.3056580  89.2153130
  91.6974950  18.1731290  75.4372600  90.7939030  18.4361490  75.2624260
  92.1815570  18.4442460  74.6572560 108.2068000  18.8955280  80.7148800
 108.7305480  18.4017930  80.0838970 108.7927420  19.0305640  81.4596370
 108.3857720  18.9795150  84.2368350 107.4360430  18.9458690  84.3513340
 108.5670730  19.8895260  84.0018120  94.2402160  17.2296830  73.3466980
  94.9493860  16.8080050  72.8614260  93.5242100  17.2972060  72.7150330
  93.8876320  13.2836160  72.3869630  94.6104450  13.8245100  72.7050850
  94.1600840  13.0099580  71.5111170 107.6967970  18.1528630  76.6541210
 108.1927090  17.9199500  77.4390090 107.4984040  17.3140470  76.2378850
  93.5768510  12.5342350  82.2892250  94.2244700  11.9839730  81.8487410
  93.9970350  12.7885500  83.1108060 109.1255130  16.7889580  79.1878890
 109.0154410  16.6345620  80.1261160 109.8862720  16.2610520  78.9454300
 107.4720850  12.7283710  85.6461890 108.1093070  13.3417850  86.0121080
 107.6195740  12.7644370  84.7011120 110.0145400  14.6197500  72.4285030
 110.9394710  14.4878680  72.2203320 109.9921190  14.6990320  73.3821480
 110.0883890  15.3908160  75.0541740 109.2935390  15.3253280  75.5834650
 110.2927170  16.3258800  75.0427090 107.0302310  29.4299710  79.0480130
 107.6261380  29.1084280  78.3714550 107.2880460  28.9571530  79.8393400
  93.3300510  12.6898020  85.0317570  92.9815330  13.1461840  85.7975750
  92.9988210  11.7955150  85.1140000  94.9364880  25.8617620  89.1970760
  94.8934510  25.4910530  90.0785220  95.0675890  26.7995190  89.3372580
  98.6370910  27.4177210  84.7980480  98.3962270  27.6851770  83.9111000
  99.5773550  27.5882940  84.8531340 100.8425330  13.8809900  88.5536990
 100.7814220  14.4731730  89.3032400 101.7825710  13.7735860  88.4087250
 103.4799890  13.5379960  88.1929280 104.0940300  13.8559250  87.5310360
 104.0249450  13.0528550  88.8125140 109.8975070  29.4371590  85.5991120
 109.4033350  29.8340460  84.8818250 109.2888360  28.8120800  85.9928400
  94.0021150  12.2174220  88.3068340  94.5504140  12.0362270  87.5434450
  94.0676460  11.4268330  88.8424650  94.7752910  28.8079870  86.3168540
  94.1813230  28.6764570  87.0558580  94.7676750  27.9718010  85.8510640
 104.2207930  12.1012100  84.5198570 103.3467770  12.4347210  84.3171500
 104.1118680  11.6285280  85.3450440 105.1279910  14.3082970  85.9040290
 104.7993270  13.4934730  85.5242020 106.0762210  14.2652780  85.7805980
 107.5814520  30.0795010  82.8777860 107.1217490  30.8310820  82.5035880
 106.9526980  29.3601480  82.8192660  94.4065140  26.1738250  85.2676580
  93.6799200  25.5543540  85.2002530  94.4674290  26.5678860  84.3974660
  98.0110240  28.3883250  82.0525990  98.5275260  27.7770610  81.5274250
  98.6607620  28.8912030  82.5437000 100.7505740  29.2791740  82.8794970
 101.0383550  29.0246040  82.0027980 101.2628960  28.7269100  83.4700540
 101.9682750  13.0181940  83.4591480 101.1854540  13.4927440  83.7388240
 101.6745680  12.1136770  83.3504660 106.5203820  13.7205040  81.5040570
 106.9611910  13.6650140  80.6562170 106.2511410  14.6363050  81.5750750
 108.3842390  13.3520280  79.5149390 108.3230790  12.4081500  79.3680410
 109.1634420  13.4600370  80.0602850  92.6895140  29.4912640  78.4773340
  92.5217180  28.8583320  79.1755230  91.8229650  29.6972040  78.1267530
  93.3123160  13.3229420  75.9805200  94.0702520  13.4358300  75.4069230
  92.8500330  14.1598620  75.9348630  99.8536970  15.4368690  78.9707510
  99.0411480  15.0625580  78.6303390 100.3578610  14.6813770  79.2728700
 104.3561950  12.1011140  80.2090580 104.9591320  12.6731350  80.6839100
 103.6154940  12.6650580  79.9864480 107.4996550  12.5032700  75.4830860
 107.6947180  13.4016150  75.7498290 106.7126420  12.2719780  75.9763810
  94.2957840  28.1845870  75.9223480  93.7705460  28.5653900  75.2185440
  94.2202420  28.8096640  76.6433190  95.6848310  13.8493470  74.5207170
  96.2141070  13.0623270  74.3915120  96.3176630  14.5284660  74.7542700
  97.8786150  13.5868610  77.5752560  97.2488890  12.8855920  77.7422690
  97.3391290  14.3472740  77.3585720 100.8178100  30.2007840  90.2463170
 101.7445410  29.9652110  90.2899130 100.8028530  31.0279840  89.7649200
 109.0523160  29.7433410  77.2437420 109.2275350  29.0571150  76.5998340
 108.3544730  30.2680460  76.8514090  98.0041710  12.8652590  90.0105050
  97.7225980  13.3686190  89.2465870  98.3861410  12.0674340  89.6447180
  96.8950810  30.1328250  74.7972730  97.6269630  29.8487530  74.2496620
  97.1544480  29.8941530  75.6872110  96.0565600  26.2492980  74.8019060
  95.4274480  26.7178080  75.3504890  96.1713430  25.4042200  75.2365250
 104.6057170  12.2806170  90.5885520 104.4922620  12.6000780  91.4837040
 105.4226910  12.6818680  90.2922800 107.3855660  29.4277700  90.0704210
 108.1780980  28.9326930  89.8630170 107.6788810  30.1067840  90.6779820
 103.5115320  20.2998640  60.9520260 103.4309370  19.3853250  60.6811970
 103.0979740  20.7965710  60.2459970 101.6433360  22.0777660  62.8329530
 100.8675460  21.5978100  63.1228100 102.2946290  21.3983310  62.6585690
  95.6599190  22.3897470  63.7105290  94.8284070  22.1346180  64.1101800
  96.2680170  22.4608240  64.4463210 105.6640790  26.4837850  61.6128660
 105.2022320  25.7125090  61.9415830 106.4766340  26.5103920  62.1181110
  95.6400450  26.4237560  63.9063310  95.9428490  25.5335300  63.7273530
  96.3844040  26.9807780  63.6785560  94.0691140  17.3499360  57.4947680
  93.1807840  17.6915330  57.3927560  94.3532330  17.1499680  56.6028510
  92.0324150  19.9505010  63.3787380  92.6040260  19.1827210  63.3791020
  92.0325690  20.2493770  62.4693990 101.8904100  28.7695860  61.2332650
 101.2715540  29.2253360  60.6627090 102.7455880  28.9247320  60.8322350
 101.0842350  24.7534850  62.8399690 101.0150630  23.8124790  62.6788820
 101.8462210  24.8436260  63.4122260  93.2749020  15.3589370  65.1656310
  93.0951860  14.4615120  65.4459070  92.8729100  15.9061240  65.8403260
 102.1147520  17.5605230  63.0668620 102.4912340  16.6877110  62.9542290
 102.0167030  17.8963930  62.1759060  96.2452530  15.9330860  58.5286060
  96.3519280  16.8334590  58.8354820  95.3344890  15.8848830  58.2380710
 105.8971640  15.0555670  59.9996960 106.7181260  14.5652240  60.0422440
 105.9305720  15.6453330  60.7528800  93.8935690  17.8549870  63.7738650
  94.5745800  18.1188240  64.3926050  93.5783740  17.0150740  64.1076660
  98.0860260  18.9017230  62.8611240  98.5938480  19.3998200  63.5016260
  98.6173500  18.1252430  62.6850600 110.1871190  17.0722420  66.5640590
 109.4823360  17.4604130  66.0455700 110.4529110  17.7672710  67.1661520
  96.3696360  13.5415790  67.1274660  96.3714800  14.0588180  66.3220560
  95.5400670  13.0645970  67.1044590 102.7567450  23.6535100  58.6264560
 102.1384720  24.1184550  58.0627280 103.2690700  24.3462580  59.0434070
  97.6199210  23.1810970  65.3048160  97.2868590  23.8079890  65.9469230
  97.7965890  23.7072850  64.5249830 106.1333120  16.9956050  62.7724500
 105.4288690  17.2840940  63.3527610 106.4945280  17.8056160  62.4124060
  96.0511690  15.2525750  65.1345110  96.3928500  16.0967800  64.8398980
  95.1127500  15.4009490  65.2510450  96.8318310  25.1491770  67.1197340
  97.4492310  25.8242850  66.8381790  95.9711430  25.5579750  67.0284840
  92.1250650  24.3391630  56.0004190  91.7478630  24.8278730  55.2689090
  92.3823720  25.0116910  56.6310720 107.7495900  26.6131180  65.0351980
 107.0659420  27.2830290  65.0268650 108.2890190  26.8111830  64.2696840
 109.2020040  16.4410840  63.1633710 108.2544950  16.4749820  63.2949140
 109.5270030  17.2549790  63.5483070  99.7339580  12.7408020  61.4589700
 100.0414560  12.1854910  60.7425200  98.8040280  12.8752480  61.2762690
 105.2854640  28.4575310  63.7497160 105.2981800  28.0537600  62.8819420
 104.7329860  29.2322600  63.6458590 106.5800060  25.1791530  58.8387330
 106.4696390  24.2365860  58.9636750 106.5768310  25.5407170  59.7250090
 104.6840080  23.3605150  65.0779770 105.1008870  23.1465260  64.2433230
 105.4079900  23.6177940  65.6488390 102.1220340  20.8056850  58.1949820
 101.1949620  20.7394230  58.4238290 102.2745160  21.7436980  58.0805060
 102.1089420  17.0773850  55.1916980 101.1693090  17.2387810  55.2769440
 102.4272680  17.7959530  54.6452970 108.6302180  21.7592370  65.1696010
 107.8020810  21.8285460  64.6946140 109.2252660  22.3446680  64.7011840
 106.1517630  22.3677150  58.6985070 105.5330050  22.0296700  58.0511370
 106.1342080  21.7236910  59.4064260 105.5944190  18.5461690  66.1150880
 105.1815370  19.3715400  66.3690870 104.8620140  17.9606730  65.9227240
  97.7276980  21.3321590  60.9769550  97.3233980  20.6198840  60.4815450
  97.8140100  20.9874830  61.8657590  98.1958680  25.0189150  63.1408760
  97.8986970  24.4134620  62.4616540  99.1458500  25.0566460  63.0298120
  96.4405600  18.1064800  64.7568590  96.9920190  18.2160140  63.9821840
  96.9549110  18.4802400  65.4723820 106.2844290  28.5921020  66.8031860
 105.8074850  29.3993210  66.6104470 105.6006080  27.9399350  66.9558070
  97.2877110  24.7570840  69.7916560  96.3905640  24.9810810  70.0389960
  97.3129980  24.8805780  68.8427960 104.3282330  21.6063960  55.7057820
 104.7675610  20.7686390  55.5595640 105.0410750  22.2393360  55.7921960
  96.1148330  21.6284160  68.3673930  95.9756100  22.5006960  68.7361330
  95.2329690  21.2856970  68.2221870 102.4377710  26.5460030  59.6739060
 102.8773620  27.2884360  59.2594450 102.3764600  26.7886600  60.5978020
  97.9128680  27.5705860  70.5759080  97.8844110  27.9748810  69.7087510
  97.7493650  26.6416220  70.4130680 107.9099470  12.8606770  54.0198860
 107.5972130  12.9533600  54.9197930 108.6711940  13.4387800  53.9696290
  94.4281610  20.2266570  58.4776200  94.3079210  20.9528660  57.8657470
  94.1182500  19.4569480  58.0004110 109.8643500  28.3532960  71.8723250
 110.3403220  28.8315850  72.5512330 110.4850660  28.2850450  71.1468750
  92.0666980  23.3981710  64.2844840  92.1447400  23.5330480  63.3400560
  92.6808660  22.6897600  64.4772960  93.3114610  25.0981900  60.6951020
  92.9042690  25.2396490  59.8404620  94.2027620  24.8142060  60.4922230
 109.2676750  25.5445810  69.0323260 109.3939810  25.3057690  68.1140440
 109.3098130  24.7130350  69.5045340 103.1293490  29.2473810  67.6018070
 103.6438160  29.1581820  68.4040500 102.2862570  29.5933510  67.8945980
 105.1047890  29.5329150  57.0302070 104.9449030  29.2432090  57.9283900
 104.9394600  28.7569280  56.4947300  97.5836270  29.3127680  58.8073690
  97.4078750  28.3963220  58.5941490  96.7292010  29.6714970  59.0471490
 104.8074020  27.0416710  55.5900070 104.1139180  27.0394000  54.9302350
 105.5496880  26.6176030  55.1594240 104.3723950  28.6679420  59.6648560
 104.8280900  27.8868800  59.9787180 104.7116470  29.3786240  60.2089740
 109.1200760  17.5978270  69.9973000 108.5045030  18.1057940  69.4688460
 108.7997180  16.6976600  69.9398940  92.1226500  24.4395880  66.8239300
  92.2857540  23.9701240  66.0058670  92.5878950  23.9319440  67.4888140
  96.8945270  13.5701640  61.8599870  96.4513420  14.3511180  61.5284390
  97.4530260  13.8931530  62.5670810 101.1815080  16.4370160  67.4635190
 100.7194450  16.6453180  68.2755130 100.7793190  15.6229510  67.1605860
 106.1819590  17.6579110  68.5931850 105.3313180  17.3584860  68.9140920
 106.0221380  17.9021120  67.6815670 103.2769300  19.1580860  70.6930640
 103.6022710  18.3244610  70.3532870 104.0649630  19.6809380  70.8408970
 100.0104090  13.1912340  56.7405700  99.3858270  13.1872210  57.4659010
  99.9234210  12.3243300  56.3441670  98.9321170  14.1148970  63.7189470
  99.2293500  15.0211800  63.6381490  99.4806730  13.6267750  63.1049040
  96.6859490  18.6935210  59.5881120  96.4600410  18.4772380  60.4927740
  95.9052020  19.1263670  59.2427090 103.9157250  18.6998580  58.1871770
 103.3166140  19.4234380  58.0035390 104.4636860  18.6375360  57.4048220
  99.1258700  19.5920790  70.2541390  99.0302300  18.6515520  70.1041790
  99.9690680  19.8135860  69.8589460 102.5222120  17.3362120  60.2175050
 102.9151690  17.6534320  59.4043740 102.8838970  16.4574000  60.3319570
  94.2569240  16.0034460  68.4075170  93.8632630  16.8509670  68.6147950
  93.5687640  15.3660830  68.5983810 100.8314290  16.0869430  71.4771910
 100.1412610  15.8941630  72.1118000 101.5746590  16.3704070  72.0096210
  91.5586290  13.9262920  62.4405250  91.2699340  14.4965780  63.1530230
  92.3032050  13.4467370  62.8036480  91.7456520  17.8683040  53.6507970
  91.6631190  18.8113800  53.7922960  91.3939580  17.7257950  52.7720320
 103.1077260  19.9267870  64.3125830 102.3758380  20.4354680  64.6615930
 102.7101600  19.1097850  64.0114610  99.5454650  16.6022070  62.7178320
  99.5490710  16.1612020  61.8682860 100.4405770  16.9239400  62.8250140
  95.3957030  16.4848560  61.6772530  95.0557080  16.9623790  62.4339580
  94.6334350  16.0313680  61.3173630  99.6074800  17.6034150  55.7085080
  99.7287620  17.5620630  56.6570900  99.2223310  18.4658300  55.5531810
 103.5703170  15.3801550  63.7248770 103.5875910  15.8310200  64.5690620
 103.3218750  14.4807190  63.9382210  98.6196300  19.9135290  55.1068380
  98.0513200  19.4653540  54.4804290  99.3285300  20.2728070  54.5733530
 106.9973920  12.7933730  69.5635150 107.3219690  12.0623390  70.0893130
 107.0330430  12.4747370  68.6616140  93.6965480  23.8147310  68.9835110
  93.3120270  23.1740980  69.5818070  94.0077670  24.5183430  69.5529840
  99.8462620  20.6623850  64.4643730 100.2132750  20.1882420  65.2105070
  99.6567680  21.5365420  64.8052070  92.7103110  15.4067540  60.5937200
  92.4250030  15.0423210  61.4315820  92.6481970  14.6748000  59.9800340
  97.6361990  19.7032490  66.7827940  97.3319060  20.5824470  67.0078300
  98.5908450  19.7632280  66.8185380  96.1643780  23.9093480  57.3794790
  95.3906040  23.3691100  57.2193510  96.8938410  23.3900090  57.0412550
 106.9231760  22.9058840  63.1721180 107.6430880  23.4014130  62.7817290
 106.7213580  22.2276730  62.5275050 102.3841700  14.2996800  57.3150570
 101.5706310  13.8009970  57.2395880 102.1903650  15.1395050  56.8986920
 102.3050560  22.9767900  69.0590180 102.2387870  22.0563570  68.8047770
 101.6755700  23.0743340  69.7734820 105.0990090  18.6716450  55.6112730
 105.9869710  18.9833680  55.4364070 105.0695180  17.7988700  55.2193310
  96.2081180  23.5773860  61.0173600  96.7259850  22.7742120  60.9630490
  95.7565200  23.5153000  61.8590430 101.0950680  24.8440140  56.2900900
 101.4366380  25.5882370  55.7944220 100.2663390  25.1571260  56.6525730
  93.6925720  20.5435230  67.9299300  93.3340660  21.2089080  68.5172640
  93.3980280  19.7118780  68.3011920  96.8938840  21.0019470  70.8138850
  96.5938980  21.1476650  69.9166670  97.6650080  20.4424760  70.7212240
 102.2367290  25.7988470  68.8093980 102.2511830  24.8669430  68.5912890
 101.5292390  25.8848230  69.4483750 107.3704360  19.9828290  55.0792590
 107.2868080  20.4142510  54.2289030 108.0898550  20.4426640  55.5119410
 108.4478500  22.4395810  68.1562560 107.7226690  23.0324590  67.9591950
 108.9753960  22.4319350  67.3575930 108.3991610  26.8370550  57.8074720
 107.7567770  26.1826170  58.0818440 108.0122270  27.2425640  57.0315390
 103.9778090  24.1655980  61.6546410 104.3301910  23.5684110  60.9947780
 103.0940420  23.8400210  61.8254660 100.0641370  24.9253670  59.0616820
 100.7512500  25.4722880  59.4424410  99.2773790  25.4694400  59.0966430
  92.2033770  20.5426490  54.5533900  93.0728620  20.8251290  54.8369820
  91.7124090  21.3562360  54.4382710  99.3668580  21.9299700  58.6742180
  99.8231360  22.7404950  58.9002370  99.0156790  21.6122840  59.5060670
 101.6701190  27.4406040  65.9034480 102.3143410  27.6465420  66.5807900
 102.0330630  26.6794440  65.4505330  95.2680360  12.2737350  59.1464700
  95.1394990  12.2655250  60.0949620  94.4442380  12.6120440  58.7955710
 102.9433270  25.4438390  64.6211930 103.5855500  24.7431550  64.7344100
 103.4682620  26.2236830  64.4408820 106.7888990  25.7287010  54.3451070
 106.5626570  25.0117450  54.9375710 106.3985190  25.4799450  53.5072820
 104.7170890  26.2433290  67.8247990 105.0527130  26.8299980  68.5025910
 103.7971230  26.1126000  68.0545780  92.5705020  29.7553870  55.1195530
  92.9302660  30.3543210  54.4652800  92.4297360  30.3013760  55.8930560
  92.2674290  14.0328470  68.6071400  91.5532810  14.2325390  69.2124010
  92.6869330  13.2568040  68.9786200 106.3705240  23.6458950  56.0065230
 106.0826940  24.1071640  56.7943110 107.1657410  23.1856720  56.2749450
  92.5546880  28.0208730  69.5937930  92.6638000  27.0803470  69.4533320
  91.9027440  28.2863480  68.9451660 100.5459470  26.2924620  70.9936050
 100.2256340  25.5733860  71.5381740  99.8717830  26.9679690  71.0672110
  98.5873640  27.1385070  55.9369200  98.5783740  27.8714760  55.3213710
  97.6672000  26.8916650  56.0296160  94.1880280  22.3599960  56.6815960
  93.5808230  23.0998860  56.6911260  94.6629630  22.4499320  55.8554160
 103.7613070  16.5250780  66.3572850 104.1293890  15.7045990  66.6852420
 102.9011270  16.5852670  66.7728500 107.1275100  15.4807720  57.1660410
 106.4988260  15.5853390  56.4518640 106.6327020  15.7004500  57.9554290
 101.5733240  27.2013310  54.5994390 101.6745220  26.9977300  53.6696370
 100.6734980  26.9471590  54.8042170  99.0959130  17.7593670  58.5818290
  98.3875280  18.2280010  59.0231900  99.3803610  17.1015680  59.2163480
 100.7215060  19.1790370  66.5810820 101.2200310  19.6536190  67.2462670
 100.8638010  18.2553890  66.7880850 103.1274560  14.4844330  60.0214080
 103.0042340  14.5030460  59.0723590 104.0759120  14.5323270  60.1412480
 100.2151350  29.7199630  59.2942060 100.4692850  29.6821020  58.3721430
  99.2663830  29.5932960  59.2870310  97.2994150  16.0678750  55.9569000
  98.1484680  16.5048900  55.8909190  96.9325420  16.3799010  56.7841060
 107.9281920  15.3958330  67.4239210 107.4255520  16.1363730  67.7633020
 108.7438580  15.7842330  67.1076000 106.2203930  20.6391510  60.8700570
 105.2794070  20.6541740  61.0448260 106.5348000  19.8527470  61.3160870
  96.1985570  22.3211110  54.4304530  96.9648840  22.2092470  54.9929960
  96.2760260  21.6249080  53.7781300  94.8932330  19.7536180  55.1137420
  94.9735920  18.8063690  55.2254820  95.7852080  20.0843060  55.2198080
 108.2229510  27.8100360  62.5454830 108.3476930  28.6331530  63.0178640
 109.0895070  27.5991090  62.1978980  95.6947040  29.9031570  62.2171960
  96.4309520  29.3547030  62.4880530  96.0787960  30.7687580  62.0777950
  92.5792520  25.9705140  58.0913470  91.6532300  26.2126280  58.0818880
  93.0448950  26.7979400  57.9698220  94.7005320  29.0877640  71.4057540
  95.5018050  29.4089690  71.8192940  94.1857140  28.7273220  72.1277450
  98.8049350  29.0761880  54.0397530  99.5977960  29.3650710  53.5879320
  98.2853700  28.6454050  53.3610010 103.5369950  25.1957510  71.3532950
 102.9308110  25.2189110  70.6128700 103.2324060  24.4640550  71.8900200
 104.9670320  28.9237800  69.9642360 105.9192070  28.8395820  69.9142600
 104.8198540  29.5879510  70.6376150 107.8579520  28.3032010  55.4634270
 107.5721030  27.8897150  54.6488450 107.6599070  29.2319720  55.3434790
  92.4203130  21.5751100  70.3493590  92.9242150  20.9958380  70.9209820
  91.6810550  21.8591330  70.8869960  99.3226750  24.2965290  53.9039880
  99.2177390  23.6817640  54.6301260  99.1550970  23.7731180  53.1202890
  99.4741070  22.9822090  69.8829110  98.7086740  23.5507090  69.7983780
  99.6557030  22.6898300  68.9897340 102.5629480  23.3585320  54.5081870
 102.0139580  23.8054620  55.1524610 103.1848740  22.8534570  55.0319540
 106.6164420  24.7127420  70.4404130 107.3573890  25.0503180  69.9371590
 105.8537100  24.8819480  69.8873900  94.4526210  19.7180690  71.2443660
  94.4931550  19.4194560  72.1528890  95.3071710  20.1188300  71.0851180
  98.2304600  22.3176240  56.4047170  98.6521020  22.1516110  57.2478560
  98.3555440  21.5076470  55.9102310  96.3932020  18.2972790  69.2118150
  95.8628480  17.8063740  68.5841490  97.0620090  18.7256990  68.6776080
 100.7432240  21.3413850  53.6524270 101.2637900  20.6262870  53.2865420
 101.3900640  21.9799720  53.9524780 105.2910080  22.7642250  68.9759340
 105.7051100  22.9187330  69.8249760 104.3561080  22.8897470  69.1385120
 105.7632250  20.1038410  70.9798490 106.3453020  19.3490730  70.8918970
 105.9394020  20.6345850  70.2029970  96.8804320  15.2635160  69.2915440
  96.7861190  14.6455910  68.5666310  96.3001710  15.9901450  69.0645350
  99.6465760  13.8208400  66.3242830  99.1983060  13.8432660  65.4788380
  99.0130960  13.4227420  66.9213130 100.0525310  22.7162730  66.9455270
 100.4713420  23.5595460  66.7731510  99.1333940  22.8534770  66.7162050
 102.3889210  20.4478910  68.3293110 102.5085420  19.8520050  69.0687950
 103.2483210  20.4848600  67.9094410 104.7277110  21.0016100  66.9055620
 104.2012330  21.5258720  66.3020760 105.0708450  21.6343490  67.5365350
  97.1263500  18.3909470  53.3505330  96.9252560  17.5276830  53.7118670
  96.9555550  18.3042830  52.4126930  97.9032730  29.0215740  68.0613000
  97.3653820  29.7461800  67.7421700  98.1566690  28.5446080  67.2710340
  99.1557980  16.9900260  69.5868930  99.7457670  16.6816110  70.2746750
  98.3378220  16.5180010  69.7428830 103.9751410  16.6066070  69.8201950
 103.2866930  15.9447610  69.7551940 104.6957430  16.1604340  70.2650410
 104.6051810  13.2017700  55.8792210 104.8854100  12.3585600  56.2351630
 103.8317540  13.4340810  56.3930960  95.9246300  15.4910090  53.3383210
  96.2272200  15.4977520  52.4302360  96.6640890  15.1407950  53.8350870
 100.7594940  30.2566950  68.3199650 100.6853640  31.1602090  68.6272020
  99.8573780  29.9378850  68.2921720  99.1431230  14.4344710  54.3239410
  98.7953230  13.7568700  53.7441860  99.3444000  13.9734220  55.1382800
 101.3080270  29.4225460  55.9426010 102.2031060  29.7610430  55.9644770
 101.3397900  28.7004870  55.3150290  94.9476430  24.7952510  54.1713010
  95.3851300  25.3382180  54.8270590  95.4324160  23.9699460  54.1809350
  92.1622230  27.5841540  61.6233270  92.4925240  26.7162600  61.3911910
  92.5913230  27.7900060  62.4538230  96.7584150  25.9150550  59.2835240
  96.4579690  25.7915520  60.1839150  96.6521640  25.0559140  58.8750970
  92.6512440  28.4512130  64.3614900  92.2143430  28.6312930  65.1939050
  93.2190120  29.2086750  64.2196620 108.2874620  27.9529130  68.6492210
 107.6876610  28.0121690  67.9056130 108.4168520  27.0134110  68.7789060
 109.5276070  25.6946950  53.9861920 108.6969030  25.7623600  54.4569150
 109.7047900  26.5851070  53.6828780 108.9832530  22.4394430  56.4896120
 109.7451440  23.0091080  56.5955810 108.9986900  21.8721630  57.2604430
  92.4836870  20.9632360  60.7203780  91.8285710  20.6944000  60.0763480
  93.3214820  20.8536840  60.2705760 109.9892500  23.2944530  61.3338050
 110.3601330  22.5111850  60.9274020 110.6294430  23.9833630  61.1555350
 106.9726260  24.6781110  66.7468370 106.1586100  25.1078270  67.0094160
 107.3800460  25.2899520  66.1337420 109.0351700  22.7328800  53.6468640
 109.3100540  23.6407680  53.5187860 108.8462440  22.6691330  54.5830630
 105.4327310  15.7573650  54.9422270 105.8512190  15.5704630  54.1018930
 105.1263370  14.9052700  55.2525200 108.9317040  20.6697790  58.6398070
 108.5560640  19.9025720  58.2079360 108.2020160  21.0520490  59.1273000
  93.5212800  21.3484930  65.2607120  93.8885840  21.2612330  66.1403140
  92.9523620  20.5851480  65.1613980 108.3216660  19.8169310  68.2737590
 108.0902750  19.5882060  67.3735540 108.5821210  20.7368860  68.2282480
  93.0728800  18.2594020  69.1665540  92.1784850  18.2260780  69.5059250
  93.6126350  18.4580810  69.9316790 106.7604730  15.0425740  71.0517290
 107.6374910  15.0509140  71.4351290 106.7725570  14.3056580  70.4409640
  91.6974950  18.1731290  56.6629110  90.7939030  18.4361490  56.4880770
  92.1815570  18.4442460  55.8829070 108.2068000  18.8955280  61.9405310
 108.7305480  18.4017930  61.3095480 108.7927420  19.0305640  62.6852880
 108.3857720  18.9795150  65.4624860 107.4360430  18.9458690  65.5769850
 108.5670730  19.8895260  65.2274630  94.2402160  17.2296830  54.5723490
  94.9493860  16.8080050  54.0870770  93.5242100  17.2972060  53.9406840
  93.8876320  13.2836160  53.6126140  94.6104450  13.8245100  53.9307360
  94.1600840  13.0099580  52.7367680 107.6967970  18.1528630  57.8797720
 108.1927090  17.9199500  58.6646600 107.4984040  17.3140470  57.4635360
  93.5768510  12.5342350  63.5148760  94.2244700  11.9839730  63.0743920
  93.9970350  12.7885500  64.3364570 109.1255130  16.7889580  60.4135400
 109.0154410  16.6345620  61.3517670 109.8862720  16.2610520  60.1710810
 107.4720850  12.7283710  66.8718400 108.1093070  13.3417850  67.2377590
 107.6195740  12.7644370  65.9267630 110.0145400  14.6197500  53.6541540
 110.9394710  14.4878680  53.4459830 109.9921190  14.6990320  54.6077990
 110.0883890  15.3908160  56.2798250 109.2935390  15.3253280  56.8091160
 110.2927170  16.3258800  56.2683600 107.0302310  29.4299710  60.2736640
 107.6261380  29.1084280  59.5971060 107.2880460  28.9571530  61.0649910
  93.3300510  12.6898020  66.2574080  92.9815330  13.1461840  67.0232260
  92.9988210  11.7955150  66.3396510  94.9364880  25.8617620  70.4227270
  94.8934510  25.4910530  71.3041730  95.0675890  26.7995190  70.5629090
  98.6370910  27.4177210  66.0236990  98.3962270  27.6851770  65.1367510
  99.5773550  27.5882940  66.0787850 100.8425330  13.8809900  69.7793500
 100.7814220  14.4731730  70.5288910 101.7825710  13.7735860  69.6343760
 103.4799890  13.5379960  69.4185790 104.0940300  13.8559250  68.7566870
 104.0249450  13.0528550  70.0381650 109.8975070  29.4371590  66.8247630
 109.4033350  29.8340460  66.1074760 109.2888360  28.8120800  67.2184910
  94.0021150  12.2174220  69.5324850  94.5504140  12.0362270  68.7690960
  94.0676460  11.4268330  70.0681160  94.7752910  28.8079870  67.5425050
  94.1813230  28.6764570  68.2815090  94.7676750  27.9718010  67.0767150
 104.2207930  12.1012100  65.7455080 103.3467770  12.4347210  65.5428010
 104.1118680  11.6285280  66.5706950 105.1279910  14.3082970  67.1296800
 104.7993270  13.4934730  66.7498530 106.0762210  14.2652780  67.0062490
 107.5814520  30.0795010  64.1034370 107.1217490  30.8310820  63.7292390
 106.9526980  29.3601480  64.0449170  94.4065140  26.1738250  66.4933090
  93.6799200  25.5543540  66.4259040  94.4674290  26.5678860  65.6231170
  98.0110240  28.3883250  63.2782500  98.5275260  27.7770610  62.7530760
  98.6607620  28.8912030  63.7693510 100.7505740  29.2791740  64.1051480
 101.0383550  29.0246040  63.2284490 101.2628960  28.7269100  64.6957050
 101.9682750  13.0181940  64.6847990 101.1854540  13.4927440  64.9644750
 101.6745680  12.1136770  64.5761170 106.5203820  13.7205040  62.7297080
 106.9611910  13.6650140  61.8818680 106.2511410  14.6363050  62.8007260
 108.3842390  13.3520280  60.7405900 108.3230790  12.4081500  60.5936920
 109.1634420  13.4600370  61.2859360  92.6895140  29.4912640  59.7029850
  92.5217180  28.8583320  60.4011740  91.8229650  29.6972040  59.3524040
  93.3123160  13.3229420  57.2061710  94.0702520  13.4358300  56.6325740
  92.8500330  14.1598620  57.1605140  99.8536970  15.4368690  60.1964020
  99.0411480  15.0625580  59.8559900 100.3578610  14.6813770  60.4985210
 104.3561950  12.1011140  61.4347090 104.9591320  12.6731350  61.9095610
 103.6154940  12.6650580  61.2120990 107.4996550  12.5032700  56.7087370
 107.6947180  13.4016150  56.9754800 106.7126420  12.2719780  57.2020320
  94.2957840  28.1845870  57.1479990  93.7705460  28.5653900  56.4441950
  94.2202420  28.8096640  57.8689700  95.6848310  13.8493470  55.7463680
  96.2141070  13.0623270  55.6171630  96.3176630  14.5284660  55.9799210
  97.8786150  13.5868610  58.8009070  97.2488890  12.8855920  58.9679200
  97.3391290  14.3472740  58.5842230 100.8178100  30.2007840  71.4719680
 101.7445410  29.9652110  71.5155640 100.8028530  31.0279840  70.9905710
 109.0523160  29.7433410  58.4693930 109.2275350  29.0571150  57.8254850
 108.3544730  30.2680460  58.0770600  98.0041710  12.8652590  71.2361560
  97.7225980  13.3686190  70.4722380  98.3861410  12.0674340  70.8703690
  96.8950810  30.1328250  56.0229240  97.6269630  29.8487530  55.4753130
  97.1544480  29.8941530  56.9128620  96.0565600  26.2492980  56.0275570
  95.4274480  26.7178080  56.5761400  96.1713430  25.4042200  56.4621760
 104.6057170  12.2806170  71.8142030 104.4922620  12.6000780  72.7093550
 105.4226910  12.6818680  71.5179310 107.3855660  29.4277700  71.2960720
 108.1780980  28.9326930  71.0886680 107.6788810  30.1067840  71.9036330
 103.5115320  20.2998640  42.1776770 103.4309370  19.3853250  41.9068480
 103.0979740  20.7965710  41.4716480 101.6433360  22.0777660  44.0586040
 100.8675460  21.5978100  44.3484610 102.2946290  21.3983310  43.8842200
  95.6599190  22.3897470  44.9361800  94.8284070  22.1346180  45.3358310
  96.2680170  22.4608240  45.6719720 105.6640790  26.4837850  42.8385170
 105.2022320  25.7125090  43.1672340 106.4766340  26.5103920  43.3437620
  95.6400450  26.4237560  45.1319820  95.9428490  25.5335300  44.9530040
  96.3844040  26.9807780  44.9042070  94.0691140  17.3499360  38.7204190
  93.1807840  17.6915330  38.6184070  94.3532330  17.1499680  37.8285020
  92.0324150  19.9505010  44.6043890  92.6040260  19.1827210  44.6047530
  92.0325690  20.2493770  43.6950500 101.8904100  28.7695860  42.4589160
 101.2715540  29.2253360  41.8883600 102.7455880  28.9247320  42.0578860
 101.0842350  24.7534850  44.0656200 101.0150630  23.8124790  43.9045330
 101.8462210  24.8436260  44.6378770  93.2749020  15.3589370  46.3912820
  93.0951860  14.4615120  46.6715580  92.8729100  15.9061240  47.0659770
 102.1147520  17.5605230  44.2925130 102.4912340  16.6877110  44.1798800
 102.0167030  17.8963930  43.4015570  96.2452530  15.9330860  39.7542570
  96.3519280  16.8334590  40.0611330  95.3344890  15.8848830  39.4637220
 105.8971640  15.0555670  41.2253470 106.7181260  14.5652240  41.2678950
 105.9305720  15.6453330  41.9785310  93.8935690  17.8549870  44.9995160
  94.5745800  18.1188240  45.6182560  93.5783740  17.0150740  45.3333170
  98.0860260  18.9017230  44.0867750  98.5938480  19.3998200  44.7272770
  98.6173500  18.1252430  43.9107110 110.1871190  17.0722420  47.7897100
 109.4823360  17.4604130  47.2712210 110.4529110  17.7672710  48.3918030
  96.3696360  13.5415790  48.3531170  96.3714800  14.0588180  47.5477070
  95.5400670  13.0645970  48.3301100 102.7567450  23.6535100  39.8521070
 102.1384720  24.1184550  39.2883790 103.2690700  24.3462580  40.2690580
  97.6199210  23.1810970  46.5304670  97.2868590  23.8079890  47.1725740
  97.7965890  23.7072850  45.7506340 106.1333120  16.9956050  43.9981010
 105.4288690  17.2840940  44.5784120 106.4945280  17.8056160  43.6380570
  96.0511690  15.2525750  46.3601620  96.3928500  16.0967800  46.0655490
  95.1127500  15.4009490  46.4766960  96.8318310  25.1491770  48.3453850
  97.4492310  25.8242850  48.0638300  95.9711430  25.5579750  48.2541350
  92.1250650  24.3391630  37.2260700  91.7478630  24.8278730  36.4945600
  92.3823720  25.0116910  37.8567230 107.7495900  26.6131180  46.2608490
 107.0659420  27.2830290  46.2525160 108.2890190  26.8111830  45.4953350
 109.2020040  16.4410840  44.3890220 108.2544950  16.4749820  44.5205650
 109.5270030  17.2549790  44.7739580  99.7339580  12.7408020  42.6846210
 100.0414560  12.1854910  41.9681710  98.8040280  12.8752480  42.5019200
 105.2854640  28.4575310  44.9753670 105.2981800  28.0537600  44.1075930
 104.7329860  29.2322600  44.8715100 106.5800060  25.1791530  40.0643840
 106.4696390  24.2365860  40.1893260 106.5768310  25.5407170  40.9506600
 104.6840080  23.3605150  46.3036280 105.1008870  23.1465260  45.4689740
 105.4079900  23.6177940  46.8744900 102.1220340  20.8056850  39.4206330
 101.1949620  20.7394230  39.6494800 102.2745160  21.7436980  39.3061570
 102.1089420  17.0773850  36.4173490 101.1693090  17.2387810  36.5025950
 102.4272680  17.7959530  35.8709480 108.6302180  21.7592370  46.3952520
 107.8020810  21.8285460  45.9202650 109.2252660  22.3446680  45.9268350
 106.1517630  22.3677150  39.9241580 105.5330050  22.0296700  39.2767880
 106.1342080  21.7236910  40.6320770 105.5944190  18.5461690  47.3407390
 105.1815370  19.3715400  47.5947380 104.8620140  17.9606730  47.1483750
  97.7276980  21.3321590  42.2026060  97.3233980  20.6198840  41.7071960
  97.8140100  20.9874830  43.0914100  98.1958680  25.0189150  44.3665270
  97.8986970  24.4134620  43.6873050  99.1458500  25.0566460  44.2554630
  96.4405600  18.1064800  45.9825100  96.9920190  18.2160140  45.2078350
  96.9549110  18.4802400  46.6980330 106.2844290  28.5921020  48.0288370
 105.8074850  29.3993210  47.8360980 105.6006080  27.9399350  48.1814580
  97.2877110  24.7570840  51.0173070  96.3905640  24.9810810  51.2646470
  97.3129980  24.8805780  50.0684470 104.3282330  21.6063960  36.9314330
 104.7675610  20.7686390  36.7852150 105.0410750  22.2393360  37.0178470
  96.1148330  21.6284160  49.5930440  95.9756100  22.5006960  49.9617840
  95.2329690  21.2856970  49.4478380 102.4377710  26.5460030  40.8995570
 102.8773620  27.2884360  40.4850960 102.3764600  26.7886600  41.8234530
  97.9128680  27.5705860  51.8015590  97.8844110  27.9748810  50.9344020
  97.7493650  26.6416220  51.6387190 107.9099470  12.8606770  35.2455370
 107.5972130  12.9533600  36.1454440 108.6711940  13.4387800  35.1952800
  94.4281610  20.2266570  39.7032710  94.3079210  20.9528660  39.0913980
  94.1182500  19.4569480  39.2260620 109.8643500  28.3532960  53.0979760
 110.3403220  28.8315850  53.7768840 110.4850660  28.2850450  52.3725260
  92.0666980  23.3981710  45.5101350  92.1447400  23.5330480  44.5657070
  92.6808660  22.6897600  45.7029470  93.3114610  25.0981900  41.9207530
  92.9042690  25.2396490  41.0661130  94.2027620  24.8142060  41.7178740
 109.2676750  25.5445810  50.2579770 109.3939810  25.3057690  49.3396950
 109.3098130  24.7130350  50.7301850 103.1293490  29.2473810  48.8274580
 103.6438160  29.1581820  49.6297010 102.2862570  29.5933510  49.1202490
 105.1047890  29.5329150  38.2558580 104.9449030  29.2432090  39.1540410
 104.9394600  28.7569280  37.7203810  97.5836270  29.3127680  40.0330200
  97.4078750  28.3963220  39.8198000  96.7292010  29.6714970  40.2728000
 104.8074020  27.0416710  36.8156580 104.1139180  27.0394000  36.1558860
 105.5496880  26.6176030  36.3850750 104.3723950  28.6679420  40.8905070
 104.8280900  27.8868800  41.2043690 104.7116470  29.3786240  41.4346250
 109.1200760  17.5978270  51.2229510 108.5045030  18.1057940  50.6944970
 108.7997180  16.6976600  51.1655450  92.1226500  24.4395880  48.0495810
  92.2857540  23.9701240  47.2315180  92.5878950  23.9319440  48.7144650
  96.8945270  13.5701640  43.0856380  96.4513420  14.3511180  42.7540900
  97.4530260  13.8931530  43.7927320 101.1815080  16.4370160  48.6891700
 100.7194450  16.6453180  49.5011640 100.7793190  15.6229510  48.3862370
 106.1819590  17.6579110  49.8188360 105.3313180  17.3584860  50.1397430
 106.0221380  17.9021120  48.9072180 103.2769300  19.1580860  51.9187150
 103.6022710  18.3244610  51.5789380 104.0649630  19.6809380  52.0665480
 100.0104090  13.1912340  37.9662210  99.3858270  13.1872210  38.6915520
  99.9234210  12.3243300  37.5698180  98.9321170  14.1148970  44.9445980
  99.2293500  15.0211800  44.8638000  99.4806730  13.6267750  44.3305550
  96.6859490  18.6935210  40.8137630  96.4600410  18.4772380  41.7184250
  95.9052020  19.1263670  40.4683600 103.9157250  18.6998580  39.4128280
 103.3166140  19.4234380  39.2291900 104.4636860  18.6375360  38.6304730
  99.1258700  19.5920790  51.4797900  99.0302300  18.6515520  51.3298300
  99.9690680  19.8135860  51.0845970 102.5222120  17.3362120  41.4431560
 102.9151690  17.6534320  40.6300250 102.8838970  16.4574000  41.5576080
  94.2569240  16.0034460  49.6331680  93.8632630  16.8509670  49.8404460
  93.5687640  15.3660830  49.8240320 100.8314290  16.0869430  52.7028420
 100.1412610  15.8941630  53.3374510 101.5746590  16.3704070  53.2352720
  91.5586290  13.9262920  43.6661760  91.2699340  14.4965780  44.3786740
  92.3032050  13.4467370  44.0292990  91.7456520  17.8683040  34.8764480
  91.6631190  18.8113800  35.0179470  91.3939580  17.7257950  33.9976830
 103.1077260  19.9267870  45.5382340 102.3758380  20.4354680  45.8872440
 102.7101600  19.1097850  45.2371120  99.5454650  16.6022070  43.9434830
  99.5490710  16.1612020  43.0939370 100.4405770  16.9239400  44.0506650
  95.3957030  16.4848560  42.9029040  95.0557080  16.9623790  43.6596090
  94.6334350  16.0313680  42.5430140  99.6074800  17.6034150  36.9341590
  99.7287620  17.5620630  37.8827410  99.2223310  18.4658300  36.7788320
 103.5703170  15.3801550  44.9505280 103.5875910  15.8310200  45.7947130
 103.3218750  14.4807190  45.1638720  98.6196300  19.9135290  36.3324890
  98.0513200  19.4653540  35.7060800  99.3285300  20.2728070  35.7990040
 106.9973920  12.7933730  50.7891660 107.3219690  12.0623390  51.3149640
 107.0330430  12.4747370  49.8872650  93.6965480  23.8147310  50.2091620
  93.3120270  23.1740980  50.8074580  94.0077670  24.5183430  50.7786350
  99.8462620  20.6623850  45.6900240 100.2132750  20.1882420  46.4361580
  99.6567680  21.5365420  46.0308580  92.7103110  15.4067540  41.8193710
  92.4250030  15.0423210  42.6572330  92.6481970  14.6748000  41.2056850
  97.6361990  19.7032490  48.0084450  97.3319060  20.5824470  48.2334810
  98.5908450  19.7632280  48.0441890  96.1643780  23.9093480  38.6051300
  95.3906040  23.3691100  38.4450020  96.8938410  23.3900090  38.2669060
 106.9231760  22.9058840  44.3977690 107.6430880  23.4014130  44.0073800
 106.7213580  22.2276730  43.7531560 102.3841700  14.2996800  38.5407080
 101.5706310  13.8009970  38.4652390 102.1903650  15.1395050  38.1243430
 102.3050560  22.9767900  50.2846690 102.2387870  22.0563570  50.0304280
 101.6755700  23.0743340  50.9991330 105.0990090  18.6716450  36.8369240
 105.9869710  18.9833680  36.6620580 105.0695180  17.7988700  36.4449820
  96.2081180  23.5773860  42.2430110  96.7259850  22.7742120  42.1887000
  95.7565200  23.5153000  43.0846940 101.0950680  24.8440140  37.5157410
 101.4366380  25.5882370  37.0200730 100.2663390  25.1571260  37.8782240
  93.6925720  20.5435230  49.1555810  93.3340660  21.2089080  49.7429150
  93.3980280  19.7118780  49.5268430  96.8938840  21.0019470  52.0395360
  96.5938980  21.1476650  51.1423180  97.6650080  20.4424760  51.9468750
 102.2367290  25.7988470  50.0350490 102.2511830  24.8669430  49.8169400
 101.5292390  25.8848230  50.6740260 107.3704360  19.9828290  36.3049100
 107.2868080  20.4142510  35.4545540 108.0898550  20.4426640  36.7375920
 108.4478500  22.4395810  49.3819070 107.7226690  23.0324590  49.1848460
 108.9753960  22.4319350  48.5832440 108.3991610  26.8370550  39.0331230
 107.7567770  26.1826170  39.3074950 108.0122270  27.2425640  38.2571900
 103.9778090  24.1655980  42.8802920 104.3301910  23.5684110  42.2204290
 103.0940420  23.8400210  43.0511170 100.0641370  24.9253670  40.2873330
 100.7512500  25.4722880  40.6680920  99.2773790  25.4694400  40.3222940
  92.2033770  20.5426490  35.7790410  93.0728620  20.8251290  36.0626330
  91.7124090  21.3562360  35.6639220  99.3668580  21.9299700  39.8998690
  99.8231360  22.7404950  40.1258880  99.0156790  21.6122840  40.7317180
 101.6701190  27.4406040  47.1290990 102.3143410  27.6465420  47.8064410
 102.0330630  26.6794440  46.6761840  95.2680360  12.2737350  40.3721210
  95.1394990  12.2655250  41.3206130  94.4442380  12.6120440  40.0212220
 102.9433270  25.4438390  45.8468440 103.5855500  24.7431550  45.9600610
 103.4682620  26.2236830  45.6665330 106.7888990  25.7287010  35.5707580
 106.5626570  25.0117450  36.1632220 106.3985190  25.4799450  34.7329330
 104.7170890  26.2433290  49.0504500 105.0527130  26.8299980  49.7282420
 103.7971230  26.1126000  49.2802290  92.5705020  29.7553870  36.3452040
  92.9302660  30.3543210  35.6909310  92.4297360  30.3013760  37.1187070
  92.2674290  14.0328470  49.8327910  91.5532810  14.2325390  50.4380520
  92.6869330  13.2568040  50.2042710 106.3705240  23.6458950  37.2321740
 106.0826940  24.1071640  38.0199620 107.1657410  23.1856720  37.5005960
  92.5546880  28.0208730  50.8194440  92.6638000  27.0803470  50.6789830
  91.9027440  28.2863480  50.1708170 100.5459470  26.2924620  52.2192560
 100.2256340  25.5733860  52.7638250  99.8717830  26.9679690  52.2928620
  98.5873640  27.1385070  37.1625710  98.5783740  27.8714760  36.5470220
  97.6672000  26.8916650  37.2552670  94.1880280  22.3599960  37.9072470
  93.5808230  23.0998860  37.9167770  94.6629630  22.4499320  37.0810670
 103.7613070  16.5250780  47.5829360 104.1293890  15.7045990  47.9108930
 102.9011270  16.5852670  47.9985010 107.1275100  15.4807720  38.3916920
 106.4988260  15.5853390  37.6775150 106.6327020  15.7004500  39.1810800
 101.5733240  27.2013310  35.8250900 101.6745220  26.9977300  34.8952880
 100.6734980  26.9471590  36.0298680  99.0959130  17.7593670  39.8074800
  98.3875280  18.2280010  40.2488410  99.3803610  17.1015680  40.4419990
 100.7215060  19.1790370  47.8067330 101.2200310  19.6536190  48.4719180
 100.8638010  18.2553890  48.0137360 103.1274560  14.4844330  41.2470590
 103.0042340  14.5030460  40.2980100 104.0759120  14.5323270  41.3668990
 100.2151350  29.7199630  40.5198570 100.4692850  29.6821020  39.5977940
  99.2663830  29.5932960  40.5126820  97.2994150  16.0678750  37.1825510
  98.1484680  16.5048900  37.1165700  96.9325420  16.3799010  38.0097570
 107.9281920  15.3958330  48.6495720 107.4255520  16.1363730  48.9889530
 108.7438580  15.7842330  48.3332510 106.2203930  20.6391510  42.0957080
 105.2794070  20.6541740  42.2704770 106.5348000  19.8527470  42.5417380
  96.1985570  22.3211110  35.6561040  96.9648840  22.2092470  36.2186470
  96.2760260  21.6249080  35.0037810  94.8932330  19.7536180  36.3393930
  94.9735920  18.8063690  36.4511330  95.7852080  20.0843060  36.4454590
 108.2229510  27.8100360  43.7711340 108.3476930  28.6331530  44.2435150
 109.0895070  27.5991090  43.4235490  95.6947040  29.9031570  43.4428470
  96.4309520  29.3547030  43.7137040  96.0787960  30.7687580  43.3034460
  92.5792520  25.9705140  39.3169980  91.6532300  26.2126280  39.3075390
  93.0448950  26.7979400  39.1954730  94.7005320  29.0877640  52.6314050
  95.5018050  29.4089690  53.0449450  94.1857140  28.7273220  53.3533960
  98.8049350  29.0761880  35.2654040  99.5977960  29.3650710  34.8135830
  98.2853700  28.6454050  34.5866520 103.5369950  25.1957510  52.5789460
 102.9308110  25.2189110  51.8385210 103.2324060  24.4640550  53.1156710
 104.9670320  28.9237800  51.1898870 105.9192070  28.8395820  51.1399110
 104.8198540  29.5879510  51.8632660 107.8579520  28.3032010  36.6890780
 107.5721030  27.8897150  35.8744960 107.6599070  29.2319720  36.5691300
  92.4203130  21.5751100  51.5750100  92.9242150  20.9958380  52.1466330
  91.6810550  21.8591330  52.1126470  99.3226750  24.2965290  35.1296390
  99.2177390  23.6817640  35.8557770  99.1550970  23.7731180  34.3459400
  99.4741070  22.9822090  51.1085620  98.7086740  23.5507090  51.0240290
  99.6557030  22.6898300  50.2153850 102.5629480  23.3585320  35.7338380
 102.0139580  23.8054620  36.3781120 103.1848740  22.8534570  36.2576050
 106.6164420  24.7127420  51.6660640 107.3573890  25.0503180  51.1628100
 105.8537100  24.8819480  51.1130410  94.4526210  19.7180690  52.4700170
  94.4931550  19.4194560  53.3785400  95.3071710  20.1188300  52.3107690
  98.2304600  22.3176240  37.6303680  98.6521020  22.1516110  38.4735070
  98.3555440  21.5076470  37.1358820  96.3932020  18.2972790  50.4374660
  95.8628480  17.8063740  49.8098000  97.0620090  18.7256990  49.9032590
 100.7432240  21.3413850  34.8780780 101.2637900  20.6262870  34.5121930
 101.3900640  21.9799720  35.1781290 105.2910080  22.7642250  50.2015850
 105.7051100  22.9187330  51.0506270 104.3561080  22.8897470  50.3641630
 105.7632250  20.1038410  52.2055000 106.3453020  19.3490730  52.1175480
 105.9394020  20.6345850  51.4286480  96.8804320  15.2635160  50.5171950
  96.7861190  14.6455910  49.7922820  96.3001710  15.9901450  50.2901860
  99.6465760  13.8208400  47.5499340  99.1983060  13.8432660  46.7044890
  99.0130960  13.4227420  48.1469640 100.0525310  22.7162730  48.1711780
 100.4713420  23.5595460  47.9988020  99.1333940  22.8534770  47.9418560
 102.3889210  20.4478910  49.5549620 102.5085420  19.8520050  50.2944460
 103.2483210  20.4848600  49.1350920 104.7277110  21.0016100  48.1312130
 104.2012330  21.5258720  47.5277270 105.0708450  21.6343490  48.7621860
  97.1263500  18.3909470  34.5761840  96.9252560  17.5276830  34.9375180
  96.9555550  18.3042830  33.6383440  97.9032730  29.0215740  49.2869510
  97.3653820  29.7461800  48.9678210  98.1566690  28.5446080  48.4966850
  99.1557980  16.9900260  50.8125440  99.7457670  16.6816110  51.5003260
  98.3378220  16.5180010  50.9685340 103.9751410  16.6066070  51.0458460
 103.2866930  15.9447610  50.9808450 104.6957430  16.1604340  51.4906920
 104.6051810  13.2017700  37.1048720 104.8854100  12.3585600  37.4608140
 103.8317540  13.4340810  37.6187470  95.9246300  15.4910090  34.5639720
  96.2272200  15.4977520  33.6558870  96.6640890  15.1407950  35.0607380
 100.7594940  30.2566950  49.5456160 100.6853640  31.1602090  49.8528530
  99.8573780  29.9378850  49.5178230  99.1431230  14.4344710  35.5495920
  98.7953230  13.7568700  34.9698370  99.3444000  13.9734220  36.3639310
 101.3080270  29.4225460  37.1682520 102.2031060  29.7610430  37.1901280
 101.3397900  28.7004870  36.5406800  94.9476430  24.7952510  35.3969520
  95.3851300  25.3382180  36.0527100  95.4324160  23.9699460  35.4065860
  92.1622230  27.5841540  42.8489780  92.4925240  26.7162600  42.6168420
  92.5913230  27.7900060  43.6794740  96.7584150  25.9150550  40.5091750
  96.4579690  25.7915520  41.4095660  96.6521640  25.0559140  40.1007480
  92.6512440  28.4512130  45.5871410  92.2143430  28.6312930  46.4195560
  93.2190120  29.2086750  45.4453130 108.2874620  27.9529130  49.8748720
 107.6876610  28.0121690  49.1312640 108.4168520  27.0134110  50.0045570
 109.5276070  25.6946950  35.2118430 108.6969030  25.7623600  35.6825660
 109.7047900  26.5851070  34.9085290 108.9832530  22.4394430  37.7152630
 109.7451440  23.0091080  37.8212320 108.9986900  21.8721630  38.4860940
  92.4836870  20.9632360  41.9460290  91.8285710  20.6944000  41.3019990
  93.3214820  20.8536840  41.4962270 109.9892500  23.2944530  42.5594560
 110.3601330  22.5111850  42.1530530 110.6294430  23.9833630  42.3811860
 106.9726260  24.6781110  47.9724880 106.1586100  25.1078270  48.2350670
 107.3800460  25.2899520  47.3593930 109.0351700  22.7328800  34.8725150
 109.3100540  23.6407680  34.7444370 108.8462440  22.6691330  35.8087140
 105.4327310  15.7573650  36.1678780 105.8512190  15.5704630  35.3275440
 105.1263370  14.9052700  36.4781710 108.9317040  20.6697790  39.8654580
 108.5560640  19.9025720  39.4335870 108.2020160  21.0520490  40.3529510
  93.5212800  21.3484930  46.4863630  93.8885840  21.2612330  47.3659650
  92.9523620  20.5851480  46.3870490 108.3216660  19.8169310  49.4994100
 108.0902750  19.5882060  48.5992050 108.5821210  20.7368860  49.4538990
  93.0728800  18.2594020  50.3922050  92.1784850  18.2260780  50.7315760
  93.6126350  18.4580810  51.1573300 106.7604730  15.0425740  52.2773800
 107.6374910  15.0509140  52.6607800 106.7725570  14.3056580  51.6666150
  91.6974950  18.1731290  37.8885620  90.7939030  18.4361490  37.7137280
  92.1815570  18.4442460  37.1085580 108.2068000  18.8955280  43.1661820
 108.7305480  18.4017930  42.5351990 108.7927420  19.0305640  43.9109390
 108.3857720  18.9795150  46.6881370 107.4360430  18.9458690  46.8026360
 108.5670730  19.8895260  46.4531140  94.2402160  17.2296830  35.7980000
  94.9493860  16.8080050  35.3127280  93.5242100  17.2972060  35.1663350
  93.8876320  13.2836160  34.8382650  94.6104450  13.8245100  35.1563870
  94.1600840  13.0099580  33.9624190 107.6967970  18.1528630  39.1054230
 108.1927090  17.9199500  39.8903110 107.4984040  17.3140470  38.6891870
  93.5768510  12.5342350  44.7405270  94.2244700  11.9839730  44.3000430
  93.9970350  12.7885500  45.5621080 109.1255130  16.7889580  41.6391910
 109.0154410  16.6345620  42.5774180 109.8862720  16.2610520  41.3967320
 107.4720850  12.7283710  48.0974910 108.1093070  13.3417850  48.4634100
 107.6195740  12.7644370  47.1524140 110.0145400  14.6197500  34.8798050
 110.9394710  14.4878680  34.6716340 109.9921190  14.6990320  35.8334500
 110.0883890  15.3908160  37.5054760 109.2935390  15.3253280  38.0347670
 110.2927170  16.3258800  37.4940110 107.0302310  29.4299710  41.4993150
 107.6261380  29.1084280  40.8227570 107.2880460  28.9571530  42.2906420
  93.3300510  12.6898020  47.4830590  92.9815330  13.1461840  48.2488770
  92.9988210  11.7955150  47.5653020  94.9364880  25.8617620  51.6483780
  94.8934510  25.4910530  52.5298240  95.0675890  26.7995190  51.7885600
  98.6370910  27.4177210  47.2493500  98.3962270  27.6851770  46.3624020
  99.5773550  27.5882940  47.3044360 100.8425330  13.8809900  51.0050010
 100.7814220  14.4731730  51.7545420 101.7825710  13.7735860  50.8600270
 103.4799890  13.5379960  50.6442300 104.0940300  13.8559250  49.9823380
 104.0249450  13.0528550  51.2638160 109.8975070  29.4371590  48.0504140
 109.4033350  29.8340460  47.3331270 109.2888360  28.8120800  48.4441420
  94.0021150  12.2174220  50.7581360  94.5504140  12.0362270  49.9947470
  94.0676460  11.4268330  51.2937670  94.7752910  28.8079870  48.7681560
  94.1813230  28.6764570  49.5071600  94.7676750  27.9718010  48.3023660
 104.2207930  12.1012100  46.9711590 103.3467770  12.4347210  46.7684520
 104.1118680  11.6285280  47.7963460 105.1279910  14.3082970  48.3553310
 104.7993270  13.4934730  47.9755040 106.0762210  14.2652780  48.2319000
 107.5814520  30.0795010  45.3290880 107.1217490  30.8310820  44.9548900
 106.9526980  29.3601480  45.2705680  94.4065140  26.1738250  47.7189600
  93.6799200  25.5543540  47.6515550  94.4674290  26.5678860  46.8487680
  98.0110240  28.3883250  44.5039010  98.5275260  27.7770610  43.9787270
  98.6607620  28.8912030  44.9950020 100.7505740  29.2791740  45.3307990
 101.0383550  29.0246040  44.4541000 101.2628960  28.7269100  45.9213560
 101.9682750  13.0181940  45.9104500 101.1854540  13.4927440  46.1901260
 101.6745680  12.1136770  45.8017680 106.5203820  13.7205040  43.9553590
 106.9611910  13.6650140  43.1075190 106.2511410  14.6363050  44.0263770
 108.3842390  13.3520280  41.9662410 108.3230790  12.4081500  41.8193430
 109.1634420  13.4600370  42.5115870  92.6895140  29.4912640  40.9286360
  92.5217180  28.8583320  41.6268250  91.8229650  29.6972040  40.5780550
  93.3123160  13.3229420  38.4318220  94.0702520  13.4358300  37.8582250
  92.8500330  14.1598620  38.3861650  99.8536970  15.4368690  41.4220530
  99.0411480  15.0625580  41.0816410 100.3578610  14.6813770  41.7241720
 104.3561950  12.1011140  42.6603600 104.9591320  12.6731350  43.1352120
 103.6154940  12.6650580  42.4377500 107.4996550  12.5032700  37.9343880
 107.6947180  13.4016150  38.2011310 106.7126420  12.2719780  38.4276830
  94.2957840  28.1845870  38.3736500  93.7705460  28.5653900  37.6698460
  94.2202420  28.8096640  39.0946210  95.6848310  13.8493470  36.9720190
  96.2141070  13.0623270  36.8428140  96.3176630  14.5284660  37.2055720
  97.8786150  13.5868610  40.0265580  97.2488890  12.8855920  40.1935710
  97.3391290  14.3472740  39.8098740 100.8178100  30.2007840  52.6976190
 101.7445410  29.9652110  52.7412150 100.8028530  31.0279840  52.2162220
 109.0523160  29.7433410  39.6950440 109.2275350  29.0571150  39.0511360
 108.3544730  30.2680460  39.3027110  98.0041710  12.8652590  52.4618070
  97.7225980  13.3686190  51.6978890  98.3861410  12.0674340  52.0960200
  96.8950810  30.1328250  37.2485750  97.6269630  29.8487530  36.7009640
  97.1544480  29.8941530  38.1385130  96.0565600  26.2492980  37.2532080
  95.4274480  26.7178080  37.8017910  96.1713430  25.4042200  37.6878270
 104.6057170  12.2806170  53.0398540 104.4922620  12.6000780  53.9350060
 105.4226910  12.6818680  52.7435820 107.3855660  29.4277700  52.5217230
 108.1780980  28.9326930  52.3143190 107.6788810  30.1067840  53.1292840
 103.5115320  20.2998640  23.4033280 103.4309370  19.3853250  23.1324990
 103.0979740  20.7965710  22.6972990 101.6433360  22.0777660  25.2842550
 100.8675460  21.5978100  25.5741120 102.2946290  21.3983310  25.1098710
  95.6599190  22.3897470  26.1618310  94.8284070  22.1346180  26.5614820
  96.2680170  22.4608240  26.8976230 105.6640790  26.4837850  24.0641680
 105.2022320  25.7125090  24.3928850 106.4766340  26.5103920  24.5694130
  95.6400450  26.4237560  26.3576330  95.9428490  25.5335300  26.1786550
  96.3844040  26.9807780  26.1298580  94.0691140  17.3499360  19.9460700
  93.1807840  17.6915330  19.8440580  94.3532330  17.1499680  19.0541530
  92.0324150  19.9505010  25.8300400  92.6040260  19.1827210  25.8304040
  92.0325690  20.2493770  24.9207010 101.8904100  28.7695860  23.6845670
 101.2715540  29.2253360  23.1140110 102.7455880  28.9247320  23.2835370
 101.0842350  24.7534850  25.2912710 101.0150630  23.8124790  25.1301840
 101.8462210  24.8436260  25.8635280  93.2749020  15.3589370  27.6169330
  93.0951860  14.4615120  27.8972090  92.8729100  15.9061240  28.2916280
 102.1147520  17.5605230  25.5181640 102.4912340  16.6877110  25.4055310
 102.0167030  17.8963930  24.6272080  96.2452530  15.9330860  20.9799080
  96.3519280  16.8334590  21.2867840  95.3344890  15.8848830  20.6893730
 105.8971640  15.0555670  22.4509980 106.7181260  14.5652240  22.4935460
 105.9305720  15.6453330  23.2041820  93.8935690  17.8549870  26.2251670
  94.5745800  18.1188240  26.8439070  93.5783740  17.0150740  26.5589680
  98.0860260  18.9017230  25.3124260  98.5938480  19.3998200  25.9529280
  98.6173500  18.1252430  25.1363620 110.1871190  17.0722420  29.0153610
 109.4823360  17.4604130  28.4968720 110.4529110  17.7672710  29.6174540
  96.3696360  13.5415790  29.5787680  96.3714800  14.0588180  28.7733580
  95.5400670  13.0645970  29.5557610 102.7567450  23.6535100  21.0777580
 102.1384720  24.1184550  20.5140300 103.2690700  24.3462580  21.4947090
  97.6199210  23.1810970  27.7561180  97.2868590  23.8079890  28.3982250
  97.7965890  23.7072850  26.9762850 106.1333120  16.9956050  25.2237520
 105.4288690  17.2840940  25.8040630 106.4945280  17.8056160  24.8637080
  96.0511690  15.2525750  27.5858130  96.3928500  16.0967800  27.2912000
  95.1127500  15.4009490  27.7023470  96.8318310  25.1491770  29.5710360
  97.4492310  25.8242850  29.2894810  95.9711430  25.5579750  29.4797860
  92.1250650  24.3391630  18.4517210  91.7478630  24.8278730  17.7202110
  92.3823720  25.0116910  19.0823740 107.7495900  26.6131180  27.4865000
 107.0659420  27.2830290  27.4781670 108.2890190  26.8111830  26.7209860
 109.2020040  16.4410840  25.6146730 108.2544950  16.4749820  25.7462160
 109.5270030  17.2549790  25.9996090  99.7339580  12.7408020  23.9102720
 100.0414560  12.1854910  23.1938220  98.8040280  12.8752480  23.7275710
 105.2854640  28.4575310  26.2010180 105.2981800  28.0537600  25.3332440
 104.7329860  29.2322600  26.0971610 106.5800060  25.1791530  21.2900350
 106.4696390  24.2365860  21.4149770 106.5768310  25.5407170  22.1763110
 104.6840080  23.3605150  27.5292790 105.1008870  23.1465260  26.6946250
 105.4079900  23.6177940  28.1001410 102.1220340  20.8056850  20.6462840
 101.1949620  20.7394230  20.8751310 102.2745160  21.7436980  20.5318080
 102.1089420  17.0773850  17.6430000 101.1693090  17.2387810  17.7282460
 102.4272680  17.7959530  17.0965990 108.6302180  21.7592370  27.6209030
 107.8020810  21.8285460  27.1459160 109.2252660  22.3446680  27.1524860
 106.1517630  22.3677150  21.1498090 105.5330050  22.0296700  20.5024390
 106.1342080  21.7236910  21.8577280 105.5944190  18.5461690  28.5663900
 105.1815370  19.3715400  28.8203890 104.8620140  17.9606730  28.3740260
  97.7276980  21.3321590  23.4282570  97.3233980  20.6198840  22.9328470
  97.8140100  20.9874830  24.3170610  98.1958680  25.0189150  25.5921780
  97.8986970  24.4134620  24.9129560  99.1458500  25.0566460  25.4811140
  96.4405600  18.1064800  27.2081610  96.9920190  18.2160140  26.4334860
  96.9549110  18.4802400  27.9236840 106.2844290  28.5921020  29.2544880
 105.8074850  29.3993210  29.0617490 105.6006080  27.9399350  29.4071090
  97.2877110  24.7570840  32.2429580  96.3905640  24.9810810  32.4902980
  97.3129980  24.8805780  31.2940980 104.3282330  21.6063960  18.1570840
 104.7675610  20.7686390  18.0108660 105.0410750  22.2393360  18.2434980
  96.1148330  21.6284160  30.8186950  95.9756100  22.5006960  31.1874350
  95.2329690  21.2856970  30.6734890 102.4377710  26.5460030  22.1252080
 102.8773620  27.2884360  21.7107470 102.3764600  26.7886600  23.0491040
  97.9128680  27.5705860  33.0272100  97.8844110  27.9748810  32.1600530
  97.7493650  26.6416220  32.8643700 107.9099470  12.8606770  16.4711880
 107.5972130  12.9533600  17.3710950 108.6711940  13.4387800  16.4209310
  94.4281610  20.2266570  20.9289220  94.3079210  20.9528660  20.3170490
  94.1182500  19.4569480  20.4517130 109.8643500  28.3532960  34.3236270
 110.3403220  28.8315850  35.0025350 110.4850660  28.2850450  33.5981770
  92.0666980  23.3981710  26.7357860  92.1447400  23.5330480  25.7913580
  92.6808660  22.6897600  26.9285980  93.3114610  25.0981900  23.1464040
  92.9042690  25.2396490  22.2917640  94.2027620  24.8142060  22.9435250
 109.2676750  25.5445810  31.4836280 109.3939810  25.3057690  30.5653460
 109.3098130  24.7130350  31.9558360 103.1293490  29.2473810  30.0531090
 103.6438160  29.1581820  30.8553520 102.2862570  29.5933510  30.3459000
 105.1047890  29.5329150  19.4815090 104.9449030  29.2432090  20.3796920
 104.9394600  28.7569280  18.9460320  97.5836270  29.3127680  21.2586710
  97.4078750  28.3963220  21.0454510  96.7292010  29.6714970  21.4984510
 104.8074020  27.0416710  18.0413090 104.1139180  27.0394000  17.3815370
 105.5496880  26.6176030  17.6107260 104.3723950  28.6679420  22.1161580
 104.8280900  27.8868800  22.4300200 104.7116470  29.3786240  22.6602760
 109.1200760  17.5978270  32.4486020 108.5045030  18.1057940  31.9201480
 108.7997180  16.6976600  32.3911960  92.1226500  24.4395880  29.2752320
  92.2857540  23.9701240  28.4571690  92.5878950  23.9319440  29.9401160
  96.8945270  13.5701640  24.3112890  96.4513420  14.3511180  23.9797410
  97.4530260  13.8931530  25.0183830 101.1815080  16.4370160  29.9148210
 100.7194450  16.6453180  30.7268150 100.7793190  15.6229510  29.6118880
 106.1819590  17.6579110  31.0444870 105.3313180  17.3584860  31.3653940
 106.0221380  17.9021120  30.1328690 103.2769300  19.1580860  33.1443660
 103.6022710  18.3244610  32.8045890 104.0649630  19.6809380  33.2921990
 100.0104090  13.1912340  19.1918720  99.3858270  13.1872210  19.9172030
  99.9234210  12.3243300  18.7954690  98.9321170  14.1148970  26.1702490
  99.2293500  15.0211800  26.0894510  99.4806730  13.6267750  25.5562060
  96.6859490  18.6935210  22.0394140  96.4600410  18.4772380  22.9440760
  95.9052020  19.1263670  21.6940110 103.9157250  18.6998580  20.6384790
 103.3166140  19.4234380  20.4548410 104.4636860  18.6375360  19.8561240
  99.1258700  19.5920790  32.7054410  99.0302300  18.6515520  32.5554810
  99.9690680  19.8135860  32.3102480 102.5222120  17.3362120  22.6688070
 102.9151690  17.6534320  21.8556760 102.8838970  16.4574000  22.7832590
  94.2569240  16.0034460  30.8588190  93.8632630  16.8509670  31.0660970
  93.5687640  15.3660830  31.0496830 100.8314290  16.0869430  33.9284930
 100.1412610  15.8941630  34.5631020 101.5746590  16.3704070  34.4609230
  91.5586290  13.9262920  24.8918270  91.2699340  14.4965780  25.6043250
  92.3032050  13.4467370  25.2549500  91.7456520  17.8683040  16.1020990
  91.6631190  18.8113800  16.2435980  91.3939580  17.7257950  15.2233340
 103.1077260  19.9267870  26.7638850 102.3758380  20.4354680  27.1128950
 102.7101600  19.1097850  26.4627630  99.5454650  16.6022070  25.1691340
  99.5490710  16.1612020  24.3195880 100.4405770  16.9239400  25.2763160
  95.3957030  16.4848560  24.1285550  95.0557080  16.9623790  24.8852600
  94.6334350  16.0313680  23.7686650  99.6074800  17.6034150  18.1598100
  99.7287620  17.5620630  19.1083920  99.2223310  18.4658300  18.0044830
 103.5703170  15.3801550  26.1761790 103.5875910  15.8310200  27.0203640
 103.3218750  14.4807190  26.3895230  98.6196300  19.9135290  17.5581400
  98.0513200  19.4653540  16.9317310  99.3285300  20.2728070  17.0246550
 106.9973920  12.7933730  32.0148170 107.3219690  12.0623390  32.5406150
 107.0330430  12.4747370  31.1129160  93.6965480  23.8147310  31.4348130
  93.3120270  23.1740980  32.0331090  94.0077670  24.5183430  32.0042860
  99.8462620  20.6623850  26.9156750 100.2132750  20.1882420  27.6618090
  99.6567680  21.5365420  27.2565090  92.7103110  15.4067540  23.0450220
  92.4250030  15.0423210  23.8828840  92.6481970  14.6748000  22.4313360
  97.6361990  19.7032490  29.2340960  97.3319060  20.5824470  29.4591320
  98.5908450  19.7632280  29.2698400  96.1643780  23.9093480  19.8307810
  95.3906040  23.3691100  19.6706530  96.8938410  23.3900090  19.4925570
 106.9231760  22.9058840  25.6234200 107.6430880  23.4014130  25.2330310
 106.7213580  22.2276730  24.9788070 102.3841700  14.2996800  19.7663590
 101.5706310  13.8009970  19.6908900 102.1903650  15.1395050  19.3499940
 102.3050560  22.9767900  31.5103200 102.2387870  22.0563570  31.2560790
 101.6755700  23.0743340  32.2247840 105.0990090  18.6716450  18.0625750
 105.9869710  18.9833680  17.8877090 105.0695180  17.7988700  17.6706330
  96.2081180  23.5773860  23.4686620  96.7259850  22.7742120  23.4143510
  95.7565200  23.5153000  24.3103450 101.0950680  24.8440140  18.7413920
 101.4366380  25.5882370  18.2457240 100.2663390  25.1571260  19.1038750
  93.6925720  20.5435230  30.3812320  93.3340660  21.2089080  30.9685660
  93.3980280  19.7118780  30.7524940  96.8938840  21.0019470  33.2651870
  96.5938980  21.1476650  32.3679690  97.6650080  20.4424760  33.1725260
 102.2367290  25.7988470  31.2607000 102.2511830  24.8669430  31.0425910
 101.5292390  25.8848230  31.8996770 107.3704360  19.9828290  17.5305610
 107.2868080  20.4142510  16.6802050 108.0898550  20.4426640  17.9632430
 108.4478500  22.4395810  30.6075580 107.7226690  23.0324590  30.4104970
 108.9753960  22.4319350  29.8088950 108.3991610  26.8370550  20.2587740
 107.7567770  26.1826170  20.5331460 108.0122270  27.2425640  19.4828410
 103.9778090  24.1655980  24.1059430 104.3301910  23.5684110  23.4460800
 103.0940420  23.8400210  24.2767680 100.0641370  24.9253670  21.5129840
 100.7512500  25.4722880  21.8937430  99.2773790  25.4694400  21.5479450
  92.2033770  20.5426490  17.0046920  93.0728620  20.8251290  17.2882840
  91.7124090  21.3562360  16.8895730  99.3668580  21.9299700  21.1255200
  99.8231360  22.7404950  21.3515390  99.0156790  21.6122840  21.9573690
 101.6701190  27.4406040  28.3547500 102.3143410  27.6465420  29.0320920
 102.0330630  26.6794440  27.9018350  95.2680360  12.2737350  21.5977720
  95.1394990  12.2655250  22.5462640  94.4442380  12.6120440  21.2468730
 102.9433270  25.4438390  27.0724950 103.5855500  24.7431550  27.1857120
 103.4682620  26.2236830  26.8921840 106.7888990  25.7287010  16.7964090
 106.5626570  25.0117450  17.3888730 106.3985190  25.4799450  15.9585840
 104.7170890  26.2433290  30.2761010 105.0527130  26.8299980  30.9538930
 103.7971230  26.1126000  30.5058800  92.5705020  29.7553870  17.5708550
  92.9302660  30.3543210  16.9165820  92.4297360  30.3013760  18.3443580
  92.2674290  14.0328470  31.0584420  91.5532810  14.2325390  31.6637030
  92.6869330  13.2568040  31.4299220 106.3705240  23.6458950  18.4578250
 106.0826940  24.1071640  19.2456130 107.1657410  23.1856720  18.7262470
  92.5546880  28.0208730  32.0450950  92.6638000  27.0803470  31.9046340
  91.9027440  28.2863480  31.3964680 100.5459470  26.2924620  33.4449070
 100.2256340  25.5733860  33.9894760  99.8717830  26.9679690  33.5185130
  98.5873640  27.1385070  18.3882220  98.5783740  27.8714760  17.7726730
  97.6672000  26.8916650  18.4809180  94.1880280  22.3599960  19.1328980
  93.5808230  23.0998860  19.1424280  94.6629630  22.4499320  18.3067180
 103.7613070  16.5250780  28.8085870 104.1293890  15.7045990  29.1365440
 102.9011270  16.5852670  29.2241520 107.1275100  15.4807720  19.6173430
 106.4988260  15.5853390  18.9031660 106.6327020  15.7004500  20.4067310
 101.5733240  27.2013310  17.0507410 101.6745220  26.9977300  16.1209390
 100.6734980  26.9471590  17.2555190  99.0959130  17.7593670  21.0331310
  98.3875280  18.2280010  21.4744920  99.3803610  17.1015680  21.6676500
 100.7215060  19.1790370  29.0323840 101.2200310  19.6536190  29.6975690
 100.8638010  18.2553890  29.2393870 103.1274560  14.4844330  22.4727100
 103.0042340  14.5030460  21.5236610 104.0759120  14.5323270  22.5925500
 100.2151350  29.7199630  21.7455080 100.4692850  29.6821020  20.8234450
  99.2663830  29.5932960  21.7383330  97.2994150  16.0678750  18.4082020
  98.1484680  16.5048900  18.3422210  96.9325420  16.3799010  19.2354080
 107.9281920  15.3958330  29.8752230 107.4255520  16.1363730  30.2146040
 108.7438580  15.7842330  29.5589020 106.2203930  20.6391510  23.3213590
 105.2794070  20.6541740  23.4961280 106.5348000  19.8527470  23.7673890
  96.1985570  22.3211110  16.8817550  96.9648840  22.2092470  17.4442980
  96.2760260  21.6249080  16.2294320  94.8932330  19.7536180  17.5650440
  94.9735920  18.8063690  17.6767840  95.7852080  20.0843060  17.6711100
 108.2229510  27.8100360  24.9967850 108.3476930  28.6331530  25.4691660
 109.0895070  27.5991090  24.6492000  95.6947040  29.9031570  24.6684980
  96.4309520  29.3547030  24.9393550  96.0787960  30.7687580  24.5290970
  92.5792520  25.9705140  20.5426490  91.6532300  26.2126280  20.5331900
  93.0448950  26.7979400  20.4211240  94.7005320  29.0877640  33.8570560
  95.5018050  29.4089690  34.2705960  94.1857140  28.7273220  34.5790470
  98.8049350  29.0761880  16.4910550  99.5977960  29.3650710  16.0392340
  98.2853700  28.6454050  15.8123030 103.5369950  25.1957510  33.8045970
 102.9308110  25.2189110  33.0641720 103.2324060  24.4640550  34.3413220
 104.9670320  28.9237800  32.4155380 105.9192070  28.8395820  32.3655620
 104.8198540  29.5879510  33.0889170 107.8579520  28.3032010  17.9147290
 107.5721030  27.8897150  17.1001470 107.6599070  29.2319720  17.7947810
  92.4203130  21.5751100  32.8006610  92.9242150  20.9958380  33.3722840
  91.6810550  21.8591330  33.3382980  99.3226750  24.2965290  16.3552900
  99.2177390  23.6817640  17.0814280  99.1550970  23.7731180  15.5715910
  99.4741070  22.9822090  32.3342130  98.7086740  23.5507090  32.2496800
  99.6557030  22.6898300  31.4410360 102.5629480  23.3585320  16.9594890
 102.0139580  23.8054620  17.6037630 103.1848740  22.8534570  17.4832560
 106.6164420  24.7127420  32.8917150 107.3573890  25.0503180  32.3884610
 105.8537100  24.8819480  32.3386920  94.4526210  19.7180690  33.6956680
  94.4931550  19.4194560  34.6041910  95.3071710  20.1188300  33.5364200
  98.2304600  22.3176240  18.8560190  98.6521020  22.1516110  19.6991580
  98.3555440  21.5076470  18.3615330  96.3932020  18.2972790  31.6631170
  95.8628480  17.8063740  31.0354510  97.0620090  18.7256990  31.1289100
 100.7432240  21.3413850  16.1037290 101.2637900  20.6262870  15.7378440
 101.3900640  21.9799720  16.4037800 105.2910080  22.7642250  31.4272360
 105.7051100  22.9187330  32.2762780 104.3561080  22.8897470  31.5898140
 105.7632250  20.1038410  33.4311510 106.3453020  19.3490730  33.3431990
 105.9394020  20.6345850  32.6542990  96.8804320  15.2635160  31.7428460
  96.7861190  14.6455910  31.0179330  96.3001710  15.9901450  31.5158370
  99.6465760  13.8208400  28.7755850  99.1983060  13.8432660  27.9301400
  99.0130960  13.4227420  29.3726150 100.0525310  22.7162730  29.3968290
 100.4713420  23.5595460  29.2244530  99.1333940  22.8534770  29.1675070
 102.3889210  20.4478910  30.7806130 102.5085420  19.8520050  31.5200970
 103.2483210  20.4848600  30.3607430 104.7277110  21.0016100  29.3568640
 104.2012330  21.5258720  28.7533780 105.0708450  21.6343490  29.9878370
  97.1263500  18.3909470  15.8018350  96.9252560  17.5276830  16.1631690
  96.9555550  18.3042830  14.8639950  97.9032730  29.0215740  30.5126020
  97.3653820  29.7461800  30.1934720  98.1566690  28.5446080  29.7223360
  99.1557980  16.9900260  32.0381950  99.7457670  16.6816110  32.7259770
  98.3378220  16.5180010  32.1941850 103.9751410  16.6066070  32.2714970
 103.2866930  15.9447610  32.2064960 104.6957430  16.1604340  32.7163430
 104.6051810  13.2017700  18.3305230 104.8854100  12.3585600  18.6864650
 103.8317540  13.4340810  18.8443980  95.9246300  15.4910090  15.7896230
  96.2272200  15.4977520  14.8815380  96.6640890  15.1407950  16.2863890
 100.7594940  30.2566950  30.7712670 100.6853640  31.1602090  31.0785040
  99.8573780  29.9378850  30.7434740  99.1431230  14.4344710  16.7752430
  98.7953230  13.7568700  16.1954880  99.3444000  13.9734220  17.5895820
 101.3080270  29.4225460  18.3939030 102.2031060  29.7610430  18.4157790
 101.3397900  28.7004870  17.7663310  94.9476430  24.7952510  16.6226030
  95.3851300  25.3382180  17.2783610  95.4324160  23.9699460  16.6322370
  92.1622230  27.5841540  24.0746290  92.4925240  26.7162600  23.8424930
  92.5913230  27.7900060  24.9051250  96.7584150  25.9150550  21.7348260
  96.4579690  25.7915520  22.6352170  96.6521640  25.0559140  21.3263990
  92.6512440  28.4512130  26.8127920  92.2143430  28.6312930  27.6452070
  93.2190120  29.2086750  26.6709640 108.2874620  27.9529130  31.1005230
 107.6876610  28.0121690  30.3569150 108.4168520  27.0134110  31.2302080
 109.5276070  25.6946950  16.4374940 108.6969030  25.7623600  16.9082170
 109.7047900  26.5851070  16.1341800 108.9832530  22.4394430  18.9409140
 109.7451440  23.0091080  19.0468830 108.9986900  21.8721630  19.7117450
  92.4836870  20.9632360  23.1716800  91.8285710  20.6944000  22.5276500
  93.3214820  20.8536840  22.7218780 109.9892500  23.2944530  23.7851070
 110.3601330  22.5111850  23.3787040 110.6294430  23.9833630  23.6068370
 106.9726260  24.6781110  29.1981390 106.1586100  25.1078270  29.4607180
 107.3800460  25.2899520  28.5850440 109.0351700  22.7328800  16.0981660
 109.3100540  23.6407680  15.9700880 108.8462440  22.6691330  17.0343650
 105.4327310  15.7573650  17.3935290 105.8512190  15.5704630  16.5531950
 105.1263370  14.9052700  17.7038220 108.9317040  20.6697790  21.0911090
 108.5560640  19.9025720  20.6592380 108.2020160  21.0520490  21.5786020
  93.5212800  21.3484930  27.7120140  93.8885840  21.2612330  28.5916160
  92.9523620  20.5851480  27.6127000 108.3216660  19.8169310  30.7250610
 108.0902750  19.5882060  29.8248560 108.5821210  20.7368860  30.6795500
  93.0728800  18.2594020  31.6178560  92.1784850  18.2260780  31.9572270
  93.6126350  18.4580810  32.3829810 106.7604730  15.0425740  33.5030310
 107.6374910  15.0509140  33.8864310 106.7725570  14.3056580  32.8922660
  91.6974950  18.1731290  19.1142130  90.7939030  18.4361490  18.9393790
  92.1815570  18.4442460  18.3342090 108.2068000  18.8955280  24.3918330
 108.7305480  18.4017930  23.7608500 108.7927420  19.0305640  25.1365900
 108.3857720  18.9795150  27.9137880 107.4360430  18.9458690  28.0282870
 108.5670730  19.8895260  27.6787650  94.2402160  17.2296830  17.0236510
  94.9493860  16.8080050  16.5383790  93.5242100  17.2972060  16.3919860
  93.8876320  13.2836160  16.0639160  94.6104450  13.8245100  16.3820380
  94.1600840  13.0099580  15.1880700 107.6967970  18.1528630  20.3310740
 108.1927090  17.9199500  21.1159620 107.4984040  17.3140470  19.9148380
  93.5768510  12.5342350  25.9661780  94.2244700  11.9839730  25.5256940
  93.9970350  12.7885500  26.7877590 109.1255130  16.7889580  22.8648420
 109.0154410  16.6345620  23.8030690 109.8862720  16.2610520  22.6223830
 107.4720850  12.7283710  29.3231420 108.1093070  13.3417850  29.6890610
 107.6195740  12.7644370  28.3780650 110.0145400  14.6197500  16.1054560
 110.9394710  14.4878680  15.8972850 109.9921190  14.6990320  17.0591010
 110.0883890  15.3908160  18.7311270 109.2935390  15.3253280  19.2604180
 110.2927170  16.3258800  18.7196620 107.0302310  29.4299710  22.7249660
 107.6261380  29.1084280  22.0484080 107.2880460  28.9571530  23.5162930
  93.3300510  12.6898020  28.7087100  92.9815330  13.1461840  29.4745280
  92.9988210  11.7955150  28.7909530  94.9364880  25.8617620  32.8740290
  94.8934510  25.4910530  33.7554750  95.0675890  26.7995190  33.0142110
  98.6370910  27.4177210  28.4750010  98.3962270  27.6851770  27.5880530
  99.5773550  27.5882940  28.5300870 100.8425330  13.8809900  32.2306520
 100.7814220  14.4731730  32.9801930 101.7825710  13.7735860  32.0856780
 103.4799890  13.5379960  31.8698810 104.0940300  13.8559250  31.2079890
 104.0249450  13.0528550  32.4894670 109.8975070  29.4371590  29.2760650
 109.4033350  29.8340460  28.5587780 109.2888360  28.8120800  29.6697930
  94.0021150  12.2174220  31.9837870  94.5504140  12.0362270  31.2203980
  94.0676460  11.4268330  32.5194180  94.7752910  28.8079870  29.9938070
  94.1813230  28.6764570  30.7328110  94.7676750  27.9718010  29.5280170
 104.2207930  12.1012100  28.1968100 103.3467770  12.4347210  27.9941030
 104.1118680  11.6285280  29.0219970 105.1279910  14.3082970  29.5809820
 104.7993270  13.4934730  29.2011550 106.0762210  14.2652780  29.4575510
 107.5814520  30.0795010  26.5547390 107.1217490  30.8310820  26.1805410
 106.9526980  29.3601480  26.4962190  94.4065140  26.1738250  28.9446110
  93.6799200  25.5543540  28.8772060  94.4674290  26.5678860  28.0744190
  98.0110240  28.3883250  25.7295520  98.5275260  27.7770610  25.2043780
  98.6607620  28.8912030  26.2206530 100.7505740  29.2791740  26.5564500
 101.0383550  29.0246040  25.6797510 101.2628960  28.7269100  27.1470070
 101.9682750  13.0181940  27.1361010 101.1854540  13.4927440  27.4157770
 101.6745680  12.1136770  27.0274190 106.5203820  13.7205040  25.1810100
 106.9611910  13.6650140  24.3331700 106.2511410  14.6363050  25.2520280
 108.3842390  13.3520280  23.1918920 108.3230790  12.4081500  23.0449940
 109.1634420  13.4600370  23.7372380  92.6895140  29.4912640  22.1542870
  92.5217180  28.8583320  22.8524760  91.8229650  29.6972040  21.8037060
  93.3123160  13.3229420  19.6574730  94.0702520  13.4358300  19.0838760
  92.8500330  14.1598620  19.6118160  99.8536970  15.4368690  22.6477040
  99.0411480  15.0625580  22.3072920 100.3578610  14.6813770  22.9498230
 104.3561950  12.1011140  23.8860110 104.9591320  12.6731350  24.3608630
 103.6154940  12.6650580  23.6634010 107.4996550  12.5032700  19.1600390
 107.6947180  13.4016150  19.4267820 106.7126420  12.2719780  19.6533340
  94.2957840  28.1845870  19.5993010  93.7705460  28.5653900  18.8954970
  94.2202420  28.8096640  20.3202720  95.6848310  13.8493470  18.1976700
  96.2141070  13.0623270  18.0684650  96.3176630  14.5284660  18.4312230
  97.8786150  13.5868610  21.2522090  97.2488890  12.8855920  21.4192220
  97.3391290  14.3472740  21.0355250 100.8178100  30.2007840  33.9232700
 101.7445410  29.9652110  33.9668660 100.8028530  31.0279840  33.4418730
 109.0523160  29.7433410  20.9206950 109.2275350  29.0571150  20.2767870
 108.3544730  30.2680460  20.5283620  98.0041710  12.8652590  33.6874580
  97.7225980  13.3686190  32.9235400  98.3861410  12.0674340  33.3216710
  96.8950810  30.1328250  18.4742260  97.6269630  29.8487530  17.9266150
  97.1544480  29.8941530  19.3641640  96.0565600  26.2492980  18.4788590
  95.4274480  26.7178080  19.0274420  96.1713430  25.4042200  18.9134780
 104.6057170  12.2806170  34.2655050 104.4922620  12.6000780  35.1606570
 105.4226910  12.6818680  33.9692330 107.3855660  29.4277700  33.7473740
 108.1780980  28.9326930  33.5399700 107.6788810  30.1067840  34.3549350
 103.5115320  20.2998640   4.6289790 103.4309370  19.3853250   4.3581500
 103.0979740  20.7965710   3.9229500 101.6433360  22.0777660   6.5099060
 100.8675460  21.5978100   6.7997630 102.2946290  21.3983310   6.3355220
  95.6599190  22.3897470   7.3874820  94.8284070  22.1346180   7.7871330
  96.2680170  22.4608240   8.1232740 105.6640790  26.4837850   5.2898190
 105.2022320  25.7125090   5.6185360 106.4766340  26.5103920   5.7950640
  95.6400450  26.4237560   7.5832840  95.9428490  25.5335300   7.4043060
  96.3844040  26.9807780   7.3555090  92.0324150  19.9505010   7.0556910
  92.6040260  19.1827210   7.0560550  92.0325690  20.2493770   6.1463520
 101.8904100  28.7695860   4.9102180 101.2715540  29.2253360   4.3396620
 102.7455880  28.9247320   4.5091880 101.0842350  24.7534850   6.5169220
 101.0150630  23.8124790   6.3558350 101.8462210  24.8436260   7.0891790
  93.2749020  15.3589370   8.8425840  93.0951860  14.4615120   9.1228600
  92.8729100  15.9061240   9.5172790 102.1147520  17.5605230   6.7438150
 102.4912340  16.6877110   6.6311820 102.0167030  17.8963930   5.8528590
  96.2452530  15.9330860   2.2055590  96.3519280  16.8334590   2.5124350
  95.3344890  15.8848830   1.9150240 105.8971640  15.0555670   3.6766490
 106.7181260  14.5652240   3.7191970 105.9305720  15.6453330   4.4298330
  93.8935690  17.8549870   7.4508180  94.5745800  18.1188240   8.0695580
  93.5783740  17.0150740   7.7846190  98.0860260  18.9017230   6.5380770
  98.5938480  19.3998200   7.1785790  98.6173500  18.1252430   6.3620130
 110.1871190  17.0722420  10.2410120 109.4823360  17.4604130   9.7225230
 110.4529110  17.7672710  10.8431050  96.3696360  13.5415790  10.8044190
  96.3714800  14.0588180   9.9990090  95.5400670  13.0645970  10.7814120
 102.7567450  23.6535100   2.3034090 102.1384720  24.1184550   1.7396810
 103.2690700  24.3462580   2.7203600  97.6199210  23.1810970   8.9817690
  97.2868590  23.8079890   9.6238760  97.7965890  23.7072850   8.2019360
 106.1333120  16.9956050   6.4494030 105.4288690  17.2840940   7.0297140
 106.4945280  17.8056160   6.0893590  96.0511690  15.2525750   8.8114640
  96.3928500  16.0967800   8.5168510  95.1127500  15.4009490   8.9279980
  96.8318310  25.1491770  10.7966870  97.4492310  25.8242850  10.5151320
  95.9711430  25.5579750  10.7054370 107.7495900  26.6131180   8.7121510
 107.0659420  27.2830290   8.7038180 108.2890190  26.8111830   7.9466370
 109.2020040  16.4410840   6.8403240 108.2544950  16.4749820   6.9718670
 109.5270030  17.2549790   7.2252600  99.7339580  12.7408020   5.1359230
 100.0414560  12.1854910   4.4194730  98.8040280  12.8752480   4.9532220
 105.2854640  28.4575310   7.4266690 105.2981800  28.0537600   6.5588950
 104.7329860  29.2322600   7.3228120 106.5800060  25.1791530   2.5156860
 106.4696390  24.2365860   2.6406280 106.5768310  25.5407170   3.4019620
 104.6840080  23.3605150   8.7549300 105.1008870  23.1465260   7.9202760
 105.4079900  23.6177940   9.3257920 102.1220340  20.8056850   1.8719350
 101.1949620  20.7394230   2.1007820 102.2745160  21.7436980   1.7574590
 108.6302180  21.7592370   8.8465540 107.8020810  21.8285460   8.3715670
 109.2252660  22.3446680   8.3781370 106.1517630  22.3677150   2.3754600
 105.5330050  22.0296700   1.7280900 106.1342080  21.7236910   3.0833790
 105.5944190  18.5461690   9.7920410 105.1815370  19.3715400  10.0460400
 104.8620140  17.9606730   9.5996770  97.7276980  21.3321590   4.6539080
  97.3233980  20.6198840   4.1584980  97.8140100  20.9874830   5.5427120
  98.1958680  25.0189150   6.8178290  97.8986970  24.4134620   6.1386070
  99.1458500  25.0566460   6.7067650  96.4405600  18.1064800   8.4338120
  96.9920190  18.2160140   7.6591370  96.9549110  18.4802400   9.1493350
 106.2844290  28.5921020  10.4801390 105.8074850  29.3993210  10.2874000
 105.6006080  27.9399350  10.6327600  97.2877110  24.7570840  13.4686090
  96.3905640  24.9810810  13.7159490  97.3129980  24.8805780  12.5197490
  96.1148330  21.6284160  12.0443460  95.9756100  22.5006960  12.4130860
  95.2329690  21.2856970  11.8991400 102.4377710  26.5460030   3.3508590
 102.8773620  27.2884360   2.9363980 102.3764600  26.7886600   4.2747550
  97.9128680  27.5705860  14.2528610  97.8844110  27.9748810  13.3857040
  97.7493650  26.6416220  14.0900210  94.4281610  20.2266570   2.1545730
  94.3079210  20.9528660   1.5427000  94.1182500  19.4569480   1.6773640
 109.8643500  28.3532960  15.5492780 110.3403220  28.8315850  16.2281860
 110.4850660  28.2850450  14.8238280  92.0666980  23.3981710   7.9614370
  92.1447400  23.5330480   7.0170090  92.6808660  22.6897600   8.1542490
  93.3114610  25.0981900   4.3720550  92.9042690  25.2396490   3.5174150
  94.2027620  24.8142060   4.1691760 109.2676750  25.5445810  12.7092790
 109.3939810  25.3057690  11.7909970 109.3098130  24.7130350  13.1814870
 103.1293490  29.2473810  11.2787600 103.6438160  29.1581820  12.0810030
 102.2862570  29.5933510  11.5715510  97.5836270  29.3127680   2.4843220
  97.4078750  28.3963220   2.2711020  96.7292010  29.6714970   2.7241020
 104.3723950  28.6679420   3.3418090 104.8280900  27.8868800   3.6556710
 104.7116470  29.3786240   3.8859270 109.1200760  17.5978270  13.6742530
 108.5045030  18.1057940  13.1457990 108.7997180  16.6976600  13.6168470
  92.1226500  24.4395880  10.5008830  92.2857540  23.9701240   9.6828200
  92.5878950  23.9319440  11.1657670  96.8945270  13.5701640   5.5369400
  96.4513420  14.3511180   5.2053920  97.4530260  13.8931530   6.2440340
 101.1815080  16.4370160  11.1404720 100.7194450  16.6453180  11.9524660
 100.7793190  15.6229510  10.8375390 106.1819590  17.6579110  12.2701380
 105.3313180  17.3584860  12.5910450 106.0221380  17.9021120  11.3585200
 103.2769300  19.1580860  14.3700170 103.6022710  18.3244610  14.0302400
 104.0649630  19.6809380  14.5178500  98.9321170  14.1148970   7.3959000
  99.2293500  15.0211800   7.3151020  99.4806730  13.6267750   6.7818570
  96.6859490  18.6935210   3.2650650  96.4600410  18.4772380   4.1697270
  95.9052020  19.1263670   2.9196620  99.1258700  19.5920790  13.9310920
  99.0302300  18.6515520  13.7811320  99.9690680  19.8135860  13.5358990
 102.5222120  17.3362120   3.8944580 102.9151690  17.6534320   3.0813270
 102.8838970  16.4574000   4.0089100  94.2569240  16.0034460  12.0844700
  93.8632630  16.8509670  12.2917480  93.5687640  15.3660830  12.2753340
 100.8314290  16.0869430  15.1541440 100.1412610  15.8941630  15.7887530
 101.5746590  16.3704070  15.6865740  91.5586290  13.9262920   6.1174780
  91.2699340  14.4965780   6.8299760  92.3032050  13.4467370   6.4806010
 103.1077260  19.9267870   7.9895360 102.3758380  20.4354680   8.3385460
 102.7101600  19.1097850   7.6884140  99.5454650  16.6022070   6.3947850
  99.5490710  16.1612020   5.5452390 100.4405770  16.9239400   6.5019670
  95.3957030  16.4848560   5.3542060  95.0557080  16.9623790   6.1109110
  94.6334350  16.0313680   4.9943160 103.5703170  15.3801550   7.4018300
 103.5875910  15.8310200   8.2460150 103.3218750  14.4807190   7.6151740
 106.9973920  12.7933730  13.2404680 107.3219690  12.0623390  13.7662660
 107.0330430  12.4747370  12.3385670  93.6965480  23.8147310  12.6604640
  93.3120270  23.1740980  13.2587600  94.0077670  24.5183430  13.2299370
  99.8462620  20.6623850   8.1413260 100.2132750  20.1882420   8.8874600
  99.6567680  21.5365420   8.4821600  92.7103110  15.4067540   4.2706730
  92.4250030  15.0423210   5.1085350  92.6481970  14.6748000   3.6569870
  97.6361990  19.7032490  10.4597470  97.3319060  20.5824470  10.6847830
  98.5908450  19.7632280  10.4954910 106.9231760  22.9058840   6.8490710
 107.6430880  23.4014130   6.4586820 106.7213580  22.2276730   6.2044580
 102.3050560  22.9767900  12.7359710 102.2387870  22.0563570  12.4817300
 101.6755700  23.0743340  13.4504350  96.2081180  23.5773860   4.6943130
  96.7259850  22.7742120   4.6400020  95.7565200  23.5153000   5.5359960
  93.6925720  20.5435230  11.6068830  93.3340660  21.2089080  12.1942170
  93.3980280  19.7118780  11.9781450  96.8938840  21.0019470  14.4908380
  96.5938980  21.1476650  13.5936200  97.6650080  20.4424760  14.3981770
 102.2367290  25.7988470  12.4863510 102.2511830  24.8669430  12.2682420
 101.5292390  25.8848230  13.1253280 108.4478500  22.4395810  11.8332090
 107.7226690  23.0324590  11.6361480 108.9753960  22.4319350  11.0345460
 103.9778090  24.1655980   5.3315940 104.3301910  23.5684110   4.6717310
 103.0940420  23.8400210   5.5024190 100.0641370  24.9253670   2.7386350
 100.7512500  25.4722880   3.1193940  99.2773790  25.4694400   2.7735960
  99.3668580  21.9299700   2.3511710  99.8231360  22.7404950   2.5771900
  99.0156790  21.6122840   3.1830200 101.6701190  27.4406040   9.5804010
 102.3143410  27.6465420  10.2577430 102.0330630  26.6794440   9.1274860
  95.2680360  12.2737350   2.8234230  95.1394990  12.2655250   3.7719150
  94.4442380  12.6120440   2.4725240 102.9433270  25.4438390   8.2981460
 103.5855500  24.7431550   8.4113630 103.4682620  26.2236830   8.1178350
 104.7170890  26.2433290  11.5017520 105.0527130  26.8299980  12.1795440
 103.7971230  26.1126000  11.7315310  92.2674290  14.0328470  12.2840930
  91.5532810  14.2325390  12.8893540  92.6869330  13.2568040  12.6555730
  92.5546880  28.0208730  13.2707460  92.6638000  27.0803470  13.1302850
  91.9027440  28.2863480  12.6221190 100.5459470  26.2924620  14.6705580
 100.2256340  25.5733860  15.2151270  99.8717830  26.9679690  14.7441640
 103.7613070  16.5250780  10.0342380 104.1293890  15.7045990  10.3621950
 102.9011270  16.5852670  10.4498030  99.0959130  17.7593670   2.2587820
  98.3875280  18.2280010   2.7001430  99.3803610  17.1015680   2.8933010
 100.7215060  19.1790370  10.2580350 101.2200310  19.6536190  10.9232200
 100.8638010  18.2553890  10.4650380 103.1274560  14.4844330   3.6983610
 103.0042340  14.5030460   2.7493120 104.0759120  14.5323270   3.8182010
 100.2151350  29.7199630   2.9711590 100.4692850  29.6821020   2.0490960
  99.2663830  29.5932960   2.9639840 107.9281920  15.3958330  11.1008740
 107.4255520  16.1363730  11.4402550 108.7438580  15.7842330  10.7845530
 106.2203930  20.6391510   4.5470100 105.2794070  20.6541740   4.7217790
 106.5348000  19.8527470   4.9930400 108.2229510  27.8100360   6.2224360
 108.3476930  28.6331530   6.6948170 109.0895070  27.5991090   5.8748510
  95.6947040  29.9031570   5.8941490  96.4309520  29.3547030   6.1650060
  96.0787960  30.7687580   5.7547480  92.5792520  25.9705140   1.7683000
  91.6532300  26.2126280   1.7588410  93.0448950  26.7979400   1.6467750
  94.7005320  29.0877640  15.0827070  95.5018050  29.4089690  15.4962470
  94.1857140  28.7273220  15.8046980 103.5369950  25.1957510  15.0302480
 102.9308110  25.2189110  14.2898230 103.2324060  24.4640550  15.5669730
 104.9670320  28.9237800  13.6411890 105.9192070  28.8395820  13.5912130
 104.8198540  29.5879510  14.3145680  92.4203130  21.5751100  14.0263120
  92.9242150  20.9958380  14.5979350  91.6810550  21.8591330  14.5639490
  99.4741070  22.9822090  13.5598640  98.7086740  23.5507090  13.4753310
  99.6557030  22.6898300  12.6666870 106.6164420  24.7127420  14.1173660
 107.3573890  25.0503180  13.6141120 105.8537100  24.8819480  13.5643430
  94.4526210  19.7180690  14.9213190  94.4931550  19.4194560  15.8298420
  95.3071710  20.1188300  14.7620710  96.3932020  18.2972790  12.8887680
  95.8628480  17.8063740  12.2611020  97.0620090  18.7256990  12.3545610
 105.2910080  22.7642250  12.6528870 105.7051100  22.9187330  13.5019290
 104.3561080  22.8897470  12.8154650 105.7632250  20.1038410  14.6568020
 106.3453020  19.3490730  14.5688500 105.9394020  20.6345850  13.8799500
  96.8804320  15.2635160  12.9684970  96.7861190  14.6455910  12.2435840
  96.3001710  15.9901450  12.7414880  99.6465760  13.8208400  10.0012360
  99.1983060  13.8432660   9.1557910  99.0130960  13.4227420  10.5982660
 100.0525310  22.7162730  10.6224800 100.4713420  23.5595460  10.4501040
  99.1333940  22.8534770  10.3931580 102.3889210  20.4478910  12.0062640
 102.5085420  19.8520050  12.7457480 103.2483210  20.4848600  11.5863940
 104.7277110  21.0016100  10.5825150 104.2012330  21.5258720   9.9790290
 105.0708450  21.6343490  11.2134880  97.9032730  29.0215740  11.7382530
  97.3653820  29.7461800  11.4191230  98.1566690  28.5446080  10.9479870
  99.1557980  16.9900260  13.2638460  99.7457670  16.6816110  13.9516280
  98.3378220  16.5180010  13.4198360 103.9751410  16.6066070  13.4971480
 103.2866930  15.9447610  13.4321470 104.6957430  16.1604340  13.9419940
 100.7594940  30.2566950  11.9969180 100.6853640  31.1602090  12.3041550
  99.8573780  29.9378850  11.9691250  92.1622230  27.5841540   5.3002800
  92.4925240  26.7162600   5.0681440  92.5913230  27.7900060   6.1307760
  96.7584150  25.9150550   2.9604770  96.4579690  25.7915520   3.8608680
  96.6521640  25.0559140   2.5520500  92.6512440  28.4512130   8.0384430
  92.2143430  28.6312930   8.8708580  93.2190120  29.2086750   7.8966150
 108.2874620  27.9529130  12.3261740 107.6876610  28.0121690  11.5825660
 108.4168520  27.0134110  12.4558590  92.4836870  20.9632360   4.3973310
  91.8285710  20.6944000   3.7533010  93.3214820  20.8536840   3.9475290
 109.9892500  23.2944530   5.0107580 110.3601330  22.5111850   4.6043550
 110.6294430  23.9833630   4.8324880 106.9726260  24.6781110  10.4237900
 106.1586100  25.1078270  10.6863690 107.3800460  25.2899520   9.8106950
 108.9317040  20.6697790   2.3167600 108.5560640  19.9025720   1.8848890
 108.2020160  21.0520490   2.8042530  93.5212800  21.3484930   8.9376650
  93.8885840  21.2612330   9.8172670  92.9523620  20.5851480   8.8383510
 108.3216660  19.8169310  11.9507120 108.0902750  19.5882060  11.0505070
 108.5821210  20.7368860  11.9052010  93.0728800  18.2594020  12.8435070
  92.1784850  18.2260780  13.1828780  93.6126350  18.4580810  13.6086320
 106.7604730  15.0425740  14.7286820 107.6374910  15.0509140  15.1120820
 106.7725570  14.3056580  14.1179170 108.2068000  18.8955280   5.6174840
 108.7305480  18.4017930   4.9865010 108.7927420  19.0305640   6.3622410
 108.3857720  18.9795150   9.1394390 107.4360430  18.9458690   9.2539380
 108.5670730  19.8895260   8.9044160  93.5768510  12.5342350   7.1918290
  94.2244700  11.9839730   6.7513450  93.9970350  12.7885500   8.0134100
 109.1255130  16.7889580   4.0904930 109.0154410  16.6345620   5.0287200
 109.8862720  16.2610520   3.8480340 107.4720850  12.7283710  10.5487930
 108.1093070  13.3417850  10.9147120 107.6195740  12.7644370   9.6037160
 107.0302310  29.4299710   3.9506170 107.6261380  29.1084280   3.2740590
 107.2880460  28.9571530   4.7419440  93.3300510  12.6898020   9.9343610
  92.9815330  13.1461840  10.7001790  92.9988210  11.7955150  10.0166040
  94.9364880  25.8617620  14.0996800  94.8934510  25.4910530  14.9811260
  95.0675890  26.7995190  14.2398620  98.6370910  27.4177210   9.7006520
  98.3962270  27.6851770   8.8137040  99.5773550  27.5882940   9.7557380
 100.8425330  13.8809900  13.4563030 100.7814220  14.4731730  14.2058440
 101.7825710  13.7735860  13.3113290 103.4799890  13.5379960  13.0955320
 104.0940300  13.8559250  12.4336400 104.0249450  13.0528550  13.7151180
 109.8975070  29.4371590  10.5017160 109.4033350  29.8340460   9.7844290
 109.2888360  28.8120800  10.8954440  94.0021150  12.2174220  13.2094380
  94.5504140  12.0362270  12.4460490  94.0676460  11.4268330  13.7450690
  94.7752910  28.8079870  11.2194580  94.1813230  28.6764570  11.9584620
  94.7676750  27.9718010  10.7536680 104.2207930  12.1012100   9.4224610
 103.3467770  12.4347210   9.2197540 104.1118680  11.6285280  10.2476480
 105.1279910  14.3082970  10.8066330 104.7993270  13.4934730  10.4268060
 106.0762210  14.2652780  10.6832020 107.5814520  30.0795010   7.7803900
 107.1217490  30.8310820   7.4061920 106.9526980  29.3601480   7.7218700
  94.4065140  26.1738250  10.1702620  93.6799200  25.5543540  10.1028570
  94.4674290  26.5678860   9.3000700  98.0110240  28.3883250   6.9552030
  98.5275260  27.7770610   6.4300290  98.6607620  28.8912030   7.4463040
 100.7505740  29.2791740   7.7821010 101.0383550  29.0246040   6.9054020
 101.2628960  28.7269100   8.3726580 101.9682750  13.0181940   8.3617520
 101.1854540  13.4927440   8.6414280 101.6745680  12.1136770   8.2530700
 106.5203820  13.7205040   6.4066610 106.9611910  13.6650140   5.5588210
 106.2511410  14.6363050   6.4776790 108.3842390  13.3520280   4.4175430
 108.3230790  12.4081500   4.2706450 109.1634420  13.4600370   4.9628890
  92.6895140  29.4912640   3.3799380  92.5217180  28.8583320   4.0781270
  91.8229650  29.6972040   3.0293570  99.8536970  15.4368690   3.8733550
  99.0411480  15.0625580   3.5329430 100.3578610  14.6813770   4.1754740
 104.3561950  12.1011140   5.1116620 104.9591320  12.6731350   5.5865140
 103.6154940  12.6650580   4.8890520  97.8786150  13.5868610   2.4778600
  97.2488890  12.8855920   2.6448730  97.3391290  14.3472740   2.2611760
 100.8178100  30.2007840  15.1489210 101.7445410  29.9652110  15.1925170
 100.8028530  31.0279840  14.6675240 109.0523160  29.7433410   2.1463460
 109.2275350  29.0571150   1.5024380 108.3544730  30.2680460   1.7540130
  98.0041710  12.8652590  14.9131090  97.7225980  13.3686190  14.1491910
  98.3861410  12.0674340  14.5473220 104.6057170  12.2806170  15.4911560
 104.4922620  12.6000780  16.3863080 105.4226910  12.6818680  15.1948840
 107.3855660  29.4277700  14.9730250 108.1780980  28.9326930  14.7656210
 107.6788810  30.1067840  15.5805860 101.6433360   3.3034170 100.3816510
 100.8675460   2.8234610 100.6715080 102.2946290   2.6239820 100.2072670
  95.6599190   3.6153980 101.2592270  94.8284070   3.3602690 101.6588780
  96.2680170   3.6864750 101.9950190 105.6640790   7.7094360  99.1615640
 105.2022320   6.9381600  99.4902810 106.4766340   7.7360430  99.6668090
  95.6400450   7.6494070 101.4550290  95.9428490   6.7591810 101.2760510
  96.3844040   8.2064290 101.2272540 101.8904100   9.9952370  98.7819630
 101.2715540  10.4509870  98.2114070 102.7455880  10.1503830  98.3809330
 101.0842350   5.9791360 100.3886670 101.0150630   5.0381300 100.2275800
 101.8462210   6.0692770 100.9609240 102.7567450   4.8791610  96.1751540
 102.1384720   5.3441060  95.6114260 103.2690700   5.5719090  96.5921050
  97.6199210   4.4067480 102.8535140  97.2868590   5.0336400 103.4956210
  97.7965890   4.9329360 102.0736810  96.8318310   6.3748280 104.6684320
  97.4492310   7.0499360 104.3868770  95.9711430   6.7836260 104.5771820
  92.1250650   5.5648140  93.5491170  91.7478630   6.0535240  92.8176070
  92.3823720   6.2373420  94.1797700 107.7495900   7.8387690 102.5838960
 107.0659420   8.5086800 102.5755630 108.2890190   8.0368340 101.8183820
 105.2854640   9.6831820 101.2984140 105.2981800   9.2794110 100.4306400
 104.7329860  10.4579110 101.1945570 106.5800060   6.4048040  96.3874310
 106.4696390   5.4622370  96.5123730 106.5768310   6.7663680  97.2737070
 104.6840080   4.5861660 102.6266750 105.1008870   4.3721770 101.7920210
 105.4079900   4.8434450 103.1975370 102.1220340   2.0313360  95.7436800
 101.1949620   1.9650740  95.9725270 102.2745160   2.9693490  95.6292040
 108.6302180   2.9848880 102.7182990 107.8020810   3.0541970 102.2433120
 109.2252660   3.5703190 102.2498820 106.1517630   3.5933660  96.2472050
 105.5330050   3.2553210  95.5998350 106.1342080   2.9493420  96.9551240
  97.7276980   2.5578100  98.5256530  97.3233980   1.8455350  98.0302430
  97.8140100   2.2131340  99.4144570  98.1958680   6.2445660 100.6895740
  97.8986970   5.6391130 100.0103520  99.1458500   6.2822970 100.5785100
 106.2844290   9.8177530 104.3518840 105.8074850  10.6249720 104.1591450
 105.6006080   9.1655860 104.5045050 104.3282330   2.8320470  93.2544800
 104.7675610   1.9942900  93.1082620 105.0410750   3.4649870  93.3408940
 102.4377710   7.7716540  97.2226040 102.8773620   8.5140870  96.8081430
 102.3764600   8.0143110  98.1465000  92.0666980   4.6238220 101.8331820
  92.1447400   4.7586990 100.8887540  92.6808660   3.9154110 102.0259940
  93.3114610   6.3238410  98.2438000  92.9042690   6.4653000  97.3891600
  94.2027620   6.0398570  98.0409210 105.1047890  10.7585660  94.5789050
 104.9449030  10.4688600  95.4770880 104.9394600   9.9825790  94.0434280
  97.5836270  10.5384190  96.3560670  97.4078750   9.6219730  96.1428470
  96.7292010  10.8971480  96.5958470 104.8074020   8.2673220  93.1387050
 104.1139180   8.2650510  92.4789330 105.5496880   7.8432540  92.7081220
 104.3723950   9.8935930  97.2135540 104.8280900   9.1125310  97.5274160
 104.7116470  10.6042750  97.7576720  96.1643780   5.1349990  94.9281770
  95.3906040   4.5947610  94.7680490  96.8938410   4.6156600  94.5899530
 106.9231760   4.1315350 100.7208160 107.6430880   4.6270640 100.3304270
 106.7213580   3.4533240 100.0762030  96.2081180   4.8030370  98.5660580
  96.7259850   3.9998630  98.5117470  95.7565200   4.7409510  99.4077410
 101.0950680   6.0696650  93.8387880 101.4366380   6.8138880  93.3431200
 100.2663390   6.3827770  94.2012710 108.3991610   8.0627060  95.3561700
 107.7567770   7.4082680  95.6305420 108.0122270   8.4682150  94.5802370
 103.9778090   5.3912490  99.2033390 104.3301910   4.7940620  98.5434760
 103.0940420   5.0656720  99.3741640 100.0641370   6.1510180  96.6103800
 100.7512500   6.6979390  96.9911390  99.2773790   6.6950910  96.6453410
  92.2033770   1.7683000  92.1020880  93.0728620   2.0507800  92.3856800
  91.7124090   2.5818870  91.9869690  99.3668580   3.1556210  96.2229160
  99.8231360   3.9661460  96.4489350  99.0156790   2.8379350  97.0547650
 101.6701190   8.6662550 103.4521460 102.3143410   8.8721930 104.1294880
 102.0330630   7.9050950 102.9992310 102.9433270   6.6694900 102.1698910
 103.5855500   5.9688060 102.2831080 103.4682620   7.4493340 101.9895800
 106.7888990   6.9543520  91.8938050 106.5626570   6.2373960  92.4862690
 106.3985190   6.7055960  91.0559800  92.5705020  10.9810380  92.6682510
  92.9302660  11.5799720  92.0139780  92.4297360  11.5270270  93.4417540
 106.3705240   4.8715460  93.5552210 106.0826940   5.3328150  94.3430090
 107.1657410   4.4113230  93.8236430  98.5873640   8.3641580  93.4856180
  98.5783740   9.0971270  92.8700690  97.6672000   8.1173160  93.5783140
  94.1880280   3.5856470  94.2302940  93.5808230   4.3255370  94.2398240
  94.6629630   3.6755830  93.4041140 101.5733240   8.4269820  92.1481370
 101.6745220   8.2233810  91.2183350 100.6734980   8.1728100  92.3529150
 100.2151350  10.9456140  96.8429040 100.4692850  10.9077530  95.9208410
  99.2663830  10.8189470  96.8357290  96.1985570   3.5467620  91.9791510
  96.9648840   3.4348980  92.5416940  96.2760260   2.8505590  91.3268280
 108.2229510   9.0356870 100.0941810 108.3476930   9.8588040 100.5665620
 109.0895070   8.8247600  99.7465960  95.6947040  11.1288080  99.7658940
  96.4309520  10.5803540 100.0367510  96.0787960  11.9944090  99.6264930
  92.5792520   7.1961650  95.6400450  91.6532300   7.4382790  95.6305860
  93.0448950   8.0235910  95.5185200  98.8049350  10.3018390  91.5884510
  99.5977960  10.5907220  91.1366300  98.2853700   9.8710560  90.9096990
 107.8579520   9.5288520  93.0121250 107.5721030   9.1153660  92.1975430
 107.6599070  10.4576230  92.8921770  99.3226750   5.5221800  91.4526860
  99.2177390   4.9074150  92.1788240  99.1550970   4.9987690  90.6689870
 102.5629480   4.5841830  92.0568850 102.0139580   5.0311130  92.7011590
 103.1848740   4.0791080  92.5806520  98.2304600   3.5432750  93.9534150
  98.6521020   3.3772620  94.7965540  98.3555440   2.7332980  93.4589290
 100.7432240   2.5670360  91.2011250 101.2637900   1.8519380  90.8352400
 101.3900640   3.2056230  91.5011760 100.0525310   3.9419240 104.4942250
 100.4713420   4.7851970 104.3218490  99.1333940   4.0791280 104.2649030
 101.3080270  10.6481970  93.4912990 102.2031060  10.9866940  93.5131750
 101.3397900   9.9261380  92.8637270  94.9476430   6.0209020  91.7199990
  95.3851300   6.5638690  92.3757570  95.4324160   5.1955970  91.7296330
  92.1622230   8.8098050  99.1720250  92.4925240   7.9419110  98.9398890
  92.5913230   9.0156570 100.0025210  96.7584150   7.1407060  96.8322220
  96.4579690   7.0172030  97.7326130  96.6521640   6.2815650  96.4237950
  92.6512440   9.6768640 101.9101880  92.2143430   9.8569440 102.7426030
  93.2190120  10.4343260 101.7683600 109.5276070   6.9203460  91.5348900
 108.6969030   6.9880110  92.0056130 109.7047900   7.8107580  91.2315760
 108.9832530   3.6650940  94.0383100 109.7451440   4.2347590  94.1442790
 108.9986900   3.0978140  94.8091410  92.4836870   2.1888870  98.2690760
  91.8285710   1.9200510  97.6250460  93.3214820   2.0793350  97.8192740
 109.9892500   4.5201040  98.8825030 110.3601330   3.7368360  98.4761000
 110.6294430   5.2090140  98.7042330 106.9726260   5.9037620 104.2955350
 106.1586100   6.3334780 104.5581140 107.3800460   6.5156030 103.6824400
 109.0351700   3.9585310  91.1955620 109.3100540   4.8664190  91.0674840
 108.8462440   3.8947840  92.1317610  93.5212800   2.5741440 102.8094100
  93.8885840   2.4868840 103.6890120  92.9523620   1.8107990 102.7100960
 107.0302310  10.6556220  97.8223620 107.6261380  10.3340790  97.1458040
 107.2880460  10.1828040  98.6136890  98.6370910   8.6433720 103.5723970
  98.3962270   8.9108280 102.6854490  99.5773550   8.8139450 103.6274830
 109.8975070  10.6628100 104.3734610 109.4033350  11.0596970 103.6561740
 109.2888360  10.0377310 104.7671890 107.5814520  11.3051520 101.6521350
 107.1217490  12.0567330 101.2779370 106.9526980  10.5857990 101.5936150
  94.4065140   7.3994760 104.0420070  93.6799200   6.7800050 103.9746020
  94.4674290   7.7935370 103.1718150  98.0110240   9.6139760 100.8269480
  98.5275260   9.0027120 100.3017740  98.6607620  10.1168540 101.3180490
 100.7505740  10.5048250 101.6538460 101.0383550  10.2502550 100.7771470
 101.2628960   9.9525610 102.2444030  92.6895140  10.7169150  97.2516830
  92.5217180  10.0839830  97.9498720  91.8229650  10.9228550  96.9011020
  94.2957840   9.4102380  94.6966970  93.7705460   9.7910410  93.9928930
  94.2202420  10.0353150  95.4176680 109.0523160  10.9689920  96.0180910
 109.2275350  10.2827660  95.3741830 108.3544730  11.4936970  95.6257580
  96.8950810  11.3584760  93.5716220  97.6269630  11.0744040  93.0240110
  97.1544480  11.1198040  94.4615600  96.0565600   7.4749490  93.5762550
  95.4274480   7.9434590  94.1248380  96.1713430   6.6298710  94.0108740
 101.6433360   3.3034170  81.6073020 100.8675460   2.8234610  81.8971590
 102.2946290   2.6239820  81.4329180  95.6599190   3.6153980  82.4848780
  94.8284070   3.3602690  82.8845290  96.2680170   3.6864750  83.2206700
 105.6640790   7.7094360  80.3872150 105.2022320   6.9381600  80.7159320
 106.4766340   7.7360430  80.8924600  95.6400450   7.6494070  82.6806800
  95.9428490   6.7591810  82.5017020  96.3844040   8.2064290  82.4529050
 101.8904100   9.9952370  80.0076140 101.2715540  10.4509870  79.4370580
 102.7455880  10.1503830  79.6065840 101.0842350   5.9791360  81.6143180
 101.0150630   5.0381300  81.4532310 101.8462210   6.0692770  82.1865750
 102.7567450   4.8791610  77.4008050 102.1384720   5.3441060  76.8370770
 103.2690700   5.5719090  77.8177560  97.6199210   4.4067480  84.0791650
  97.2868590   5.0336400  84.7212720  97.7965890   4.9329360  83.2993320
  96.8318310   6.3748280  85.8940830  97.4492310   7.0499360  85.6125280
  95.9711430   6.7836260  85.8028330  92.1250650   5.5648140  74.7747680
  91.7478630   6.0535240  74.0432580  92.3823720   6.2373420  75.4054210
 107.7495900   7.8387690  83.8095470 107.0659420   8.5086800  83.8012140
 108.2890190   8.0368340  83.0440330 105.2854640   9.6831820  82.5240650
 105.2981800   9.2794110  81.6562910 104.7329860  10.4579110  82.4202080
 106.5800060   6.4048040  77.6130820 106.4696390   5.4622370  77.7380240
 106.5768310   6.7663680  78.4993580 104.6840080   4.5861660  83.8523260
 105.1008870   4.3721770  83.0176720 105.4079900   4.8434450  84.4231880
 102.1220340   2.0313360  76.9693310 101.1949620   1.9650740  77.1981780
 102.2745160   2.9693490  76.8548550 108.6302180   2.9848880  83.9439500
 107.8020810   3.0541970  83.4689630 109.2252660   3.5703190  83.4755330
 106.1517630   3.5933660  77.4728560 105.5330050   3.2553210  76.8254860
 106.1342080   2.9493420  78.1807750  97.7276980   2.5578100  79.7513040
  97.3233980   1.8455350  79.2558940  97.8140100   2.2131340  80.6401080
  98.1958680   6.2445660  81.9152250  97.8986970   5.6391130  81.2360030
  99.1458500   6.2822970  81.8041610 106.2844290   9.8177530  85.5775350
 105.8074850  10.6249720  85.3847960 105.6006080   9.1655860  85.7301560
  97.2877110   5.9827350  88.5660050  96.3905640   6.2067320  88.8133450
  97.3129980   6.1062290  87.6171450 104.3282330   2.8320470  74.4801310
 104.7675610   1.9942900  74.3339130 105.0410750   3.4649870  74.5665450
  96.1148330   2.8540670  87.1417420  95.9756100   3.7263470  87.5104820
  95.2329690   2.5113480  86.9965360 102.4377710   7.7716540  78.4482550
 102.8773620   8.5140870  78.0337940 102.3764600   8.0143110  79.3721510
  97.9128680   8.7962370  89.3502570  97.8844110   9.2005320  88.4831000
  97.7493650   7.8672730  89.1874170 109.8643500   9.5789470  90.6466740
 110.3403220  10.0572360  91.3255820 110.4850660   9.5106960  89.9212240
  92.0666980   4.6238220  83.0588330  92.1447400   4.7586990  82.1144050
  92.6808660   3.9154110  83.2516450  93.3114610   6.3238410  79.4694510
  92.9042690   6.4653000  78.6148110  94.2027620   6.0398570  79.2665720
 109.2676750   6.7702320  87.8066750 109.3939810   6.5314200  86.8883930
 109.3098130   5.9386860  88.2788830 103.1293490  10.4730320  86.3761560
 103.6438160  10.3838330  87.1783990 102.2862570  10.8190020  86.6689470
 105.1047890  10.7585660  75.8045560 104.9449030  10.4688600  76.7027390
 104.9394600   9.9825790  75.2690790  97.5836270  10.5384190  77.5817180
  97.4078750   9.6219730  77.3684980  96.7292010  10.8971480  77.8214980
 104.8074020   8.2673220  74.3643560 104.1139180   8.2650510  73.7045840
 105.5496880   7.8432540  73.9337730 104.3723950   9.8935930  78.4392050
 104.8280900   9.1125310  78.7530670 104.7116470  10.6042750  78.9833230
  92.1226500   5.6652390  85.5982790  92.2857540   5.1957750  84.7802160
  92.5878950   5.1575950  86.2631630  93.6965480   5.0403820  87.7578600
  93.3120270   4.3997490  88.3561560  94.0077670   5.7439940  88.3273330
  96.1643780   5.1349990  76.1538280  95.3906040   4.5947610  75.9937000
  96.8938410   4.6156600  75.8156040 106.9231760   4.1315350  81.9464670
 107.6430880   4.6270640  81.5560780 106.7213580   3.4533240  81.3018540
 102.3050560   4.2024410  87.8333670 102.2387870   3.2820080  87.5791260
 101.6755700   4.2999850  88.5478310  96.2081180   4.8030370  79.7917090
  96.7259850   3.9998630  79.7373980  95.7565200   4.7409510  80.6333920
 101.0950680   6.0696650  75.0644390 101.4366380   6.8138880  74.5687710
 100.2663390   6.3827770  75.4269220  96.8938840   2.2275980  89.5882340
  96.5938980   2.3733160  88.6910160  97.6650080   1.6681270  89.4955730
 102.2367290   7.0244980  87.5837470 102.2511830   6.0925940  87.3656380
 101.5292390   7.1104740  88.2227240 108.4478500   3.6652320  86.9306050
 107.7226690   4.2581100  86.7335440 108.9753960   3.6575860  86.1319420
 108.3991610   8.0627060  76.5818210 107.7567770   7.4082680  76.8561930
 108.0122270   8.4682150  75.8058880 103.9778090   5.3912490  80.4289900
 104.3301910   4.7940620  79.7691270 103.0940420   5.0656720  80.5998150
 100.0641370   6.1510180  77.8360310 100.7512500   6.6979390  78.2167900
  99.2773790   6.6950910  77.8709920  92.2033770   1.7683000  73.3277390
  93.0728620   2.0507800  73.6113310  91.7124090   2.5818870  73.2126200
  99.3668580   3.1556210  77.4485670  99.8231360   3.9661460  77.6745860
  99.0156790   2.8379350  78.2804160 101.6701190   8.6662550  84.6777970
 102.3143410   8.8721930  85.3551390 102.0330630   7.9050950  84.2248820
 102.9433270   6.6694900  83.3955420 103.5855500   5.9688060  83.5087590
 103.4682620   7.4493340  83.2152310 106.7888990   6.9543520  73.1194560
 106.5626570   6.2373960  73.7119200 106.3985190   6.7055960  72.2816310
 104.7170890   7.4689800  86.5991480 105.0527130   8.0556490  87.2769400
 103.7971230   7.3382510  86.8289270  92.5705020  10.9810380  73.8939020
  92.9302660  11.5799720  73.2396290  92.4297360  11.5270270  74.6674050
 106.3705240   4.8715460  74.7808720 106.0826940   5.3328150  75.5686600
 107.1657410   4.4113230  75.0492940  92.5546880   9.2465240  88.3681420
  92.6638000   8.3059980  88.2276810  91.9027440   9.5119990  87.7195150
 100.5459470   7.5181130  89.7679540 100.2256340   6.7990370  90.3125230
  99.8717830   8.1936200  89.8415600  98.5873640   8.3641580  74.7112690
  98.5783740   9.0971270  74.0957200  97.6672000   8.1173160  74.8039650
  94.1880280   3.5856470  75.4559450  93.5808230   4.3255370  75.4654750
  94.6629630   3.6755830  74.6297650 101.5733240   8.4269820  73.3737880
 101.6745220   8.2233810  72.4439860 100.6734980   8.1728100  73.5785660
 100.2151350  10.9456140  78.0685550 100.4692850  10.9077530  77.1464920
  99.2663830  10.8189470  78.0613800  96.1985570   3.5467620  73.2048020
  96.9648840   3.4348980  73.7673450  96.2760260   2.8505590  72.5524790
 108.2229510   9.0356870  81.3198320 108.3476930   9.8588040  81.7922130
 109.0895070   8.8247600  80.9722470  95.6947040  11.1288080  80.9915450
  96.4309520  10.5803540  81.2624020  96.0787960  11.9944090  80.8521440
  92.5792520   7.1961650  76.8656960  91.6532300   7.4382790  76.8562370
  93.0448950   8.0235910  76.7441710  94.7005320  10.3134150  90.1801030
  95.5018050  10.6346200  90.5936430  94.1857140   9.9529730  90.9020940
  98.8049350  10.3018390  72.8141020  99.5977960  10.5907220  72.3622810
  98.2853700   9.8710560  72.1353500 103.5369950   6.4214020  90.1276440
 102.9308110   6.4445620  89.3872190 103.2324060   5.6897060  90.6643690
 104.9670320  10.1494310  88.7385850 105.9192070  10.0652330  88.6886090
 104.8198540  10.8136020  89.4119640 107.8579520   9.5288520  74.2377760
 107.5721030   9.1153660  73.4231940 107.6599070  10.4576230  74.1178280
  92.4203130   2.8007610  89.1237080  92.9242150   2.2214890  89.6953310
  91.6810550   3.0847840  89.6613450  99.3226750   5.5221800  72.6783370
  99.2177390   4.9074150  73.4044750  99.1550970   4.9987690  71.8946380
  99.4741070   4.2078600  88.6572600  98.7086740   4.7763600  88.5727270
  99.6557030   3.9154810  87.7640830 102.5629480   4.5841830  73.2825360
 102.0139580   5.0311130  73.9268100 103.1848740   4.0791080  73.8063030
 106.6164420   5.9383930  89.2147620 107.3573890   6.2759690  88.7115080
 105.8537100   6.1075990  88.6617390  98.2304600   3.5432750  75.1790660
  98.6521020   3.3772620  76.0222050  98.3555440   2.7332980  74.6845800
 100.7432240   2.5670360  72.4267760 101.2637900   1.8519380  72.0608910
 101.3900640   3.2056230  72.7268270 105.2910080   3.9898760  87.7502830
 105.7051100   4.1443840  88.5993250 104.3561080   4.1153980  87.9128610
 100.0525310   3.9419240  85.7198760 100.4713420   4.7851970  85.5475000
  99.1333940   4.0791280  85.4905540 104.7277110   2.2272610  85.6799110
 104.2012330   2.7515230  85.0764250 105.0708450   2.8600000  86.3108840
  97.9032730  10.2472250  86.8356490  97.3653820  10.9718310  86.5165190
  98.1566690   9.7702590  86.0453830 100.7594940  11.4823460  87.0943140
 100.6853640  12.3858600  87.4015510  99.8573780  11.1635360  87.0665210
 101.3080270  10.6481970  74.7169500 102.2031060  10.9866940  74.7388260
 101.3397900   9.9261380  74.0893780  94.9476430   6.0209020  72.9456500
  95.3851300   6.5638690  73.6014080  95.4324160   5.1955970  72.9552840
  92.1622230   8.8098050  80.3976760  92.4925240   7.9419110  80.1655400
  92.5913230   9.0156570  81.2281720  96.7584150   7.1407060  78.0578730
  96.4579690   7.0172030  78.9582640  96.6521640   6.2815650  77.6494460
  92.6512440   9.6768640  83.1358390  92.2143430   9.8569440  83.9682540
  93.2190120  10.4343260  82.9940110 108.2874620   9.1785640  87.4235700
 107.6876610   9.2378200  86.6799620 108.4168520   8.2390620  87.5532550
 109.5276070   6.9203460  72.7605410 108.6969030   6.9880110  73.2312640
 109.7047900   7.8107580  72.4572270 108.9832530   3.6650940  75.2639610
 109.7451440   4.2347590  75.3699300 108.9986900   3.0978140  76.0347920
  92.4836870   2.1888870  79.4947270  91.8285710   1.9200510  78.8506970
  93.3214820   2.0793350  79.0449250 109.9892500   4.5201040  80.1081540
 110.3601330   3.7368360  79.7017510 110.6294430   5.2090140  79.9298840
 106.9726260   5.9037620  85.5211860 106.1586100   6.3334780  85.7837650
 107.3800460   6.5156030  84.9080910 109.0351700   3.9585310  72.4212130
 109.3100540   4.8664190  72.2931350 108.8462440   3.8947840  73.3574120
  93.5212800   2.5741440  84.0350610  93.8885840   2.4868840  84.9146630
  92.9523620   1.8107990  83.9357470 107.0302310  10.6556220  79.0480130
 107.6261380  10.3340790  78.3714550 107.2880460  10.1828040  79.8393400
  94.9364880   7.0874130  89.1970760  94.8934510   6.7167040  90.0785220
  95.0675890   8.0251700  89.3372580  98.6370910   8.6433720  84.7980480
  98.3962270   8.9108280  83.9111000  99.5773550   8.8139450  84.8531340
 109.8975070  10.6628100  85.5991120 109.4033350  11.0596970  84.8818250
 109.2888360  10.0377310  85.9928400  94.7752910  10.0336380  86.3168540
  94.1813230   9.9021080  87.0558580  94.7676750   9.1974520  85.8510640
 107.5814520  11.3051520  82.8777860 107.1217490  12.0567330  82.5035880
 106.9526980  10.5857990  82.8192660  94.4065140   7.3994760  85.2676580
  93.6799200   6.7800050  85.2002530  94.4674290   7.7935370  84.3974660
  98.0110240   9.6139760  82.0525990  98.5275260   9.0027120  81.5274250
  98.6607620  10.1168540  82.5437000 100.7505740  10.5048250  82.8794970
 101.0383550  10.2502550  82.0027980 101.2628960   9.9525610  83.4700540
  92.6895140  10.7169150  78.4773340  92.5217180  10.0839830  79.1755230
  91.8229650  10.9228550  78.1267530  94.2957840   9.4102380  75.9223480
  93.7705460   9.7910410  75.2185440  94.2202420  10.0353150  76.6433190
 100.8178100  11.4264350  90.2463170 101.7445410  11.1908620  90.2899130
 100.8028530  12.2536350  89.7649200 109.0523160  10.9689920  77.2437420
 109.2275350  10.2827660  76.5998340 108.3544730  11.4936970  76.8514090
  96.8950810  11.3584760  74.7972730  97.6269630  11.0744040  74.2496620
  97.1544480  11.1198040  75.6872110  96.0565600   7.4749490  74.8019060
  95.4274480   7.9434590  75.3504890  96.1713430   6.6298710  75.2365250
 107.3855660  10.6534210  90.0704210 108.1780980  10.1583440  89.8630170
 107.6788810  11.3324350  90.6779820 101.6433360   3.3034170  62.8329530
 100.8675460   2.8234610  63.1228100 102.2946290   2.6239820  62.6585690
  95.6599190   3.6153980  63.7105290  94.8284070   3.3602690  64.1101800
  96.2680170   3.6864750  64.4463210 105.6640790   7.7094360  61.6128660
 105.2022320   6.9381600  61.9415830 106.4766340   7.7360430  62.1181110
  95.6400450   7.6494070  63.9063310  95.9428490   6.7591810  63.7273530
  96.3844040   8.2064290  63.6785560 101.8904100   9.9952370  61.2332650
 101.2715540  10.4509870  60.6627090 102.7455880  10.1503830  60.8322350
 101.0842350   5.9791360  62.8399690 101.0150630   5.0381300  62.6788820
 101.8462210   6.0692770  63.4122260 102.7567450   4.8791610  58.6264560
 102.1384720   5.3441060  58.0627280 103.2690700   5.5719090  59.0434070
  97.6199210   4.4067480  65.3048160  97.2868590   5.0336400  65.9469230
  97.7965890   4.9329360  64.5249830  96.8318310   6.3748280  67.1197340
  97.4492310   7.0499360  66.8381790  95.9711430   6.7836260  67.0284840
  92.1250650   5.5648140  56.0004190  91.7478630   6.0535240  55.2689090
  92.3823720   6.2373420  56.6310720 107.7495900   7.8387690  65.0351980
 107.0659420   8.5086800  65.0268650 108.2890190   8.0368340  64.2696840
 105.2854640   9.6831820  63.7497160 105.2981800   9.2794110  62.8819420
 104.7329860  10.4579110  63.6458590 106.5800060   6.4048040  58.8387330
 106.4696390   5.4622370  58.9636750 106.5768310   6.7663680  59.7250090
 104.6840080   4.5861660  65.0779770 105.1008870   4.3721770  64.2433230
 105.4079900   4.8434450  65.6488390 102.1220340   2.0313360  58.1949820
 101.1949620   1.9650740  58.4238290 102.2745160   2.9693490  58.0805060
 108.6302180   2.9848880  65.1696010 107.8020810   3.0541970  64.6946140
 109.2252660   3.5703190  64.7011840 106.1517630   3.5933660  58.6985070
 105.5330050   3.2553210  58.0511370 106.1342080   2.9493420  59.4064260
  97.7276980   2.5578100  60.9769550  97.3233980   1.8455350  60.4815450
  97.8140100   2.2131340  61.8657590  98.1958680   6.2445660  63.1408760
  97.8986970   5.6391130  62.4616540  99.1458500   6.2822970  63.0298120
 106.2844290   9.8177530  66.8031860 105.8074850  10.6249720  66.6104470
 105.6006080   9.1655860  66.9558070  97.2877110   5.9827350  69.7916560
  96.3905640   6.2067320  70.0389960  97.3129980   6.1062290  68.8427960
 104.3282330   2.8320470  55.7057820 104.7675610   1.9942900  55.5595640
 105.0410750   3.4649870  55.7921960  96.1148330   2.8540670  68.3673930
  95.9756100   3.7263470  68.7361330  95.2329690   2.5113480  68.2221870
 102.4377710   7.7716540  59.6739060 102.8773620   8.5140870  59.2594450
 102.3764600   8.0143110  60.5978020  97.9128680   8.7962370  70.5759080
  97.8844110   9.2005320  69.7087510  97.7493650   7.8672730  70.4130680
 109.8643500   9.5789470  71.8723250 110.3403220  10.0572360  72.5512330
 110.4850660   9.5106960  71.1468750  92.0666980   4.6238220  64.2844840
  92.1447400   4.7586990  63.3400560  92.6808660   3.9154110  64.4772960
  93.3114610   6.3238410  60.6951020  92.9042690   6.4653000  59.8404620
  94.2027620   6.0398570  60.4922230 109.2676750   6.7702320  69.0323260
 109.3939810   6.5314200  68.1140440 109.3098130   5.9386860  69.5045340
 103.1293490  10.4730320  67.6018070 103.6438160  10.3838330  68.4040500
 102.2862570  10.8190020  67.8945980 105.1047890  10.7585660  57.0302070
 104.9449030  10.4688600  57.9283900 104.9394600   9.9825790  56.4947300
  97.5836270  10.5384190  58.8073690  97.4078750   9.6219730  58.5941490
  96.7292010  10.8971480  59.0471490 104.8074020   8.2673220  55.5900070
 104.1139180   8.2650510  54.9302350 105.5496880   7.8432540  55.1594240
 104.3723950   9.8935930  59.6648560 104.8280900   9.1125310  59.9787180
 104.7116470  10.6042750  60.2089740  92.1226500   5.6652390  66.8239300
  92.2857540   5.1957750  66.0058670  92.5878950   5.1575950  67.4888140
  93.6965480   5.0403820  68.9835110  93.3120270   4.3997490  69.5818070
  94.0077670   5.7439940  69.5529840  96.1643780   5.1349990  57.3794790
  95.3906040   4.5947610  57.2193510  96.8938410   4.6156600  57.0412550
 106.9231760   4.1315350  63.1721180 107.6430880   4.6270640  62.7817290
 106.7213580   3.4533240  62.5275050 102.3050560   4.2024410  69.0590180
 102.2387870   3.2820080  68.8047770 101.6755700   4.2999850  69.7734820
  96.2081180   4.8030370  61.0173600  96.7259850   3.9998630  60.9630490
  95.7565200   4.7409510  61.8590430 101.0950680   6.0696650  56.2900900
 101.4366380   6.8138880  55.7944220 100.2663390   6.3827770  56.6525730
  96.8938840   2.2275980  70.8138850  96.5938980   2.3733160  69.9166670
  97.6650080   1.6681270  70.7212240 102.2367290   7.0244980  68.8093980
 102.2511830   6.0925940  68.5912890 101.5292390   7.1104740  69.4483750
 108.4478500   3.6652320  68.1562560 107.7226690   4.2581100  67.9591950
 108.9753960   3.6575860  67.3575930 108.3991610   8.0627060  57.8074720
 107.7567770   7.4082680  58.0818440 108.0122270   8.4682150  57.0315390
 103.9778090   5.3912490  61.6546410 104.3301910   4.7940620  60.9947780
 103.0940420   5.0656720  61.8254660 100.0641370   6.1510180  59.0616820
 100.7512500   6.6979390  59.4424410  99.2773790   6.6950910  59.0966430
  92.2033770   1.7683000  54.5533900  93.0728620   2.0507800  54.8369820
  91.7124090   2.5818870  54.4382710  99.3668580   3.1556210  58.6742180
  99.8231360   3.9661460  58.9002370  99.0156790   2.8379350  59.5060670
 101.6701190   8.6662550  65.9034480 102.3143410   8.8721930  66.5807900
 102.0330630   7.9050950  65.4505330 102.9433270   6.6694900  64.6211930
 103.5855500   5.9688060  64.7344100 103.4682620   7.4493340  64.4408820
 106.7888990   6.9543520  54.3451070 106.5626570   6.2373960  54.9375710
 106.3985190   6.7055960  53.5072820 104.7170890   7.4689800  67.8247990
 105.0527130   8.0556490  68.5025910 103.7971230   7.3382510  68.0545780
  92.5705020  10.9810380  55.1195530  92.9302660  11.5799720  54.4652800
  92.4297360  11.5270270  55.8930560 106.3705240   4.8715460  56.0065230
 106.0826940   5.3328150  56.7943110 107.1657410   4.4113230  56.2749450
  92.5546880   9.2465240  69.5937930  92.6638000   8.3059980  69.4533320
  91.9027440   9.5119990  68.9451660 100.5459470   7.5181130  70.9936050
 100.2256340   6.7990370  71.5381740  99.8717830   8.1936200  71.0672110
  98.5873640   8.3641580  55.9369200  98.5783740   9.0971270  55.3213710
  97.6672000   8.1173160  56.0296160  94.1880280   3.5856470  56.6815960
  93.5808230   4.3255370  56.6911260  94.6629630   3.6755830  55.8554160
 101.5733240   8.4269820  54.5994390 101.6745220   8.2233810  53.6696370
 100.6734980   8.1728100  54.8042170 100.2151350  10.9456140  59.2942060
 100.4692850  10.9077530  58.3721430  99.2663830  10.8189470  59.2870310
  96.1985570   3.5467620  54.4304530  96.9648840   3.4348980  54.9929960
  96.2760260   2.8505590  53.7781300 108.2229510   9.0356870  62.5454830
 108.3476930   9.8588040  63.0178640 109.0895070   8.8247600  62.1978980
  95.6947040  11.1288080  62.2171960  96.4309520  10.5803540  62.4880530
  96.0787960  11.9944090  62.0777950  92.5792520   7.1961650  58.0913470
  91.6532300   7.4382790  58.0818880  93.0448950   8.0235910  57.9698220
  94.7005320  10.3134150  71.4057540  95.5018050  10.6346200  71.8192940
  94.1857140   9.9529730  72.1277450  98.8049350  10.3018390  54.0397530
  99.5977960  10.5907220  53.5879320  98.2853700   9.8710560  53.3610010
 103.5369950   6.4214020  71.3532950 102.9308110   6.4445620  70.6128700
 103.2324060   5.6897060  71.8900200 104.9670320  10.1494310  69.9642360
 105.9192070  10.0652330  69.9142600 104.8198540  10.8136020  70.6376150
 107.8579520   9.5288520  55.4634270 107.5721030   9.1153660  54.6488450
 107.6599070  10.4576230  55.3434790  92.4203130   2.8007610  70.3493590
  92.9242150   2.2214890  70.9209820  91.6810550   3.0847840  70.8869960
  99.3226750   5.5221800  53.9039880  99.2177390   4.9074150  54.6301260
  99.1550970   4.9987690  53.1202890  99.4741070   4.2078600  69.8829110
  98.7086740   4.7763600  69.7983780  99.6557030   3.9154810  68.9897340
 102.5629480   4.5841830  54.5081870 102.0139580   5.0311130  55.1524610
 103.1848740   4.0791080  55.0319540 106.6164420   5.9383930  70.4404130
 107.3573890   6.2759690  69.9371590 105.8537100   6.1075990  69.8873900
  98.2304600   3.5432750  56.4047170  98.6521020   3.3772620  57.2478560
  98.3555440   2.7332980  55.9102310 100.7432240   2.5670360  53.6524270
 101.2637900   1.8519380  53.2865420 101.3900640   3.2056230  53.9524780
 105.2910080   3.9898760  68.9759340 105.7051100   4.1443840  69.8249760
 104.3561080   4.1153980  69.1385120 100.0525310   3.9419240  66.9455270
 100.4713420   4.7851970  66.7731510  99.1333940   4.0791280  66.7162050
 104.7277110   2.2272610  66.9055620 104.2012330   2.7515230  66.3020760
 105.0708450   2.8600000  67.5365350  97.9032730  10.2472250  68.0613000
  97.3653820  10.9718310  67.7421700  98.1566690   9.7702590  67.2710340
 100.7594940  11.4823460  68.3199650 100.6853640  12.3858600  68.6272020
  99.8573780  11.1635360  68.2921720 101.3080270  10.6481970  55.9426010
 102.2031060  10.9866940  55.9644770 101.3397900   9.9261380  55.3150290
  94.9476430   6.0209020  54.1713010  95.3851300   6.5638690  54.8270590
  95.4324160   5.1955970  54.1809350  92.1622230   8.8098050  61.6233270
  92.4925240   7.9419110  61.3911910  92.5913230   9.0156570  62.4538230
  96.7584150   7.1407060  59.2835240  96.4579690   7.0172030  60.1839150
  96.6521640   6.2815650  58.8750970  92.6512440   9.6768640  64.3614900
  92.2143430   9.8569440  65.1939050  93.2190120  10.4343260  64.2196620
 108.2874620   9.1785640  68.6492210 107.6876610   9.2378200  67.9056130
 108.4168520   8.2390620  68.7789060 109.5276070   6.9203460  53.9861920
 108.6969030   6.9880110  54.4569150 109.7047900   7.8107580  53.6828780
 108.9832530   3.6650940  56.4896120 109.7451440   4.2347590  56.5955810
 108.9986900   3.0978140  57.2604430  92.4836870   2.1888870  60.7203780
  91.8285710   1.9200510  60.0763480  93.3214820   2.0793350  60.2705760
 109.9892500   4.5201040  61.3338050 110.3601330   3.7368360  60.9274020
 110.6294430   5.2090140  61.1555350 106.9726260   5.9037620  66.7468370
 106.1586100   6.3334780  67.0094160 107.3800460   6.5156030  66.1337420
 109.0351700   3.9585310  53.6468640 109.3100540   4.8664190  53.5187860
 108.8462440   3.8947840  54.5830630  93.5212800   2.5741440  65.2607120
  93.8885840   2.4868840  66.1403140  92.9523620   1.8107990  65.1613980
 107.0302310  10.6556220  60.2736640 107.6261380  10.3340790  59.5971060
 107.2880460  10.1828040  61.0649910  94.9364880   7.0874130  70.4227270
  94.8934510   6.7167040  71.3041730  95.0675890   8.0251700  70.5629090
  98.6370910   8.6433720  66.0236990  98.3962270   8.9108280  65.1367510
  99.5773550   8.8139450  66.0787850 109.8975070  10.6628100  66.8247630
 109.4033350  11.0596970  66.1074760 109.2888360  10.0377310  67.2184910
  94.7752910  10.0336380  67.5425050  94.1813230   9.9021080  68.2815090
  94.7676750   9.1974520  67.0767150 107.5814520  11.3051520  64.1034370
 107.1217490  12.0567330  63.7292390 106.9526980  10.5857990  64.0449170
  94.4065140   7.3994760  66.4933090  93.6799200   6.7800050  66.4259040
  94.4674290   7.7935370  65.6231170  98.0110240   9.6139760  63.2782500
  98.5275260   9.0027120  62.7530760  98.6607620  10.1168540  63.7693510
 100.7505740  10.5048250  64.1051480 101.0383550  10.2502550  63.2284490
 101.2628960   9.9525610  64.6957050  92.6895140  10.7169150  59.7029850
  92.5217180  10.0839830  60.4011740  91.8229650  10.9228550  59.3524040
  94.2957840   9.4102380  57.1479990  93.7705460   9.7910410  56.4441950
  94.2202420  10.0353150  57.8689700 100.8178100  11.4264350  71.4719680
 101.7445410  11.1908620  71.5155640 100.8028530  12.2536350  70.9905710
 109.0523160  10.9689920  58.4693930 109.2275350  10.2827660  57.8254850
 108.3544730  11.4936970  58.0770600  96.8950810  11.3584760  56.0229240
  97.6269630  11.0744040  55.4753130  97.1544480  11.1198040  56.9128620
  96.0565600   7.4749490  56.0275570  95.4274480   7.9434590  56.5761400
  96.1713430   6.6298710  56.4621760 107.3855660  10.6534210  71.2960720
 108.1780980  10.1583440  71.0886680 107.6788810  11.3324350  71.9036330
 101.6433360   3.3034170  44.0586040 100.8675460   2.8234610  44.3484610
 102.2946290   2.6239820  43.8842200  95.6599190   3.6153980  44.9361800
  94.8284070   3.3602690  45.3358310  96.2680170   3.6864750  45.6719720
 105.6640790   7.7094360  42.8385170 105.2022320   6.9381600  43.1672340
 106.4766340   7.7360430  43.3437620  95.6400450   7.6494070  45.1319820
  95.9428490   6.7591810  44.9530040  96.3844040   8.2064290  44.9042070
 101.8904100   9.9952370  42.4589160 101.2715540  10.4509870  41.8883600
 102.7455880  10.1503830  42.0578860 101.0842350   5.9791360  44.0656200
 101.0150630   5.0381300  43.9045330 101.8462210   6.0692770  44.6378770
 102.7567450   4.8791610  39.8521070 102.1384720   5.3441060  39.2883790
 103.2690700   5.5719090  40.2690580  97.6199210   4.4067480  46.5304670
  97.2868590   5.0336400  47.1725740  97.7965890   4.9329360  45.7506340
  96.8318310   6.3748280  48.3453850  97.4492310   7.0499360  48.0638300
  95.9711430   6.7836260  48.2541350  92.1250650   5.5648140  37.2260700
  91.7478630   6.0535240  36.4945600  92.3823720   6.2373420  37.8567230
 107.7495900   7.8387690  46.2608490 107.0659420   8.5086800  46.2525160
 108.2890190   8.0368340  45.4953350 105.2854640   9.6831820  44.9753670
 105.2981800   9.2794110  44.1075930 104.7329860  10.4579110  44.8715100
 106.5800060   6.4048040  40.0643840 106.4696390   5.4622370  40.1893260
 106.5768310   6.7663680  40.9506600 104.6840080   4.5861660  46.3036280
 105.1008870   4.3721770  45.4689740 105.4079900   4.8434450  46.8744900
 102.1220340   2.0313360  39.4206330 101.1949620   1.9650740  39.6494800
 102.2745160   2.9693490  39.3061570 108.6302180   2.9848880  46.3952520
 107.8020810   3.0541970  45.9202650 109.2252660   3.5703190  45.9268350
 106.1517630   3.5933660  39.9241580 105.5330050   3.2553210  39.2767880
 106.1342080   2.9493420  40.6320770  97.7276980   2.5578100  42.2026060
  97.3233980   1.8455350  41.7071960  97.8140100   2.2131340  43.0914100
  98.1958680   6.2445660  44.3665270  97.8986970   5.6391130  43.6873050
  99.1458500   6.2822970  44.2554630 106.2844290   9.8177530  48.0288370
 105.8074850  10.6249720  47.8360980 105.6006080   9.1655860  48.1814580
  97.2877110   5.9827350  51.0173070  96.3905640   6.2067320  51.2646470
  97.3129980   6.1062290  50.0684470 104.3282330   2.8320470  36.9314330
 104.7675610   1.9942900  36.7852150 105.0410750   3.4649870  37.0178470
  96.1148330   2.8540670  49.5930440  95.9756100   3.7263470  49.9617840
  95.2329690   2.5113480  49.4478380 102.4377710   7.7716540  40.8995570
 102.8773620   8.5140870  40.4850960 102.3764600   8.0143110  41.8234530
  97.9128680   8.7962370  51.8015590  97.8844110   9.2005320  50.9344020
  97.7493650   7.8672730  51.6387190 109.8643500   9.5789470  53.0979760
 110.3403220  10.0572360  53.7768840 110.4850660   9.5106960  52.3725260
  92.0666980   4.6238220  45.5101350  92.1447400   4.7586990  44.5657070
  92.6808660   3.9154110  45.7029470  93.3114610   6.3238410  41.9207530
  92.9042690   6.4653000  41.0661130  94.2027620   6.0398570  41.7178740
 109.2676750   6.7702320  50.2579770 109.3939810   6.5314200  49.3396950
 109.3098130   5.9386860  50.7301850 103.1293490  10.4730320  48.8274580
 103.6438160  10.3838330  49.6297010 102.2862570  10.8190020  49.1202490
 105.1047890  10.7585660  38.2558580 104.9449030  10.4688600  39.1540410
 104.9394600   9.9825790  37.7203810  97.5836270  10.5384190  40.0330200
  97.4078750   9.6219730  39.8198000  96.7292010  10.8971480  40.2728000
 104.8074020   8.2673220  36.8156580 104.1139180   8.2650510  36.1558860
 105.5496880   7.8432540  36.3850750 104.3723950   9.8935930  40.8905070
 104.8280900   9.1125310  41.2043690 104.7116470  10.6042750  41.4346250
  92.1226500   5.6652390  48.0495810  92.2857540   5.1957750  47.2315180
  92.5878950   5.1575950  48.7144650  93.6965480   5.0403820  50.2091620
  93.3120270   4.3997490  50.8074580  94.0077670   5.7439940  50.7786350
  96.1643780   5.1349990  38.6051300  95.3906040   4.5947610  38.4450020
  96.8938410   4.6156600  38.2669060 106.9231760   4.1315350  44.3977690
 107.6430880   4.6270640  44.0073800 106.7213580   3.4533240  43.7531560
 102.3050560   4.2024410  50.2846690 102.2387870   3.2820080  50.0304280
 101.6755700   4.2999850  50.9991330  96.2081180   4.8030370  42.2430110
  96.7259850   3.9998630  42.1887000  95.7565200   4.7409510  43.0846940
 101.0950680   6.0696650  37.5157410 101.4366380   6.8138880  37.0200730
 100.2663390   6.3827770  37.8782240  96.8938840   2.2275980  52.0395360
  96.5938980   2.3733160  51.1423180  97.6650080   1.6681270  51.9468750
 102.2367290   7.0244980  50.0350490 102.2511830   6.0925940  49.8169400
 101.5292390   7.1104740  50.6740260 108.4478500   3.6652320  49.3819070
 107.7226690   4.2581100  49.1848460 108.9753960   3.6575860  48.5832440
 108.3991610   8.0627060  39.0331230 107.7567770   7.4082680  39.3074950
 108.0122270   8.4682150  38.2571900 103.9778090   5.3912490  42.8802920
 104.3301910   4.7940620  42.2204290 103.0940420   5.0656720  43.0511170
 100.0641370   6.1510180  40.2873330 100.7512500   6.6979390  40.6680920
  99.2773790   6.6950910  40.3222940  92.2033770   1.7683000  35.7790410
  93.0728620   2.0507800  36.0626330  91.7124090   2.5818870  35.6639220
  99.3668580   3.1556210  39.8998690  99.8231360   3.9661460  40.1258880
  99.0156790   2.8379350  40.7317180 101.6701190   8.6662550  47.1290990
 102.3143410   8.8721930  47.8064410 102.0330630   7.9050950  46.6761840
 102.9433270   6.6694900  45.8468440 103.5855500   5.9688060  45.9600610
 103.4682620   7.4493340  45.6665330 106.7888990   6.9543520  35.5707580
 106.5626570   6.2373960  36.1632220 106.3985190   6.7055960  34.7329330
 104.7170890   7.4689800  49.0504500 105.0527130   8.0556490  49.7282420
 103.7971230   7.3382510  49.2802290  92.5705020  10.9810380  36.3452040
  92.9302660  11.5799720  35.6909310  92.4297360  11.5270270  37.1187070
 106.3705240   4.8715460  37.2321740 106.0826940   5.3328150  38.0199620
 107.1657410   4.4113230  37.5005960  92.5546880   9.2465240  50.8194440
  92.6638000   8.3059980  50.6789830  91.9027440   9.5119990  50.1708170
 100.5459470   7.5181130  52.2192560 100.2256340   6.7990370  52.7638250
  99.8717830   8.1936200  52.2928620  98.5873640   8.3641580  37.1625710
  98.5783740   9.0971270  36.5470220  97.6672000   8.1173160  37.2552670
  94.1880280   3.5856470  37.9072470  93.5808230   4.3255370  37.9167770
  94.6629630   3.6755830  37.0810670 101.5733240   8.4269820  35.8250900
 101.6745220   8.2233810  34.8952880 100.6734980   8.1728100  36.0298680
 100.2151350  10.9456140  40.5198570 100.4692850  10.9077530  39.5977940
  99.2663830  10.8189470  40.5126820  96.1985570   3.5467620  35.6561040
  96.9648840   3.4348980  36.2186470  96.2760260   2.8505590  35.0037810
 108.2229510   9.0356870  43.7711340 108.3476930   9.8588040  44.2435150
 109.0895070   8.8247600  43.4235490  95.6947040  11.1288080  43.4428470
  96.4309520  10.5803540  43.7137040  96.0787960  11.9944090  43.3034460
  92.5792520   7.1961650  39.3169980  91.6532300   7.4382790  39.3075390
  93.0448950   8.0235910  39.1954730  94.7005320  10.3134150  52.6314050
  95.5018050  10.6346200  53.0449450  94.1857140   9.9529730  53.3533960
  98.8049350  10.3018390  35.2654040  99.5977960  10.5907220  34.8135830
  98.2853700   9.8710560  34.5866520 103.5369950   6.4214020  52.5789460
 102.9308110   6.4445620  51.8385210 103.2324060   5.6897060  53.1156710
 104.9670320  10.1494310  51.1898870 105.9192070  10.0652330  51.1399110
 104.8198540  10.8136020  51.8632660 107.8579520   9.5288520  36.6890780
 107.5721030   9.1153660  35.8744960 107.6599070  10.4576230  36.5691300
  92.4203130   2.8007610  51.5750100  92.9242150   2.2214890  52.1466330
  91.6810550   3.0847840  52.1126470  99.3226750   5.5221800  35.1296390
  99.2177390   4.9074150  35.8557770  99.1550970   4.9987690  34.3459400
  99.4741070   4.2078600  51.1085620  98.7086740   4.7763600  51.0240290
  99.6557030   3.9154810  50.2153850 102.5629480   4.5841830  35.7338380
 102.0139580   5.0311130  36.3781120 103.1848740   4.0791080  36.2576050
 106.6164420   5.9383930  51.6660640 107.3573890   6.2759690  51.1628100
 105.8537100   6.1075990  51.1130410  98.2304600   3.5432750  37.6303680
  98.6521020   3.3772620  38.4735070  98.3555440   2.7332980  37.1358820
 100.7432240   2.5670360  34.8780780 101.2637900   1.8519380  34.5121930
 101.3900640   3.2056230  35.1781290 105.2910080   3.9898760  50.2015850
 105.7051100   4.1443840  51.0506270 104.3561080   4.1153980  50.3641630
 100.0525310   3.9419240  48.1711780 100.4713420   4.7851970  47.9988020
  99.1333940   4.0791280  47.9418560 104.7277110   2.2272610  48.1312130
 104.2012330   2.7515230  47.5277270 105.0708450   2.8600000  48.7621860
  97.9032730  10.2472250  49.2869510  97.3653820  10.9718310  48.9678210
  98.1566690   9.7702590  48.4966850 100.7594940  11.4823460  49.5456160
 100.6853640  12.3858600  49.8528530  99.8573780  11.1635360  49.5178230
 101.3080270  10.6481970  37.1682520 102.2031060  10.9866940  37.1901280
 101.3397900   9.9261380  36.5406800  94.9476430   6.0209020  35.3969520
  95.3851300   6.5638690  36.0527100  95.4324160   5.1955970  35.4065860
  92.1622230   8.8098050  42.8489780  92.4925240   7.9419110  42.6168420
  92.5913230   9.0156570  43.6794740  96.7584150   7.1407060  40.5091750
  96.4579690   7.0172030  41.4095660  96.6521640   6.2815650  40.1007480
  92.6512440   9.6768640  45.5871410  92.2143430   9.8569440  46.4195560
  93.2190120  10.4343260  45.4453130 108.2874620   9.1785640  49.8748720
 107.6876610   9.2378200  49.1312640 108.4168520   8.2390620  50.0045570
 109.5276070   6.9203460  35.2118430 108.6969030   6.9880110  35.6825660
 109.7047900   7.8107580  34.9085290 108.9832530   3.6650940  37.7152630
 109.7451440   4.2347590  37.8212320 108.9986900   3.0978140  38.4860940
  92.4836870   2.1888870  41.9460290  91.8285710   1.9200510  41.3019990
  93.3214820   2.0793350  41.4962270 109.9892500   4.5201040  42.5594560
 110.3601330   3.7368360  42.1530530 110.6294430   5.2090140  42.3811860
 106.9726260   5.9037620  47.9724880 106.1586100   6.3334780  48.2350670
 107.3800460   6.5156030  47.3593930 109.0351700   3.9585310  34.8725150
 109.3100540   4.8664190  34.7444370 108.8462440   3.8947840  35.8087140
  93.5212800   2.5741440  46.4863630  93.8885840   2.4868840  47.3659650
  92.9523620   1.8107990  46.3870490 107.0302310  10.6556220  41.4993150
 107.6261380  10.3340790  40.8227570 107.2880460  10.1828040  42.2906420
  94.9364880   7.0874130  51.6483780  94.8934510   6.7167040  52.5298240
  95.0675890   8.0251700  51.7885600  98.6370910   8.6433720  47.2493500
  98.3962270   8.9108280  46.3624020  99.5773550   8.8139450  47.3044360
 109.8975070  10.6628100  48.0504140 109.4033350  11.0596970  47.3331270
 109.2888360  10.0377310  48.4441420  94.7752910  10.0336380  48.7681560
  94.1813230   9.9021080  49.5071600  94.7676750   9.1974520  48.3023660
 107.5814520  11.3051520  45.3290880 107.1217490  12.0567330  44.9548900
 106.9526980  10.5857990  45.2705680  94.4065140   7.3994760  47.7189600
  93.6799200   6.7800050  47.6515550  94.4674290   7.7935370  46.8487680
  98.0110240   9.6139760  44.5039010  98.5275260   9.0027120  43.9787270
  98.6607620  10.1168540  44.9950020 100.7505740  10.5048250  45.3307990
 101.0383550  10.2502550  44.4541000 101.2628960   9.9525610  45.9213560
  92.6895140  10.7169150  40.9286360  92.5217180  10.0839830  41.6268250
  91.8229650  10.9228550  40.5780550  94.2957840   9.4102380  38.3736500
  93.7705460   9.7910410  37.6698460  94.2202420  10.0353150  39.0946210
 100.8178100  11.4264350  52.6976190 101.7445410  11.1908620  52.7412150
 100.8028530  12.2536350  52.2162220 109.0523160  10.9689920  39.6950440
 109.2275350  10.2827660  39.0511360 108.3544730  11.4936970  39.3027110
  96.8950810  11.3584760  37.2485750  97.6269630  11.0744040  36.7009640
  97.1544480  11.1198040  38.1385130  96.0565600   7.4749490  37.2532080
  95.4274480   7.9434590  37.8017910  96.1713430   6.6298710  37.6878270
 107.3855660  10.6534210  52.5217230 108.1780980  10.1583440  52.3143190
 107.6788810  11.3324350  53.1292840 101.6433360   3.3034170  25.2842550
 100.8675460   2.8234610  25.5741120 102.2946290   2.6239820  25.1098710
  95.6599190   3.6153980  26.1618310  94.8284070   3.3602690  26.5614820
  96.2680170   3.6864750  26.8976230 105.6640790   7.7094360  24.0641680
 105.2022320   6.9381600  24.3928850 106.4766340   7.7360430  24.5694130
  95.6400450   7.6494070  26.3576330  95.9428490   6.7591810  26.1786550
  96.3844040   8.2064290  26.1298580 101.8904100   9.9952370  23.6845670
 101.2715540  10.4509870  23.1140110 102.7455880  10.1503830  23.2835370
 101.0842350   5.9791360  25.2912710 101.0150630   5.0381300  25.1301840
 101.8462210   6.0692770  25.8635280 102.7567450   4.8791610  21.0777580
 102.1384720   5.3441060  20.5140300 103.2690700   5.5719090  21.4947090
  97.6199210   4.4067480  27.7561180  97.2868590   5.0336400  28.3982250
  97.7965890   4.9329360  26.9762850  96.8318310   6.3748280  29.5710360
  97.4492310   7.0499360  29.2894810  95.9711430   6.7836260  29.4797860
  92.1250650   5.5648140  18.4517210  91.7478630   6.0535240  17.7202110
  92.3823720   6.2373420  19.0823740 107.7495900   7.8387690  27.4865000
 107.0659420   8.5086800  27.4781670 108.2890190   8.0368340  26.7209860
 105.2854640   9.6831820  26.2010180 105.2981800   9.2794110  25.3332440
 104.7329860  10.4579110  26.0971610 106.5800060   6.4048040  21.2900350
 106.4696390   5.4622370  21.4149770 106.5768310   6.7663680  22.1763110
 104.6840080   4.5861660  27.5292790 105.1008870   4.3721770  26.6946250
 105.4079900   4.8434450  28.1001410 102.1220340   2.0313360  20.6462840
 101.1949620   1.9650740  20.8751310 102.2745160   2.9693490  20.5318080
 108.6302180   2.9848880  27.6209030 107.8020810   3.0541970  27.1459160
 109.2252660   3.5703190  27.1524860 106.1517630   3.5933660  21.1498090
 105.5330050   3.2553210  20.5024390 106.1342080   2.9493420  21.8577280
  97.7276980   2.5578100  23.4282570  97.3233980   1.8455350  22.9328470
  97.8140100   2.2131340  24.3170610  98.1958680   6.2445660  25.5921780
  97.8986970   5.6391130  24.9129560  99.1458500   6.2822970  25.4811140
 106.2844290   9.8177530  29.2544880 105.8074850  10.6249720  29.0617490
 105.6006080   9.1655860  29.4071090  97.2877110   5.9827350  32.2429580
  96.3905640   6.2067320  32.4902980  97.3129980   6.1062290  31.2940980
 104.3282330   2.8320470  18.1570840 104.7675610   1.9942900  18.0108660
 105.0410750   3.4649870  18.2434980  96.1148330   2.8540670  30.8186950
  95.9756100   3.7263470  31.1874350  95.2329690   2.5113480  30.6734890
 102.4377710   7.7716540  22.1252080 102.8773620   8.5140870  21.7107470
 102.3764600   8.0143110  23.0491040  97.9128680   8.7962370  33.0272100
  97.8844110   9.2005320  32.1600530  97.7493650   7.8672730  32.8643700
 109.8643500   9.5789470  34.3236270 110.3403220  10.0572360  35.0025350
 110.4850660   9.5106960  33.5981770  92.0666980   4.6238220  26.7357860
  92.1447400   4.7586990  25.7913580  92.6808660   3.9154110  26.9285980
  93.3114610   6.3238410  23.1464040  92.9042690   6.4653000  22.2917640
  94.2027620   6.0398570  22.9435250 109.2676750   6.7702320  31.4836280
 109.3939810   6.5314200  30.5653460 109.3098130   5.9386860  31.9558360
 103.1293490  10.4730320  30.0531090 103.6438160  10.3838330  30.8553520
 102.2862570  10.8190020  30.3459000 105.1047890  10.7585660  19.4815090
 104.9449030  10.4688600  20.3796920 104.9394600   9.9825790  18.9460320
  97.5836270  10.5384190  21.2586710  97.4078750   9.6219730  21.0454510
  96.7292010  10.8971480  21.4984510 104.8074020   8.2673220  18.0413090
 104.1139180   8.2650510  17.3815370 105.5496880   7.8432540  17.6107260
 104.3723950   9.8935930  22.1161580 104.8280900   9.1125310  22.4300200
 104.7116470  10.6042750  22.6602760  92.1226500   5.6652390  29.2752320
  92.2857540   5.1957750  28.4571690  92.5878950   5.1575950  29.9401160
  93.6965480   5.0403820  31.4348130  93.3120270   4.3997490  32.0331090
  94.0077670   5.7439940  32.0042860  96.1643780   5.1349990  19.8307810
  95.3906040   4.5947610  19.6706530  96.8938410   4.6156600  19.4925570
 106.9231760   4.1315350  25.6234200 107.6430880   4.6270640  25.2330310
 106.7213580   3.4533240  24.9788070 102.3050560   4.2024410  31.5103200
 102.2387870   3.2820080  31.2560790 101.6755700   4.2999850  32.2247840
  96.2081180   4.8030370  23.4686620  96.7259850   3.9998630  23.4143510
  95.7565200   4.7409510  24.3103450 101.0950680   6.0696650  18.7413920
 101.4366380   6.8138880  18.2457240 100.2663390   6.3827770  19.1038750
  96.8938840   2.2275980  33.2651870  96.5938980   2.3733160  32.3679690
  97.6650080   1.6681270  33.1725260 102.2367290   7.0244980  31.2607000
 102.2511830   6.0925940  31.0425910 101.5292390   7.1104740  31.8996770
 108.4478500   3.6652320  30.6075580 107.7226690   4.2581100  30.4104970
 108.9753960   3.6575860  29.8088950 108.3991610   8.0627060  20.2587740
 107.7567770   7.4082680  20.5331460 108.0122270   8.4682150  19.4828410
 103.9778090   5.3912490  24.1059430 104.3301910   4.7940620  23.4460800
 103.0940420   5.0656720  24.2767680 100.0641370   6.1510180  21.5129840
 100.7512500   6.6979390  21.8937430  99.2773790   6.6950910  21.5479450
  92.2033770   1.7683000  17.0046920  93.0728620   2.0507800  17.2882840
  91.7124090   2.5818870  16.8895730  99.3668580   3.1556210  21.1255200
  99.8231360   3.9661460  21.3515390  99.0156790   2.8379350  21.9573690
 101.6701190   8.6662550  28.3547500 102.3143410   8.8721930  29.0320920
 102.0330630   7.9050950  27.9018350 102.9433270   6.6694900  27.0724950
 103.5855500   5.9688060  27.1857120 103.4682620   7.4493340  26.8921840
 106.7888990   6.9543520  16.7964090 106.5626570   6.2373960  17.3888730
 106.3985190   6.7055960  15.9585840 104.7170890   7.4689800  30.2761010
 105.0527130   8.0556490  30.9538930 103.7971230   7.3382510  30.5058800
  92.5705020  10.9810380  17.5708550  92.9302660  11.5799720  16.9165820
  92.4297360  11.5270270  18.3443580 106.3705240   4.8715460  18.4578250
 106.0826940   5.3328150  19.2456130 107.1657410   4.4113230  18.7262470
  92.5546880   9.2465240  32.0450950  92.6638000   8.3059980  31.9046340
  91.9027440   9.5119990  31.3964680 100.5459470   7.5181130  33.4449070
 100.2256340   6.7990370  33.9894760  99.8717830   8.1936200  33.5185130
  98.5873640   8.3641580  18.3882220  98.5783740   9.0971270  17.7726730
  97.6672000   8.1173160  18.4809180  94.1880280   3.5856470  19.1328980
  93.5808230   4.3255370  19.1424280  94.6629630   3.6755830  18.3067180
 101.5733240   8.4269820  17.0507410 101.6745220   8.2233810  16.1209390
 100.6734980   8.1728100  17.2555190 100.2151350  10.9456140  21.7455080
 100.4692850  10.9077530  20.8234450  99.2663830  10.8189470  21.7383330
  96.1985570   3.5467620  16.8817550  96.9648840   3.4348980  17.4442980
  96.2760260   2.8505590  16.2294320 108.2229510   9.0356870  24.9967850
 108.3476930   9.8588040  25.4691660 109.0895070   8.8247600  24.6492000
  95.6947040  11.1288080  24.6684980  96.4309520  10.5803540  24.9393550
  96.0787960  11.9944090  24.5290970  92.5792520   7.1961650  20.5426490
  91.6532300   7.4382790  20.5331900  93.0448950   8.0235910  20.4211240
  94.7005320  10.3134150  33.8570560  95.5018050  10.6346200  34.2705960
  94.1857140   9.9529730  34.5790470  98.8049350  10.3018390  16.4910550
  99.5977960  10.5907220  16.0392340  98.2853700   9.8710560  15.8123030
 103.5369950   6.4214020  33.8045970 102.9308110   6.4445620  33.0641720
 103.2324060   5.6897060  34.3413220 104.9670320  10.1494310  32.4155380
 105.9192070  10.0652330  32.3655620 104.8198540  10.8136020  33.0889170
 107.8579520   9.5288520  17.9147290 107.5721030   9.1153660  17.1001470
 107.6599070  10.4576230  17.7947810  92.4203130   2.8007610  32.8006610
  92.9242150   2.2214890  33.3722840  91.6810550   3.0847840  33.3382980
  99.3226750   5.5221800  16.3552900  99.2177390   4.9074150  17.0814280
  99.1550970   4.9987690  15.5715910  99.4741070   4.2078600  32.3342130
  98.7086740   4.7763600  32.2496800  99.6557030   3.9154810  31.4410360
 102.5629480   4.5841830  16.9594890 102.0139580   5.0311130  17.6037630
 103.1848740   4.0791080  17.4832560 106.6164420   5.9383930  32.8917150
 107.3573890   6.2759690  32.3884610 105.8537100   6.1075990  32.3386920
  98.2304600   3.5432750  18.8560190  98.6521020   3.3772620  19.6991580
  98.3555440   2.7332980  18.3615330 100.7432240   2.5670360  16.1037290
 101.2637900   1.8519380  15.7378440 101.3900640   3.2056230  16.4037800
 105.2910080   3.9898760  31.4272360 105.7051100   4.1443840  32.2762780
 104.3561080   4.1153980  31.5898140 100.0525310   3.9419240  29.3968290
 100.4713420   4.7851970  29.2244530  99.1333940   4.0791280  29.1675070
 104.7277110   2.2272610  29.3568640 104.2012330   2.7515230  28.7533780
 105.0708450   2.8600000  29.9878370  97.9032730  10.2472250  30.5126020
  97.3653820  10.9718310  30.1934720  98.1566690   9.7702590  29.7223360
 100.7594940  11.4823460  30.7712670 100.6853640  12.3858600  31.0785040
  99.8573780  11.1635360  30.7434740 101.3080270  10.6481970  18.3939030
 102.2031060  10.9866940  18.4157790 101.3397900   9.9261380  17.7663310
  94.9476430   6.0209020  16.6226030  95.3851300   6.5638690  17.2783610
  95.4324160   5.1955970  16.6322370  92.1622230   8.8098050  24.0746290
  92.4925240   7.9419110  23.8424930  92.5913230   9.0156570  24.9051250
  96.7584150   7.1407060  21.7348260  96.4579690   7.0172030  22.6352170
  96.6521640   6.2815650  21.3263990  92.6512440   9.6768640  26.8127920
  92.2143430   9.8569440  27.6452070  93.2190120  10.4343260  26.6709640
 108.2874620   9.1785640  31.1005230 107.6876610   9.2378200  30.3569150
 108.4168520   8.2390620  31.2302080 109.5276070   6.9203460  16.4374940
 108.6969030   6.9880110  16.9082170 109.7047900   7.8107580  16.1341800
 108.9832530   3.6650940  18.9409140 109.7451440   4.2347590  19.0468830
 108.9986900   3.0978140  19.7117450  92.4836870   2.1888870  23.1716800
  91.8285710   1.9200510  22.5276500  93.3214820   2.0793350  22.7218780
 109.9892500   4.5201040  23.7851070 110.3601330   3.7368360  23.3787040
 110.6294430   5.2090140  23.6068370 106.9726260   5.9037620  29.1981390
 106.1586100   6.3334780  29.4607180 107.3800460   6.5156030  28.5850440
 109.0351700   3.9585310  16.0981660 109.3100540   4.8664190  15.9700880
 108.8462440   3.8947840  17.0343650  93.5212800   2.5741440  27.7120140
  93.8885840   2.4868840  28.5916160  92.9523620   1.8107990  27.6127000
 107.0302310  10.6556220  22.7249660 107.6261380  10.3340790  22.0484080
 107.2880460  10.1828040  23.5162930  94.9364880   7.0874130  32.8740290
  94.8934510   6.7167040  33.7554750  95.0675890   8.0251700  33.0142110
  98.6370910   8.6433720  28.4750010  98.3962270   8.9108280  27.5880530
  99.5773550   8.8139450  28.5300870 109.8975070  10.6628100  29.2760650
 109.4033350  11.0596970  28.5587780 109.2888360  10.0377310  29.6697930
  94.7752910  10.0336380  29.9938070  94.1813230   9.9021080  30.7328110
  94.7676750   9.1974520  29.5280170 107.5814520  11.3051520  26.5547390
 107.1217490  12.0567330  26.1805410 106.9526980  10.5857990  26.4962190
  94.4065140   7.3994760  28.9446110  93.6799200   6.7800050  28.8772060
  94.4674290   7.7935370  28.0744190  98.0110240   9.6139760  25.7295520
  98.5275260   9.0027120  25.2043780  98.6607620  10.1168540  26.2206530
 100.7505740  10.5048250  26.5564500 101.0383550  10.2502550  25.6797510
 101.2628960   9.9525610  27.1470070  92.6895140  10.7169150  22.1542870
  92.5217180  10.0839830  22.8524760  91.8229650  10.9228550  21.8037060
  94.2957840   9.4102380  19.5993010  93.7705460   9.7910410  18.8954970
  94.2202420  10.0353150  20.3202720 100.8178100  11.4264350  33.9232700
 101.7445410  11.1908620  33.9668660 100.8028530  12.2536350  33.4418730
 109.0523160  10.9689920  20.9206950 109.2275350  10.2827660  20.2767870
 108.3544730  11.4936970  20.5283620  96.8950810  11.3584760  18.4742260
  97.6269630  11.0744040  17.9266150  97.1544480  11.1198040  19.3641640
  96.0565600   7.4749490  18.4788590  95.4274480   7.9434590  19.0274420
  96.1713430   6.6298710  18.9134780 107.3855660  10.6534210  33.7473740
 108.1780980  10.1583440  33.5399700 107.6788810  11.3324350  34.3549350
 101.6433360   3.3034170   6.5099060 100.8675460   2.8234610   6.7997630
 102.2946290   2.6239820   6.3355220  95.6599190   3.6153980   7.3874820
  94.8284070   3.3602690   7.7871330  96.2680170   3.6864750   8.1232740
 105.6640790   7.7094360   5.2898190 105.2022320   6.9381600   5.6185360
 106.4766340   7.7360430   5.7950640  95.6400450   7.6494070   7.5832840
  95.9428490   6.7591810   7.4043060  96.3844040   8.2064290   7.3555090
 101.8904100   9.9952370   4.9102180 101.2715540  10.4509870   4.3396620
 102.7455880  10.1503830   4.5091880 101.0842350   5.9791360   6.5169220
 101.0150630   5.0381300   6.3558350 101.8462210   6.0692770   7.0891790
 102.7567450   4.8791610   2.3034090 102.1384720   5.3441060   1.7396810
 103.2690700   5.5719090   2.7203600  97.6199210   4.4067480   8.9817690
  97.2868590   5.0336400   9.6238760  97.7965890   4.9329360   8.2019360
  96.8318310   6.3748280  10.7966870  97.4492310   7.0499360  10.5151320
  95.9711430   6.7836260  10.7054370 107.7495900   7.8387690   8.7121510
 107.0659420   8.5086800   8.7038180 108.2890190   8.0368340   7.9466370
 105.2854640   9.6831820   7.4266690 105.2981800   9.2794110   6.5588950
 104.7329860  10.4579110   7.3228120 106.5800060   6.4048040   2.5156860
 106.4696390   5.4622370   2.6406280 106.5768310   6.7663680   3.4019620
 104.6840080   4.5861660   8.7549300 105.1008870   4.3721770   7.9202760
 105.4079900   4.8434450   9.3257920 102.1220340   2.0313360   1.8719350
 101.1949620   1.9650740   2.1007820 102.2745160   2.9693490   1.7574590
 108.6302180   2.9848880   8.8465540 107.8020810   3.0541970   8.3715670
 109.2252660   3.5703190   8.3781370 106.1517630   3.5933660   2.3754600
 105.5330050   3.2553210   1.7280900 106.1342080   2.9493420   3.0833790
  97.7276980   2.5578100   4.6539080  97.3233980   1.8455350   4.1584980
  97.8140100   2.2131340   5.5427120  98.1958680   6.2445660   6.8178290
  97.8986970   5.6391130   6.1386070  99.1458500   6.2822970   6.7067650
 106.2844290   9.8177530  10.4801390 105.8074850  10.6249720  10.2874000
 105.6006080   9.1655860  10.6327600  97.2877110   5.9827350  13.4686090
  96.3905640   6.2067320  13.7159490  97.3129980   6.1062290  12.5197490
  96.1148330   2.8540670  12.0443460  95.9756100   3.7263470  12.4130860
  95.2329690   2.5113480  11.8991400 102.4377710   7.7716540   3.3508590
 102.8773620   8.5140870   2.9363980 102.3764600   8.0143110   4.2747550
  97.9128680   8.7962370  14.2528610  97.8844110   9.2005320  13.3857040
  97.7493650   7.8672730  14.0900210 109.8643500   9.5789470  15.5492780
 110.3403220  10.0572360  16.2281860 110.4850660   9.5106960  14.8238280
  92.0666980   4.6238220   7.9614370  92.1447400   4.7586990   7.0170090
  92.6808660   3.9154110   8.1542490  93.3114610   6.3238410   4.3720550
  92.9042690   6.4653000   3.5174150  94.2027620   6.0398570   4.1691760
 109.2676750   6.7702320  12.7092790 109.3939810   6.5314200  11.7909970
 109.3098130   5.9386860  13.1814870 103.1293490  10.4730320  11.2787600
 103.6438160  10.3838330  12.0810030 102.2862570  10.8190020  11.5715510
  97.5836270  10.5384190   2.4843220  97.4078750   9.6219730   2.2711020
  96.7292010  10.8971480   2.7241020 104.3723950   9.8935930   3.3418090
 104.8280900   9.1125310   3.6556710 104.7116470  10.6042750   3.8859270
  92.1226500   5.6652390  10.5008830  92.2857540   5.1957750   9.6828200
  92.5878950   5.1575950  11.1657670  93.6965480   5.0403820  12.6604640
  93.3120270   4.3997490  13.2587600  94.0077670   5.7439940  13.2299370
 106.9231760   4.1315350   6.8490710 107.6430880   4.6270640   6.4586820
 106.7213580   3.4533240   6.2044580 102.3050560   4.2024410  12.7359710
 102.2387870   3.2820080  12.4817300 101.6755700   4.2999850  13.4504350
  96.2081180   4.8030370   4.6943130  96.7259850   3.9998630   4.6400020
  95.7565200   4.7409510   5.5359960  96.8938840   2.2275980  14.4908380
  96.5938980   2.3733160  13.5936200  97.6650080   1.6681270  14.3981770
 102.2367290   7.0244980  12.4863510 102.2511830   6.0925940  12.2682420
 101.5292390   7.1104740  13.1253280 108.4478500   3.6652320  11.8332090
 107.7226690   4.2581100  11.6361480 108.9753960   3.6575860  11.0345460
 103.9778090   5.3912490   5.3315940 104.3301910   4.7940620   4.6717310
 103.0940420   5.0656720   5.5024190 100.0641370   6.1510180   2.7386350
 100.7512500   6.6979390   3.1193940  99.2773790   6.6950910   2.7735960
  99.3668580   3.1556210   2.3511710  99.8231360   3.9661460   2.5771900
  99.0156790   2.8379350   3.1830200 101.6701190   8.6662550   9.5804010
 102.3143410   8.8721930  10.2577430 102.0330630   7.9050950   9.1274860
 102.9433270   6.6694900   8.2981460 103.5855500   5.9688060   8.4113630
 103.4682620   7.4493340   8.1178350 104.7170890   7.4689800  11.5017520
 105.0527130   8.0556490  12.1795440 103.7971230   7.3382510  11.7315310
  92.5546880   9.2465240  13.2707460  92.6638000   8.3059980  13.1302850
  91.9027440   9.5119990  12.6221190 100.5459470   7.5181130  14.6705580
 100.2256340   6.7990370  15.2151270  99.8717830   8.1936200  14.7441640
 100.2151350  10.9456140   2.9711590 100.4692850  10.9077530   2.0490960
  99.2663830  10.8189470   2.9639840 108.2229510   9.0356870   6.2224360
 108.3476930   9.8588040   6.6948170 109.0895070   8.8247600   5.8748510
  95.6947040  11.1288080   5.8941490  96.4309520  10.5803540   6.1650060
  96.0787960  11.9944090   5.7547480  92.5792520   7.1961650   1.7683000
  91.6532300   7.4382790   1.7588410  93.0448950   8.0235910   1.6467750
  94.7005320  10.3134150  15.0827070  95.5018050  10.6346200  15.4962470
  94.1857140   9.9529730  15.8046980 103.5369950   6.4214020  15.0302480
 102.9308110   6.4445620  14.2898230 103.2324060   5.6897060  15.5669730
 104.9670320  10.1494310  13.6411890 105.9192070  10.0652330  13.5912130
 104.8198540  10.8136020  14.3145680  92.4203130   2.8007610  14.0263120
  92.9242150   2.2214890  14.5979350  91.6810550   3.0847840  14.5639490
  99.4741070   4.2078600  13.5598640  98.7086740   4.7763600  13.4753310
  99.6557030   3.9154810  12.6666870 106.6164420   5.9383930  14.1173660
 107.3573890   6.2759690  13.6141120 105.8537100   6.1075990  13.5643430
 105.2910080   3.9898760  12.6528870 105.7051100   4.1443840  13.5019290
 104.3561080   4.1153980  12.8154650 100.0525310   3.9419240  10.6224800
 100.4713420   4.7851970  10.4501040  99.1333940   4.0791280  10.3931580
 104.7277110   2.2272610  10.5825150 104.2012330   2.7515230   9.9790290
 105.0708450   2.8600000  11.2134880  97.9032730  10.2472250  11.7382530
  97.3653820  10.9718310  11.4191230  98.1566690   9.7702590  10.9479870
 100.7594940  11.4823460  11.9969180 100.6853640  12.3858600  12.3041550
  99.8573780  11.1635360  11.9691250  92.1622230   8.8098050   5.3002800
  92.4925240   7.9419110   5.0681440  92.5913230   9.0156570   6.1307760
  96.7584150   7.1407060   2.9604770  96.4579690   7.0172030   3.8608680
  96.6521640   6.2815650   2.5520500  92.6512440   9.6768640   8.0384430
  92.2143430   9.8569440   8.8708580  93.2190120  10.4343260   7.8966150
 108.2874620   9.1785640  12.3261740 107.6876610   9.2378200  11.5825660
 108.4168520   8.2390620  12.4558590  92.4836870   2.1888870   4.3973310
  91.8285710   1.9200510   3.7533010  93.3214820   2.0793350   3.9475290
 109.9892500   4.5201040   5.0107580 110.3601330   3.7368360   4.6043550
 110.6294430   5.2090140   4.8324880 106.9726260   5.9037620  10.4237900
 106.1586100   6.3334780  10.6863690 107.3800460   6.5156030   9.8106950
  93.5212800   2.5741440   8.9376650  93.8885840   2.4868840   9.8172670
  92.9523620   1.8107990   8.8383510 107.0302310  10.6556220   3.9506170
 107.6261380  10.3340790   3.2740590 107.2880460  10.1828040   4.7419440
  94.9364880   7.0874130  14.0996800  94.8934510   6.7167040  14.9811260
  95.0675890   8.0251700  14.2398620  98.6370910   8.6433720   9.7006520
  98.3962270   8.9108280   8.8137040  99.5773550   8.8139450   9.7557380
 109.8975070  10.6628100  10.5017160 109.4033350  11.0596970   9.7844290
 109.2888360  10.0377310  10.8954440  94.7752910  10.0336380  11.2194580
  94.1813230   9.9021080  11.9584620  94.7676750   9.1974520  10.7536680
 107.5814520  11.3051520   7.7803900 107.1217490  12.0567330   7.4061920
 106.9526980  10.5857990   7.7218700  94.4065140   7.3994760  10.1702620
  93.6799200   6.7800050  10.1028570  94.4674290   7.7935370   9.3000700
  98.0110240   9.6139760   6.9552030  98.5275260   9.0027120   6.4300290
  98.6607620  10.1168540   7.4463040 100.7505740  10.5048250   7.7821010
 101.0383550  10.2502550   6.9054020 101.2628960   9.9525610   8.3726580
  92.6895140  10.7169150   3.3799380  92.5217180  10.0839830   4.0781270
  91.8229650  10.9228550   3.0293570 100.8178100  11.4264350  15.1489210
 101.7445410  11.1908620  15.1925170 100.8028530  12.2536350  14.6675240
 109.0523160  10.9689920   2.1463460 109.2275350  10.2827660   1.5024380
 108.3544730  11.4936970   1.7540130 107.3855660  10.6534210  14.9730250
 108.1780980  10.1583440  14.7656210 107.6788810  11.3324350  15.5805860
  84.7371830  95.3972600  98.5007240  84.6565880  94.4827210  98.2298950
  84.3236250  95.8939670  97.7946950  75.2947650  92.4473320  95.0434660
  74.4064350  92.7889290  94.9414540  75.5788840  92.2473640  94.1515490
  73.2580660  95.0478970 100.9274360  73.8296770  94.2801170 100.9278000
  73.2582200  95.3467730 100.0180970  74.5005530  90.4563330 102.7143290
  74.3208370  89.5589080 102.9946050  74.0985610  91.0035200 103.3890240
  83.3404030  92.6579190 100.6155600  83.7168850  91.7851070 100.5029270
  83.2423540  92.9937890  99.7246040  77.4709040  91.0304820  96.0773040
  77.5775790  91.9308550  96.3841800  76.5601400  90.9822790  95.7867690
  87.1228150  90.1529630  97.5483940  87.9437770  89.6626200  97.5909420
  87.1562230  90.7427290  98.3015780  75.1192200  92.9523830 101.3225630
  75.8002310  93.2162200 101.9413030  74.8040250  92.1124700 101.6563640
  79.3116770  93.9991190 100.4098220  79.8194990  94.4972160 101.0503240
  79.8430010  93.2226390 100.2337580  91.4127700  92.1696380 104.1127570
  90.7079870  92.5578090 103.5942680  91.6785620  92.8646670 104.7148500
  77.5952870  88.6389750 104.6761640  77.5971310  89.1562140 103.8707540
  76.7657180  88.1619930 104.6531570  87.3589630  92.0930010 100.3211480
  86.6545200  92.3814900 100.9014590  87.7201790  92.9030120  99.9611040
  77.2768200  90.3499710 102.6832090  77.6185010  91.1941760 102.3885960
  76.3384010  90.4983450 102.7997430  90.4276550  91.5384800 100.7120690
  89.4801460  91.5723780 100.8436120  90.7526540  92.3523750 101.0970050
  80.9596090  87.8381980  99.0076680  81.2671070  87.2828870  98.2912180
  80.0296790  87.9726440  98.8249670  83.3476850  95.9030810  95.7436800
  82.4206130  95.8368190  95.9725270  83.5001670  96.8410940  95.6292040
  83.3345930  92.1747810  92.7403960  82.3949600  92.3361770  92.8256420
  83.6529190  92.8933490  92.1939950  86.8200700  93.6435650 103.6637860
  86.4071880  94.4689360 103.9177850  86.0876650  93.0580690 103.4714220
  78.9533490  96.4295550  98.5256530  78.5490490  95.7172800  98.0302430
  79.0396610  96.0848790  99.4144570  77.6662110  93.2038760 102.3055570
  78.2176700  93.3134100 101.5308820  78.1805620  93.5776360 103.0210800
  89.1355980  87.9580730  91.5685840  88.8228640  88.0507560  92.4684910
  89.8968450  88.5361760  91.5183270  75.6538120  95.3240530  96.0263180
  75.5335720  96.0502620  95.4144450  75.3439010  94.5543440  95.5491090
  78.1201780  88.6675600  99.4086850  77.6769930  89.4485140  99.0771370
  78.6786770  88.9905490 100.1157790  81.2360600  88.2886300  94.2892680
  80.6114780  88.2846170  95.0145990  81.1490720  87.4217260  93.8928650
  80.1577680  89.2122930 101.2676450  80.4550010  90.1185760 101.1868470
  80.7063240  88.7241710 100.6536020  77.9116000  93.7909170  97.1368100
  77.6856920  93.5746340  98.0414720  77.1308530  94.2237630  96.7914070
  85.1413760  93.7972540  95.7358750  84.5422650  94.5208340  95.5522370
  85.6893370  93.7349320  94.9535200  83.7478630  92.4336080  97.7662030
  84.1408200  92.7508280  96.9530720  84.1095480  91.5547960  97.8806550
  72.7842800  89.0236880  99.9892230  72.4955850  89.5939740 100.7017210
  73.5288560  88.5441330 100.3523460  72.9713030  92.9657000  91.1994950
  72.8887700  93.9087760  91.3409940  72.6196090  92.8231910  90.3207300
  84.3333770  95.0241830 101.8612810  83.6014890  95.5328640 102.2102910
  83.9358110  94.2071810 101.5601590  80.7711160  91.6996030 100.2665300
  80.7747220  91.2585980  99.4169840  81.6662280  92.0213360 100.3737120
  76.6213540  91.5822520  99.2259510  76.2813590  92.0597750  99.9826560
  75.8590860  91.1287640  98.8660610  80.8331310  92.7008110  93.2572060
  80.9544130  92.6594590  94.2057880  80.4479820  93.5632260  93.1018790
  84.7959680  90.4775510 101.2735750  84.8132420  90.9284160 102.1177600
  84.5475260  89.5781150 101.4869190  79.8452810  95.0109250  92.6555360
  79.2769710  94.5627500  92.0291270  80.5541810  95.3702030  92.1220510
  81.0719130  95.7597810 102.0130710  81.4389260  95.2856380 102.7592050
  80.8824190  96.6339380 102.3539050  73.9359620  90.5041500  98.1424180
  73.6506540  90.1397170  98.9802800  73.8738480  89.7721960  97.5287320
  78.8618500  94.8006450 104.3314920  78.5575570  95.6798430 104.5565280
  79.8164960  94.8606240 104.3672360  83.6098210  89.3970760  94.8637550
  82.7962820  88.8983930  94.7882860  83.4160160  90.2369010  94.4473900
  86.3246600  93.7690410  93.1599710  87.2126220  94.0807640  92.9851050
  86.2951690  92.8962660  92.7680290  88.5960870  95.0802250  92.6279570
  88.5124590  95.5116470  91.7776010  89.3155060  95.5400600  93.0606390
  73.4290280  95.6400450  92.1020880  74.2985130  95.9225250  92.3856800
  72.9380600  96.4536320  91.9869690  76.4936870  87.3711310  96.6951680
  76.3651500  87.3629210  97.6436600  75.6698890  87.7094400  96.3442690
  84.9869580  91.6224740 103.9059830  85.3550400  90.8019950 104.2339400
  84.1267780  91.6826630 104.3215480  88.3531610  90.5781680  94.7147390
  87.7244770  90.6827350  94.0005620  87.8583530  90.7978460  95.5041270
  80.3215640  92.8567630  96.1305270  79.6131790  93.3253970  96.5718880
  80.6060120  92.1989640  96.7650460  81.9471570  94.2764330 104.1297800
  82.4456820  94.7510150 104.7949650  82.0894520  93.3527850 104.3367830
  84.3531070  89.5818290  97.5701060  84.2298850  89.6004420  96.6210570
  85.3015630  89.6297230  97.6899460  78.5250660  91.1652710  93.5055980
  79.3741190  91.6022860  93.4396170  78.1581930  91.4772970  94.3328040
  87.4460440  95.7365470  98.4187550  86.5050580  95.7515700  98.5935240
  87.7604510  94.9501430  98.8647850  76.1188840  94.8510140  92.6624400
  76.1992430  93.9037650  92.7741800  77.0108590  95.1817020  92.7685060
  80.8722270  88.9182360 103.8729810  80.4239570  88.9406620 103.0275360
  80.2387470  88.5201380 104.4700110  78.3520010  93.4883430  90.8992310
  78.1509070  92.6250790  91.2605650  78.1812060  93.4016790  89.9613910
  85.8308320  88.2991660  93.4279190  86.1110610  87.4559560  93.7838610
  85.0574050  88.5314770  93.9417940  77.1502810  90.5884050  90.8870190
  77.4528710  90.5951480  89.9789340  77.8897400  90.2381910  91.3837850
  80.3687740  89.5318670  91.8726390  80.0209740  88.8542660  91.2928840
  80.5700510  89.0708180  92.6869780  73.7093380  96.0606320  98.2690760
  73.0542220  95.7917960  97.6250460  74.5471330  95.9510800  97.8192740
  86.6583820  90.8547610  92.4909250  87.0768700  90.6678590  91.6505910
  86.3519880  90.0026660  92.8012180  90.1573550  95.7671750  96.1885050
  89.7817150  94.9999680  95.7566340  89.4276670  96.1494450  96.6759980
  74.7469310  96.4458890 102.8094100  75.1142350  96.3586290 103.6890120
  74.1780130  95.6825440 102.7100960  72.9231460  93.2705250  94.2116090
  72.0195540  93.5335450  94.0367750  73.4072080  93.5416420  93.4316050
  89.4324510  93.9929240  99.4892290  89.9561990  93.4991890  98.8582460
  90.0183930  94.1279600 100.2339860  89.6114230  94.0769110 103.0111840
  88.6616940  94.0432650 103.1256830  89.7927240  94.9869220 102.7761610
  75.4658670  92.3270790  92.1210470  76.1750370  91.9054010  91.6357750
  74.7498610  92.3946020  91.4893820  75.1132830  88.3810120  91.1613120
  75.8360960  88.9219060  91.4794340  75.3857350  88.1073540  90.2854660
  88.9224480  93.2502590  95.4284700  89.4183600  93.0173460  96.2133580
  88.7240550  92.4114430  95.0122340  74.8025020  87.6316310 101.0635740
  75.4501210  87.0813690 100.6230900  75.2226860  87.8859460 101.8851550
  90.3511640  91.8863540  97.9622380  90.2410920  91.7319580  98.9004650
  91.1119230  91.3584480  97.7197790  88.6977360  87.8257670 104.4205380
  89.3349580  88.4391810 104.7864570  88.8452250  87.8618330 103.4754610
  91.2401910  89.7171460  91.2028520  92.1651220  89.5852640  90.9946810
  91.2177700  89.7964280  92.1564970  91.3140400  90.4882120  93.8285230
  90.5191900  90.4227240  94.3578140  91.5183680  91.4232760  93.8170580
  74.5557020  87.7871980 103.8061060  74.2071840  88.2435800 104.5719240
  74.2244720  86.8929110 103.8883490  85.4464440  87.1986060 103.2942060
  84.5724280  87.5321170 103.0914990  85.3375190  86.7259240 104.1193930
  86.3536420  89.4056930 104.6783780  86.0249780  88.5908690 104.2985510
  87.3018720  89.3626740 104.5549470  83.1939260  88.1155900 102.2334970
  82.4111050  88.5901400 102.5131730  82.9002190  87.2110730 102.1248150
  87.7460330  88.8179000 100.2784060  88.1868420  88.7624100  99.4305660
  87.4767920  89.7337010 100.3494240  89.6098900  88.4494240  98.2892880
  89.5487300  87.5055460  98.1423900  90.3890930  88.5574330  98.8346340
  74.5379670  88.4203380  94.7548690  75.2959030  88.5332260  94.1812720
  74.0756840  89.2572580  94.7092120  81.0793480  90.5342650  97.7451000
  80.2667990  90.1599540  97.4046880  81.5835120  89.7787730  98.0472190
  85.5818460  87.1985100  98.9834070  86.1847830  87.7705310  99.4582590
  84.8411450  87.7624540  98.7607970  88.7253060  87.6006660  94.2574350
  88.9203690  88.4990110  94.5241780  87.9382930  87.3693740  94.7507300
  76.9104820  88.9467430  93.2950660  77.4397580  88.1597230  93.1658610
  77.5433140  89.6258620  93.5286190  79.1042660  88.6842570  96.3496050
  78.4745400  87.9829880  96.5166180  78.5647800  89.4446700  96.1329210
  84.7371830  95.3972600  79.7263750  84.6565880  94.4827210  79.4555460
  84.3236250  95.8939670  79.0203460  75.2947650  92.4473320  76.2691170
  74.4064350  92.7889290  76.1671050  75.5788840  92.2473640  75.3772000
  73.2580660  95.0478970  82.1530870  73.8296770  94.2801170  82.1534510
  73.2582200  95.3467730  81.2437480  74.5005530  90.4563330  83.9399800
  74.3208370  89.5589080  84.2202560  74.0985610  91.0035200  84.6146750
  83.3404030  92.6579190  81.8412110  83.7168850  91.7851070  81.7285780
  83.2423540  92.9937890  80.9502550  77.4709040  91.0304820  77.3029550
  77.5775790  91.9308550  77.6098310  76.5601400  90.9822790  77.0124200
  87.1228150  90.1529630  78.7740450  87.9437770  89.6626200  78.8165930
  87.1562230  90.7427290  79.5272290  75.1192200  92.9523830  82.5482140
  75.8002310  93.2162200  83.1669540  74.8040250  92.1124700  82.8820150
  79.3116770  93.9991190  81.6354730  79.8194990  94.4972160  82.2759750
  79.8430010  93.2226390  81.4594090  91.4127700  92.1696380  85.3384080
  90.7079870  92.5578090  84.8199190  91.6785620  92.8646670  85.9405010
  77.5952870  88.6389750  85.9018150  77.5971310  89.1562140  85.0964050
  76.7657180  88.1619930  85.8788080  87.3589630  92.0930010  81.5467990
  86.6545200  92.3814900  82.1271100  87.7201790  92.9030120  81.1867550
  77.2768200  90.3499710  83.9088600  77.6185010  91.1941760  83.6142470
  76.3384010  90.4983450  84.0253940  90.4276550  91.5384800  81.9377200
  89.4801460  91.5723780  82.0692630  90.7526540  92.3523750  82.3226560
  80.9596090  87.8381980  80.2333190  81.2671070  87.2828870  79.5168690
  80.0296790  87.9726440  80.0506180  83.3476850  95.9030810  76.9693310
  82.4206130  95.8368190  77.1981780  83.5001670  96.8410940  76.8548550
  83.3345930  92.1747810  73.9660470  82.3949600  92.3361770  74.0512930
  83.6529190  92.8933490  73.4196460  86.8200700  93.6435650  84.8894370
  86.4071880  94.4689360  85.1434360  86.0876650  93.0580690  84.6970730
  78.9533490  96.4295550  79.7513040  78.5490490  95.7172800  79.2558940
  79.0396610  96.0848790  80.6401080  77.6662110  93.2038760  83.5312080
  78.2176700  93.3134100  82.7565330  78.1805620  93.5776360  84.2467310
  89.1355980  87.9580730  72.7942350  88.8228640  88.0507560  73.6941420
  89.8968450  88.5361760  72.7439780  75.6538120  95.3240530  77.2519690
  75.5335720  96.0502620  76.6400960  75.3439010  94.5543440  76.7747600
  90.3457270  92.6952230  88.7716490  89.7301540  93.2031900  88.2431950
  90.0253690  91.7950560  88.7142430  78.1201780  88.6675600  80.6343360
  77.6769930  89.4485140  80.3027880  78.6786770  88.9905490  81.3414300
  82.4071590  91.5344120  86.2378680  81.9450960  91.7427140  87.0498620
  82.0049700  90.7203470  85.9349350  87.4076100  92.7553070  87.3675340
  86.5569690  92.4558820  87.6884410  87.2477890  92.9995080  86.4559160
  84.5025810  94.2554820  89.4674130  84.8279220  93.4218570  89.1276360
  85.2906140  94.7783340  89.6152460  81.2360600  88.2886300  75.5149190
  80.6114780  88.2846170  76.2402500  81.1490720  87.4217260  75.1185160
  80.1577680  89.2122930  82.4932960  80.4550010  90.1185760  82.4124980
  80.7063240  88.7241710  81.8792530  77.9116000  93.7909170  78.3624610
  77.6856920  93.5746340  79.2671230  77.1308530  94.2237630  78.0170580
  85.1413760  93.7972540  76.9615260  84.5422650  94.5208340  76.7778880
  85.6893370  93.7349320  76.1791710  80.3515210  94.6894750  89.0284880
  80.2558810  93.7489480  88.8785280  81.1947190  94.9109820  88.6332950
  83.7478630  92.4336080  78.9918540  84.1408200  92.7508280  78.1787230
  84.1095480  91.5547960  79.1063060  75.4825750  91.1008420  87.1818660
  75.0889140  91.9483630  87.3891440  74.7944150  90.4634790  87.3727300
  82.0570800  91.1843390  90.2515400  81.3669120  90.9915590  90.8861490
  82.8003100  91.4678030  90.7839700  72.7842800  89.0236880  81.2148740
  72.4955850  89.5939740  81.9273720  73.5288560  88.5441330  81.5779970
  72.9713030  92.9657000  72.4251460  72.8887700  93.9087760  72.5666450
  72.6196090  92.8231910  71.5463810  84.3333770  95.0241830  83.0869320
  83.6014890  95.5328640  83.4359420  83.9358110  94.2071810  82.7858100
  80.7711160  91.6996030  81.4921810  80.7747220  91.2585980  80.6426350
  81.6662280  92.0213360  81.5993630  76.6213540  91.5822520  80.4516020
  76.2813590  92.0597750  81.2083070  75.8590860  91.1287640  80.0917120
  80.8331310  92.7008110  74.4828570  80.9544130  92.6594590  75.4314390
  80.4479820  93.5632260  74.3275300  84.7959680  90.4775510  82.4992260
  84.8132420  90.9284160  83.3434110  84.5475260  89.5781150  82.7125700
  79.8452810  95.0109250  73.8811870  79.2769710  94.5627500  73.2547780
  80.5541810  95.3702030  73.3477020  88.2230430  87.8907690  88.3378640
  88.5476200  87.1597350  88.8636620  88.2586940  87.5721330  87.4359630
  81.0719130  95.7597810  83.2387220  81.4389260  95.2856380  83.9848560
  80.8824190  96.6339380  83.5795560  73.9359620  90.5041500  79.3680690
  73.6506540  90.1397170  80.2059310  73.8738480  89.7721960  78.7543830
  78.8618500  94.8006450  85.5571430  78.5575570  95.6798430  85.7821790
  79.8164960  94.8606240  85.5928870  83.6098210  89.3970760  76.0894060
  82.7962820  88.8983930  76.0139370  83.4160160  90.2369010  75.6730410
  86.3246600  93.7690410  74.3856220  87.2126220  94.0807640  74.2107560
  86.2951690  92.8962660  73.9936800  74.9182230  95.6409190  86.7042790
  74.5597170  96.3063040  87.2916130  74.6236790  94.8092740  87.0755410
  78.1195350  96.0993430  89.5882340  77.8195490  96.2450610  88.6910160
  78.8906590  95.5398720  89.4955730  88.5960870  95.0802250  73.8536080
  88.5124590  95.5116470  73.0032520  89.3155060  95.5400600  74.2862900
  73.4290280  95.6400450  73.3277390  74.2985130  95.9225250  73.6113310
  72.9380600  96.4536320  73.2126200  76.4936870  87.3711310  77.9208190
  76.3651500  87.3629210  78.8693110  75.6698890  87.7094400  77.5699200
  73.4930800  89.1302430  87.3814890  72.7789320  89.3299350  87.9867500
  73.9125840  88.3542000  87.7529690  84.9869580  91.6224740  85.1316340
  85.3550400  90.8019950  85.4595910  84.1267780  91.6826630  85.5471990
  88.3531610  90.5781680  75.9403900  87.7244770  90.6827350  75.2262130
  87.8583530  90.7978460  76.7297780  80.3215640  92.8567630  77.3561780
  79.6131790  93.3253970  77.7975390  80.6060120  92.1989640  77.9906970
  81.9471570  94.2764330  85.3554310  82.4456820  94.7510150  86.0206160
  82.0894520  93.3527850  85.5624340  84.3531070  89.5818290  78.7957570
  84.2298850  89.6004420  77.8467080  85.3015630  89.6297230  78.9155970
  78.5250660  91.1652710  74.7312490  79.3741190  91.6022860  74.6652680
  78.1581930  91.4772970  75.5584550  89.1538430  90.4932290  86.1982700
  88.6512030  91.2337690  86.5376510  89.9695090  90.8816290  85.8819490
  87.4460440  95.7365470  79.6444060  86.5050580  95.7515700  79.8191750
  87.7604510  94.9501430  80.0904360  76.1188840  94.8510140  73.8880910
  76.1992430  93.9037650  73.9998310  77.0108590  95.1817020  73.9941570
  73.6459640  96.6725060  89.1237080  74.1498660  96.0932340  89.6953310
  72.9067060  96.9565290  89.6613450  75.6782720  94.8154650  90.0187150
  75.7188060  94.5168520  90.9272380  76.5328220  95.2162260  89.8594670
  77.6188530  93.3946750  87.9861640  77.0884990  92.9037700  87.3584980
  78.2876600  93.8230950  87.4519570  86.9888760  95.2012370  89.7541980
  87.5709530  94.4464690  89.6662460  87.1650530  95.7319810  88.9773460
  78.1060830  90.3609120  88.0658930  78.0117700  89.7429870  87.3409800
  77.5258220  91.0875410  87.8388840  80.8722270  88.9182360  85.0986320
  80.4239570  88.9406620  84.2531870  80.2387470  88.5201380  85.6956620
  83.6145720  95.5452870  87.1036600  83.7341930  94.9494010  87.8431440
  84.4739720  95.5822560  86.6837900  85.9533620  96.0990060  85.6799110
  85.4268840  96.6232680  85.0764250  86.2964960  96.7317450  86.3108840
  78.3520010  93.4883430  72.1248820  78.1509070  92.6250790  72.4862160
  78.1812060  93.4016790  71.1870420  80.3814490  92.0874220  88.3612420
  80.9714180  91.7790070  89.0490240  79.5634730  91.6153970  88.5172320
  85.2007920  91.7040030  88.5945440  84.5123440  91.0421570  88.5295430
  85.9213940  91.2578300  89.0393900  85.8308320  88.2991660  74.6535700
  86.1110610  87.4559560  75.0095120  85.0574050  88.5314770  75.1674450
  77.1502810  90.5884050  72.1126700  77.4528710  90.5951480  71.2045850
  77.8897400  90.2381910  72.6094360  80.3687740  89.5318670  73.0982900
  80.0209740  88.8542660  72.5185350  80.5700510  89.0708180  73.9126290
  73.7093380  96.0606320  79.4947270  73.0542220  95.7917960  78.8506970
  74.5471330  95.9510800  79.0449250  86.6583820  90.8547610  73.7165760
  87.0768700  90.6678590  72.8762420  86.3519880  90.0026660  74.0268690
  90.1573550  95.7671750  77.4141560  89.7817150  94.9999680  76.9822850
  89.4276670  96.1494450  77.9016490  74.7469310  96.4458890  84.0350610
  75.1142350  96.3586290  84.9146630  74.1780130  95.6825440  83.9357470
  89.5473170  94.9143270  87.0481080  89.3159260  94.6856020  86.1479030
  89.8077720  95.8342820  87.0025970  74.2985310  93.3567980  87.9409030
  73.4041360  93.3234740  88.2802740  74.8382860  93.5554770  88.7060280
  87.9861240  90.1399700  89.8260780  88.8631420  90.1483100  90.2094780
  87.9982080  89.4030540  89.2153130  72.9231460  93.2705250  75.4372600
  72.0195540  93.5335450  75.2624260  73.4072080  93.5416420  74.6572560
  89.4324510  93.9929240  80.7148800  89.9561990  93.4991890  80.0838970
  90.0183930  94.1279600  81.4596370  89.6114230  94.0769110  84.2368350
  88.6616940  94.0432650  84.3513340  89.7927240  94.9869220  84.0018120
  75.4658670  92.3270790  73.3466980  76.1750370  91.9054010  72.8614260
  74.7498610  92.3946020  72.7150330  75.1132830  88.3810120  72.3869630
  75.8360960  88.9219060  72.7050850  75.3857350  88.1073540  71.5111170
  88.9224480  93.2502590  76.6541210  89.4183600  93.0173460  77.4390090
  88.7240550  92.4114430  76.2378850  74.8025020  87.6316310  82.2892250
  75.4501210  87.0813690  81.8487410  75.2226860  87.8859460  83.1108060
  90.3511640  91.8863540  79.1878890  90.2410920  91.7319580  80.1261160
  91.1119230  91.3584480  78.9454300  88.6977360  87.8257670  85.6461890
  89.3349580  88.4391810  86.0121080  88.8452250  87.8618330  84.7011120
  91.2401910  89.7171460  72.4285030  92.1651220  89.5852640  72.2203320
  91.2177700  89.7964280  73.3821480  91.3140400  90.4882120  75.0541740
  90.5191900  90.4227240  75.5834650  91.5183680  91.4232760  75.0427090
  74.5557020  87.7871980  85.0317570  74.2071840  88.2435800  85.7975750
  74.2244720  86.8929110  85.1140000  82.0681840  88.9783860  88.5536990
  82.0070730  89.5705690  89.3032400  83.0082220  88.8709820  88.4087250
  84.7056400  88.6353920  88.1929280  85.3196810  88.9533210  87.5310360
  85.2505960  88.1502510  88.8125140  75.2277660  87.3148180  88.3068340
  75.7760650  87.1336230  87.5434450  75.2932970  86.5242290  88.8424650
  85.4464440  87.1986060  84.5198570  84.5724280  87.5321170  84.3171500
  85.3375190  86.7259240  85.3450440  86.3536420  89.4056930  85.9040290
  86.0249780  88.5908690  85.5242020  87.3018720  89.3626740  85.7805980
  83.1939260  88.1155900  83.4591480  82.4111050  88.5901400  83.7388240
  82.9002190  87.2110730  83.3504660  87.7460330  88.8179000  81.5040570
  88.1868420  88.7624100  80.6562170  87.4767920  89.7337010  81.5750750
  89.6098900  88.4494240  79.5149390  89.5487300  87.5055460  79.3680410
  90.3890930  88.5574330  80.0602850  74.5379670  88.4203380  75.9805200
  75.2959030  88.5332260  75.4069230  74.0756840  89.2572580  75.9348630
  81.0793480  90.5342650  78.9707510  80.2667990  90.1599540  78.6303390
  81.5835120  89.7787730  79.2728700  85.5818460  87.1985100  80.2090580
  86.1847830  87.7705310  80.6839100  84.8411450  87.7624540  79.9864480
  88.7253060  87.6006660  75.4830860  88.9203690  88.4990110  75.7498290
  87.9382930  87.3693740  75.9763810  76.9104820  88.9467430  74.5207170
  77.4397580  88.1597230  74.3915120  77.5433140  89.6258620  74.7542700
  79.1042660  88.6842570  77.5752560  78.4745400  87.9829880  77.7422690
  78.5647800  89.4446700  77.3585720  79.2298220  87.9626550  90.0105050
  78.9482490  88.4660150  89.2465870  79.6117920  87.1648300  89.6447180
  85.8313680  87.3780130  90.5885520  85.7179130  87.6974740  91.4837040
  86.6483420  87.7792640  90.2922800  84.7371830  95.3972600  60.9520260
  84.6565880  94.4827210  60.6811970  84.3236250  95.8939670  60.2459970
  75.2947650  92.4473320  57.4947680  74.4064350  92.7889290  57.3927560
  75.5788840  92.2473640  56.6028510  73.2580660  95.0478970  63.3787380
  73.8296770  94.2801170  63.3791020  73.2582200  95.3467730  62.4693990
  74.5005530  90.4563330  65.1656310  74.3208370  89.5589080  65.4459070
  74.0985610  91.0035200  65.8403260  83.3404030  92.6579190  63.0668620
  83.7168850  91.7851070  62.9542290  83.2423540  92.9937890  62.1759060
  77.4709040  91.0304820  58.5286060  77.5775790  91.9308550  58.8354820
  76.5601400  90.9822790  58.2380710  87.1228150  90.1529630  59.9996960
  87.9437770  89.6626200  60.0422440  87.1562230  90.7427290  60.7528800
  75.1192200  92.9523830  63.7738650  75.8002310  93.2162200  64.3926050
  74.8040250  92.1124700  64.1076660  79.3116770  93.9991190  62.8611240
  79.8194990  94.4972160  63.5016260  79.8430010  93.2226390  62.6850600
  91.4127700  92.1696380  66.5640590  90.7079870  92.5578090  66.0455700
  91.6785620  92.8646670  67.1661520  77.5952870  88.6389750  67.1274660
  77.5971310  89.1562140  66.3220560  76.7657180  88.1619930  67.1044590
  87.3589630  92.0930010  62.7724500  86.6545200  92.3814900  63.3527610
  87.7201790  92.9030120  62.4124060  77.2768200  90.3499710  65.1345110
  77.6185010  91.1941760  64.8398980  76.3384010  90.4983450  65.2510450
  90.4276550  91.5384800  63.1633710  89.4801460  91.5723780  63.2949140
  90.7526540  92.3523750  63.5483070  80.9596090  87.8381980  61.4589700
  81.2671070  87.2828870  60.7425200  80.0296790  87.9726440  61.2762690
  83.3476850  95.9030810  58.1949820  82.4206130  95.8368190  58.4238290
  83.5001670  96.8410940  58.0805060  83.3345930  92.1747810  55.1916980
  82.3949600  92.3361770  55.2769440  83.6529190  92.8933490  54.6452970
  86.8200700  93.6435650  66.1150880  86.4071880  94.4689360  66.3690870
  86.0876650  93.0580690  65.9227240  78.9533490  96.4295550  60.9769550
  78.5490490  95.7172800  60.4815450  79.0396610  96.0848790  61.8657590
  77.6662110  93.2038760  64.7568590  78.2176700  93.3134100  63.9821840
  78.1805620  93.5776360  65.4723820  89.1355980  87.9580730  54.0198860
  88.8228640  88.0507560  54.9197930  89.8968450  88.5361760  53.9696290
  75.6538120  95.3240530  58.4776200  75.5335720  96.0502620  57.8657470
  75.3439010  94.5543440  58.0004110  90.3457270  92.6952230  69.9973000
  89.7301540  93.2031900  69.4688460  90.0253690  91.7950560  69.9398940
  82.4071590  91.5344120  67.4635190  81.9450960  91.7427140  68.2755130
  82.0049700  90.7203470  67.1605860  87.4076100  92.7553070  68.5931850
  86.5569690  92.4558820  68.9140920  87.2477890  92.9995080  67.6815670
  84.5025810  94.2554820  70.6930640  84.8279220  93.4218570  70.3532870
  85.2906140  94.7783340  70.8408970  81.2360600  88.2886300  56.7405700
  80.6114780  88.2846170  57.4659010  81.1490720  87.4217260  56.3441670
  80.1577680  89.2122930  63.7189470  80.4550010  90.1185760  63.6381490
  80.7063240  88.7241710  63.1049040  77.9116000  93.7909170  59.5881120
  77.6856920  93.5746340  60.4927740  77.1308530  94.2237630  59.2427090
  85.1413760  93.7972540  58.1871770  84.5422650  94.5208340  58.0035390
  85.6893370  93.7349320  57.4048220  80.3515210  94.6894750  70.2541390
  80.2558810  93.7489480  70.1041790  81.1947190  94.9109820  69.8589460
  83.7478630  92.4336080  60.2175050  84.1408200  92.7508280  59.4043740
  84.1095480  91.5547960  60.3319570  75.4825750  91.1008420  68.4075170
  75.0889140  91.9483630  68.6147950  74.7944150  90.4634790  68.5983810
  82.0570800  91.1843390  71.4771910  81.3669120  90.9915590  72.1118000
  82.8003100  91.4678030  72.0096210  72.7842800  89.0236880  62.4405250
  72.4955850  89.5939740  63.1530230  73.5288560  88.5441330  62.8036480
  72.9713030  92.9657000  53.6507970  72.8887700  93.9087760  53.7922960
  72.6196090  92.8231910  52.7720320  84.3333770  95.0241830  64.3125830
  83.6014890  95.5328640  64.6615930  83.9358110  94.2071810  64.0114610
  80.7711160  91.6996030  62.7178320  80.7747220  91.2585980  61.8682860
  81.6662280  92.0213360  62.8250140  76.6213540  91.5822520  61.6772530
  76.2813590  92.0597750  62.4339580  75.8590860  91.1287640  61.3173630
  80.8331310  92.7008110  55.7085080  80.9544130  92.6594590  56.6570900
  80.4479820  93.5632260  55.5531810  84.7959680  90.4775510  63.7248770
  84.8132420  90.9284160  64.5690620  84.5475260  89.5781150  63.9382210
  79.8452810  95.0109250  55.1068380  79.2769710  94.5627500  54.4804290
  80.5541810  95.3702030  54.5733530  88.2230430  87.8907690  69.5635150
  88.5476200  87.1597350  70.0893130  88.2586940  87.5721330  68.6616140
  81.0719130  95.7597810  64.4643730  81.4389260  95.2856380  65.2105070
  80.8824190  96.6339380  64.8052070  73.9359620  90.5041500  60.5937200
  73.6506540  90.1397170  61.4315820  73.8738480  89.7721960  59.9800340
  78.8618500  94.8006450  66.7827940  78.5575570  95.6798430  67.0078300
  79.8164960  94.8606240  66.8185380  83.6098210  89.3970760  57.3150570
  82.7962820  88.8983930  57.2395880  83.4160160  90.2369010  56.8986920
  86.3246600  93.7690410  55.6112730  87.2126220  94.0807640  55.4364070
  86.2951690  92.8962660  55.2193310  74.9182230  95.6409190  67.9299300
  74.5597170  96.3063040  68.5172640  74.6236790  94.8092740  68.3011920
  78.1195350  96.0993430  70.8138850  77.8195490  96.2450610  69.9166670
  78.8906590  95.5398720  70.7212240  88.5960870  95.0802250  55.0792590
  88.5124590  95.5116470  54.2289030  89.3155060  95.5400600  55.5119410
  73.4290280  95.6400450  54.5533900  74.2985130  95.9225250  54.8369820
  72.9380600  96.4536320  54.4382710  76.4936870  87.3711310  59.1464700
  76.3651500  87.3629210  60.0949620  75.6698890  87.7094400  58.7955710
  73.4930800  89.1302430  68.6071400  72.7789320  89.3299350  69.2124010
  73.9125840  88.3542000  68.9786200  84.9869580  91.6224740  66.3572850
  85.3550400  90.8019950  66.6852420  84.1267780  91.6826630  66.7728500
  88.3531610  90.5781680  57.1660410  87.7244770  90.6827350  56.4518640
  87.8583530  90.7978460  57.9554290  80.3215640  92.8567630  58.5818290
  79.6131790  93.3253970  59.0231900  80.6060120  92.1989640  59.2163480
  81.9471570  94.2764330  66.5810820  82.4456820  94.7510150  67.2462670
  82.0894520  93.3527850  66.7880850  84.3531070  89.5818290  60.0214080
  84.2298850  89.6004420  59.0723590  85.3015630  89.6297230  60.1412480
  78.5250660  91.1652710  55.9569000  79.3741190  91.6022860  55.8909190
  78.1581930  91.4772970  56.7841060  89.1538430  90.4932290  67.4239210
  88.6512030  91.2337690  67.7633020  89.9695090  90.8816290  67.1076000
  87.4460440  95.7365470  60.8700570  86.5050580  95.7515700  61.0448260
  87.7604510  94.9501430  61.3160870  76.1188840  94.8510140  55.1137420
  76.1992430  93.9037650  55.2254820  77.0108590  95.1817020  55.2198080
  73.6459640  96.6725060  70.3493590  74.1498660  96.0932340  70.9209820
  72.9067060  96.9565290  70.8869960  75.6782720  94.8154650  71.2443660
  75.7188060  94.5168520  72.1528890  76.5328220  95.2162260  71.0851180
  77.6188530  93.3946750  69.2118150  77.0884990  92.9037700  68.5841490
  78.2876600  93.8230950  68.6776080  86.9888760  95.2012370  70.9798490
  87.5709530  94.4464690  70.8918970  87.1650530  95.7319810  70.2029970
  78.1060830  90.3609120  69.2915440  78.0117700  89.7429870  68.5666310
  77.5258220  91.0875410  69.0645350  80.8722270  88.9182360  66.3242830
  80.4239570  88.9406620  65.4788380  80.2387470  88.5201380  66.9213130
  83.6145720  95.5452870  68.3293110  83.7341930  94.9494010  69.0687950
  84.4739720  95.5822560  67.9094410  85.9533620  96.0990060  66.9055620
  85.4268840  96.6232680  66.3020760  86.2964960  96.7317450  67.5365350
  78.3520010  93.4883430  53.3505330  78.1509070  92.6250790  53.7118670
  78.1812060  93.4016790  52.4126930  80.3814490  92.0874220  69.5868930
  80.9714180  91.7790070  70.2746750  79.5634730  91.6153970  69.7428830
  85.2007920  91.7040030  69.8201950  84.5123440  91.0421570  69.7551940
  85.9213940  91.2578300  70.2650410  85.8308320  88.2991660  55.8792210
  86.1110610  87.4559560  56.2351630  85.0574050  88.5314770  56.3930960
  77.1502810  90.5884050  53.3383210  77.4528710  90.5951480  52.4302360
  77.8897400  90.2381910  53.8350870  80.3687740  89.5318670  54.3239410
  80.0209740  88.8542660  53.7441860  80.5700510  89.0708180  55.1382800
  73.7093380  96.0606320  60.7203780  73.0542220  95.7917960  60.0763480
  74.5471330  95.9510800  60.2705760  86.6583820  90.8547610  54.9422270
  87.0768700  90.6678590  54.1018930  86.3519880  90.0026660  55.2525200
  90.1573550  95.7671750  58.6398070  89.7817150  94.9999680  58.2079360
  89.4276670  96.1494450  59.1273000  74.7469310  96.4458890  65.2607120
  75.1142350  96.3586290  66.1403140  74.1780130  95.6825440  65.1613980
  89.5473170  94.9143270  68.2737590  89.3159260  94.6856020  67.3735540
  89.8077720  95.8342820  68.2282480  74.2985310  93.3567980  69.1665540
  73.4041360  93.3234740  69.5059250  74.8382860  93.5554770  69.9316790
  87.9861240  90.1399700  71.0517290  88.8631420  90.1483100  71.4351290
  87.9982080  89.4030540  70.4409640  72.9231460  93.2705250  56.6629110
  72.0195540  93.5335450  56.4880770  73.4072080  93.5416420  55.8829070
  89.4324510  93.9929240  61.9405310  89.9561990  93.4991890  61.3095480
  90.0183930  94.1279600  62.6852880  89.6114230  94.0769110  65.4624860
  88.6616940  94.0432650  65.5769850  89.7927240  94.9869220  65.2274630
  75.4658670  92.3270790  54.5723490  76.1750370  91.9054010  54.0870770
  74.7498610  92.3946020  53.9406840  75.1132830  88.3810120  53.6126140
  75.8360960  88.9219060  53.9307360  75.3857350  88.1073540  52.7367680
  88.9224480  93.2502590  57.8797720  89.4183600  93.0173460  58.6646600
  88.7240550  92.4114430  57.4635360  90.3511640  91.8863540  60.4135400
  90.2410920  91.7319580  61.3517670  91.1119230  91.3584480  60.1710810
  88.6977360  87.8257670  66.8718400  89.3349580  88.4391810  67.2377590
  88.8452250  87.8618330  65.9267630  91.2401910  89.7171460  53.6541540
  92.1651220  89.5852640  53.4459830  91.2177700  89.7964280  54.6077990
  91.3140400  90.4882120  56.2798250  90.5191900  90.4227240  56.8091160
  91.5183680  91.4232760  56.2683600  74.5557020  87.7871980  66.2574080
  74.2071840  88.2435800  67.0232260  74.2244720  86.8929110  66.3396510
  82.0681840  88.9783860  69.7793500  82.0070730  89.5705690  70.5288910
  83.0082220  88.8709820  69.6343760  84.7056400  88.6353920  69.4185790
  85.3196810  88.9533210  68.7566870  85.2505960  88.1502510  70.0381650
  75.2277660  87.3148180  69.5324850  75.7760650  87.1336230  68.7690960
  75.2932970  86.5242290  70.0681160  85.4464440  87.1986060  65.7455080
  84.5724280  87.5321170  65.5428010  85.3375190  86.7259240  66.5706950
  86.3536420  89.4056930  67.1296800  86.0249780  88.5908690  66.7498530
  87.3018720  89.3626740  67.0062490  83.1939260  88.1155900  64.6847990
  82.4111050  88.5901400  64.9644750  82.9002190  87.2110730  64.5761170
  87.7460330  88.8179000  62.7297080  88.1868420  88.7624100  61.8818680
  87.4767920  89.7337010  62.8007260  89.6098900  88.4494240  60.7405900
  89.5487300  87.5055460  60.5936920  90.3890930  88.5574330  61.2859360
  74.5379670  88.4203380  57.2061710  75.2959030  88.5332260  56.6325740
  74.0756840  89.2572580  57.1605140  81.0793480  90.5342650  60.1964020
  80.2667990  90.1599540  59.8559900  81.5835120  89.7787730  60.4985210
  85.5818460  87.1985100  61.4347090  86.1847830  87.7705310  61.9095610
  84.8411450  87.7624540  61.2120990  88.7253060  87.6006660  56.7087370
  88.9203690  88.4990110  56.9754800  87.9382930  87.3693740  57.2020320
  76.9104820  88.9467430  55.7463680  77.4397580  88.1597230  55.6171630
  77.5433140  89.6258620  55.9799210  79.1042660  88.6842570  58.8009070
  78.4745400  87.9829880  58.9679200  78.5647800  89.4446700  58.5842230
  79.2298220  87.9626550  71.2361560  78.9482490  88.4660150  70.4722380
  79.6117920  87.1648300  70.8703690  85.8313680  87.3780130  71.8142030
  85.7179130  87.6974740  72.7093550  86.6483420  87.7792640  71.5179310
  84.7371830  95.3972600  42.1776770  84.6565880  94.4827210  41.9068480
  84.3236250  95.8939670  41.4716480  75.2947650  92.4473320  38.7204190
  74.4064350  92.7889290  38.6184070  75.5788840  92.2473640  37.8285020
  73.2580660  95.0478970  44.6043890  73.8296770  94.2801170  44.6047530
  73.2582200  95.3467730  43.6950500  74.5005530  90.4563330  46.3912820
  74.3208370  89.5589080  46.6715580  74.0985610  91.0035200  47.0659770
  83.3404030  92.6579190  44.2925130  83.7168850  91.7851070  44.1798800
  83.2423540  92.9937890  43.4015570  77.4709040  91.0304820  39.7542570
  77.5775790  91.9308550  40.0611330  76.5601400  90.9822790  39.4637220
  87.1228150  90.1529630  41.2253470  87.9437770  89.6626200  41.2678950
  87.1562230  90.7427290  41.9785310  75.1192200  92.9523830  44.9995160
  75.8002310  93.2162200  45.6182560  74.8040250  92.1124700  45.3333170
  79.3116770  93.9991190  44.0867750  79.8194990  94.4972160  44.7272770
  79.8430010  93.2226390  43.9107110  91.4127700  92.1696380  47.7897100
  90.7079870  92.5578090  47.2712210  91.6785620  92.8646670  48.3918030
  77.5952870  88.6389750  48.3531170  77.5971310  89.1562140  47.5477070
  76.7657180  88.1619930  48.3301100  87.3589630  92.0930010  43.9981010
  86.6545200  92.3814900  44.5784120  87.7201790  92.9030120  43.6380570
  77.2768200  90.3499710  46.3601620  77.6185010  91.1941760  46.0655490
  76.3384010  90.4983450  46.4766960  90.4276550  91.5384800  44.3890220
  89.4801460  91.5723780  44.5205650  90.7526540  92.3523750  44.7739580
  80.9596090  87.8381980  42.6846210  81.2671070  87.2828870  41.9681710
  80.0296790  87.9726440  42.5019200  83.3476850  95.9030810  39.4206330
  82.4206130  95.8368190  39.6494800  83.5001670  96.8410940  39.3061570
  83.3345930  92.1747810  36.4173490  82.3949600  92.3361770  36.5025950
  83.6529190  92.8933490  35.8709480  86.8200700  93.6435650  47.3407390
  86.4071880  94.4689360  47.5947380  86.0876650  93.0580690  47.1483750
  78.9533490  96.4295550  42.2026060  78.5490490  95.7172800  41.7071960
  79.0396610  96.0848790  43.0914100  77.6662110  93.2038760  45.9825100
  78.2176700  93.3134100  45.2078350  78.1805620  93.5776360  46.6980330
  89.1355980  87.9580730  35.2455370  88.8228640  88.0507560  36.1454440
  89.8968450  88.5361760  35.1952800  75.6538120  95.3240530  39.7032710
  75.5335720  96.0502620  39.0913980  75.3439010  94.5543440  39.2260620
  90.3457270  92.6952230  51.2229510  89.7301540  93.2031900  50.6944970
  90.0253690  91.7950560  51.1655450  78.1201780  88.6675600  43.0856380
  77.6769930  89.4485140  42.7540900  78.6786770  88.9905490  43.7927320
  82.4071590  91.5344120  48.6891700  81.9450960  91.7427140  49.5011640
  82.0049700  90.7203470  48.3862370  87.4076100  92.7553070  49.8188360
  86.5569690  92.4558820  50.1397430  87.2477890  92.9995080  48.9072180
  84.5025810  94.2554820  51.9187150  84.8279220  93.4218570  51.5789380
  85.2906140  94.7783340  52.0665480  81.2360600  88.2886300  37.9662210
  80.6114780  88.2846170  38.6915520  81.1490720  87.4217260  37.5698180
  80.1577680  89.2122930  44.9445980  80.4550010  90.1185760  44.8638000
  80.7063240  88.7241710  44.3305550  77.9116000  93.7909170  40.8137630
  77.6856920  93.5746340  41.7184250  77.1308530  94.2237630  40.4683600
  85.1413760  93.7972540  39.4128280  84.5422650  94.5208340  39.2291900
  85.6893370  93.7349320  38.6304730  80.3515210  94.6894750  51.4797900
  80.2558810  93.7489480  51.3298300  81.1947190  94.9109820  51.0845970
  83.7478630  92.4336080  41.4431560  84.1408200  92.7508280  40.6300250
  84.1095480  91.5547960  41.5576080  75.4825750  91.1008420  49.6331680
  75.0889140  91.9483630  49.8404460  74.7944150  90.4634790  49.8240320
  82.0570800  91.1843390  52.7028420  81.3669120  90.9915590  53.3374510
  82.8003100  91.4678030  53.2352720  72.7842800  89.0236880  43.6661760
  72.4955850  89.5939740  44.3786740  73.5288560  88.5441330  44.0292990
  72.9713030  92.9657000  34.8764480  72.8887700  93.9087760  35.0179470
  72.6196090  92.8231910  33.9976830  84.3333770  95.0241830  45.5382340
  83.6014890  95.5328640  45.8872440  83.9358110  94.2071810  45.2371120
  80.7711160  91.6996030  43.9434830  80.7747220  91.2585980  43.0939370
  81.6662280  92.0213360  44.0506650  76.6213540  91.5822520  42.9029040
  76.2813590  92.0597750  43.6596090  75.8590860  91.1287640  42.5430140
  80.8331310  92.7008110  36.9341590  80.9544130  92.6594590  37.8827410
  80.4479820  93.5632260  36.7788320  84.7959680  90.4775510  44.9505280
  84.8132420  90.9284160  45.7947130  84.5475260  89.5781150  45.1638720
  79.8452810  95.0109250  36.3324890  79.2769710  94.5627500  35.7060800
  80.5541810  95.3702030  35.7990040  88.2230430  87.8907690  50.7891660
  88.5476200  87.1597350  51.3149640  88.2586940  87.5721330  49.8872650
  81.0719130  95.7597810  45.6900240  81.4389260  95.2856380  46.4361580
  80.8824190  96.6339380  46.0308580  73.9359620  90.5041500  41.8193710
  73.6506540  90.1397170  42.6572330  73.8738480  89.7721960  41.2056850
  78.8618500  94.8006450  48.0084450  78.5575570  95.6798430  48.2334810
  79.8164960  94.8606240  48.0441890  83.6098210  89.3970760  38.5407080
  82.7962820  88.8983930  38.4652390  83.4160160  90.2369010  38.1243430
  86.3246600  93.7690410  36.8369240  87.2126220  94.0807640  36.6620580
  86.2951690  92.8962660  36.4449820  74.9182230  95.6409190  49.1555810
  74.5597170  96.3063040  49.7429150  74.6236790  94.8092740  49.5268430
  78.1195350  96.0993430  52.0395360  77.8195490  96.2450610  51.1423180
  78.8906590  95.5398720  51.9468750  88.5960870  95.0802250  36.3049100
  88.5124590  95.5116470  35.4545540  89.3155060  95.5400600  36.7375920
  73.4290280  95.6400450  35.7790410  74.2985130  95.9225250  36.0626330
  72.9380600  96.4536320  35.6639220  76.4936870  87.3711310  40.3721210
  76.3651500  87.3629210  41.3206130  75.6698890  87.7094400  40.0212220
  73.4930800  89.1302430  49.8327910  72.7789320  89.3299350  50.4380520
  73.9125840  88.3542000  50.2042710  84.9869580  91.6224740  47.5829360
  85.3550400  90.8019950  47.9108930  84.1267780  91.6826630  47.9985010
  88.3531610  90.5781680  38.3916920  87.7244770  90.6827350  37.6775150
  87.8583530  90.7978460  39.1810800  80.3215640  92.8567630  39.8074800
  79.6131790  93.3253970  40.2488410  80.6060120  92.1989640  40.4419990
  81.9471570  94.2764330  47.8067330  82.4456820  94.7510150  48.4719180
  82.0894520  93.3527850  48.0137360  84.3531070  89.5818290  41.2470590
  84.2298850  89.6004420  40.2980100  85.3015630  89.6297230  41.3668990
  78.5250660  91.1652710  37.1825510  79.3741190  91.6022860  37.1165700
  78.1581930  91.4772970  38.0097570  89.1538430  90.4932290  48.6495720
  88.6512030  91.2337690  48.9889530  89.9695090  90.8816290  48.3332510
  87.4460440  95.7365470  42.0957080  86.5050580  95.7515700  42.2704770
  87.7604510  94.9501430  42.5417380  76.1188840  94.8510140  36.3393930
  76.1992430  93.9037650  36.4511330  77.0108590  95.1817020  36.4454590
  73.6459640  96.6725060  51.5750100  74.1498660  96.0932340  52.1466330
  72.9067060  96.9565290  52.1126470  75.6782720  94.8154650  52.4700170
  75.7188060  94.5168520  53.3785400  76.5328220  95.2162260  52.3107690
  77.6188530  93.3946750  50.4374660  77.0884990  92.9037700  49.8098000
  78.2876600  93.8230950  49.9032590  86.9888760  95.2012370  52.2055000
  87.5709530  94.4464690  52.1175480  87.1650530  95.7319810  51.4286480
  78.1060830  90.3609120  50.5171950  78.0117700  89.7429870  49.7922820
  77.5258220  91.0875410  50.2901860  80.8722270  88.9182360  47.5499340
  80.4239570  88.9406620  46.7044890  80.2387470  88.5201380  48.1469640
  83.6145720  95.5452870  49.5549620  83.7341930  94.9494010  50.2944460
  84.4739720  95.5822560  49.1350920  85.9533620  96.0990060  48.1312130
  85.4268840  96.6232680  47.5277270  86.2964960  96.7317450  48.7621860
  78.3520010  93.4883430  34.5761840  78.1509070  92.6250790  34.9375180
  78.1812060  93.4016790  33.6383440  80.3814490  92.0874220  50.8125440
  80.9714180  91.7790070  51.5003260  79.5634730  91.6153970  50.9685340
  85.2007920  91.7040030  51.0458460  84.5123440  91.0421570  50.9808450
  85.9213940  91.2578300  51.4906920  85.8308320  88.2991660  37.1048720
  86.1110610  87.4559560  37.4608140  85.0574050  88.5314770  37.6187470
  77.1502810  90.5884050  34.5639720  77.4528710  90.5951480  33.6558870
  77.8897400  90.2381910  35.0607380  80.3687740  89.5318670  35.5495920
  80.0209740  88.8542660  34.9698370  80.5700510  89.0708180  36.3639310
  73.7093380  96.0606320  41.9460290  73.0542220  95.7917960  41.3019990
  74.5471330  95.9510800  41.4962270  86.6583820  90.8547610  36.1678780
  87.0768700  90.6678590  35.3275440  86.3519880  90.0026660  36.4781710
  90.1573550  95.7671750  39.8654580  89.7817150  94.9999680  39.4335870
  89.4276670  96.1494450  40.3529510  74.7469310  96.4458890  46.4863630
  75.1142350  96.3586290  47.3659650  74.1780130  95.6825440  46.3870490
  89.5473170  94.9143270  49.4994100  89.3159260  94.6856020  48.5992050
  89.8077720  95.8342820  49.4538990  74.2985310  93.3567980  50.3922050
  73.4041360  93.3234740  50.7315760  74.8382860  93.5554770  51.1573300
  87.9861240  90.1399700  52.2773800  88.8631420  90.1483100  52.6607800
  87.9982080  89.4030540  51.6666150  72.9231460  93.2705250  37.8885620
  72.0195540  93.5335450  37.7137280  73.4072080  93.5416420  37.1085580
  89.4324510  93.9929240  43.1661820  89.9561990  93.4991890  42.5351990
  90.0183930  94.1279600  43.9109390  89.6114230  94.0769110  46.6881370
  88.6616940  94.0432650  46.8026360  89.7927240  94.9869220  46.4531140
  75.4658670  92.3270790  35.7980000  76.1750370  91.9054010  35.3127280
  74.7498610  92.3946020  35.1663350  75.1132830  88.3810120  34.8382650
  75.8360960  88.9219060  35.1563870  75.3857350  88.1073540  33.9624190
  88.9224480  93.2502590  39.1054230  89.4183600  93.0173460  39.8903110
  88.7240550  92.4114430  38.6891870  74.8025020  87.6316310  44.7405270
  75.4501210  87.0813690  44.3000430  75.2226860  87.8859460  45.5621080
  90.3511640  91.8863540  41.6391910  90.2410920  91.7319580  42.5774180
  91.1119230  91.3584480  41.3967320  88.6977360  87.8257670  48.0974910
  89.3349580  88.4391810  48.4634100  88.8452250  87.8618330  47.1524140
  91.2401910  89.7171460  34.8798050  92.1651220  89.5852640  34.6716340
  91.2177700  89.7964280  35.8334500  91.3140400  90.4882120  37.5054760
  90.5191900  90.4227240  38.0347670  91.5183680  91.4232760  37.4940110
  74.5557020  87.7871980  47.4830590  74.2071840  88.2435800  48.2488770
  74.2244720  86.8929110  47.5653020  82.0681840  88.9783860  51.0050010
  82.0070730  89.5705690  51.7545420  83.0082220  88.8709820  50.8600270
  84.7056400  88.6353920  50.6442300  85.3196810  88.9533210  49.9823380
  85.2505960  88.1502510  51.2638160  75.2277660  87.3148180  50.7581360
  75.7760650  87.1336230  49.9947470  75.2932970  86.5242290  51.2937670
  85.4464440  87.1986060  46.9711590  84.5724280  87.5321170  46.7684520
  85.3375190  86.7259240  47.7963460  86.3536420  89.4056930  48.3553310
  86.0249780  88.5908690  47.9755040  87.3018720  89.3626740  48.2319000
  83.1939260  88.1155900  45.9104500  82.4111050  88.5901400  46.1901260
  82.9002190  87.2110730  45.8017680  87.7460330  88.8179000  43.9553590
  88.1868420  88.7624100  43.1075190  87.4767920  89.7337010  44.0263770
  89.6098900  88.4494240  41.9662410  89.5487300  87.5055460  41.8193430
  90.3890930  88.5574330  42.5115870  74.5379670  88.4203380  38.4318220
  75.2959030  88.5332260  37.8582250  74.0756840  89.2572580  38.3861650
  81.0793480  90.5342650  41.4220530  80.2667990  90.1599540  41.0816410
  81.5835120  89.7787730  41.7241720  85.5818460  87.1985100  42.6603600
  86.1847830  87.7705310  43.1352120  84.8411450  87.7624540  42.4377500
  88.7253060  87.6006660  37.9343880  88.9203690  88.4990110  38.2011310
  87.9382930  87.3693740  38.4276830  76.9104820  88.9467430  36.9720190
  77.4397580  88.1597230  36.8428140  77.5433140  89.6258620  37.2055720
  79.1042660  88.6842570  40.0265580  78.4745400  87.9829880  40.1935710
  78.5647800  89.4446700  39.8098740  79.2298220  87.9626550  52.4618070
  78.9482490  88.4660150  51.6978890  79.6117920  87.1648300  52.0960200
  85.8313680  87.3780130  53.0398540  85.7179130  87.6974740  53.9350060
  86.6483420  87.7792640  52.7435820  84.7371830  95.3972600  23.4033280
  84.6565880  94.4827210  23.1324990  84.3236250  95.8939670  22.6972990
  75.2947650  92.4473320  19.9460700  74.4064350  92.7889290  19.8440580
  75.5788840  92.2473640  19.0541530  73.2580660  95.0478970  25.8300400
  73.8296770  94.2801170  25.8304040  73.2582200  95.3467730  24.9207010
  74.5005530  90.4563330  27.6169330  74.3208370  89.5589080  27.8972090
  74.0985610  91.0035200  28.2916280  83.3404030  92.6579190  25.5181640
  83.7168850  91.7851070  25.4055310  83.2423540  92.9937890  24.6272080
  77.4709040  91.0304820  20.9799080  77.5775790  91.9308550  21.2867840
  76.5601400  90.9822790  20.6893730  87.1228150  90.1529630  22.4509980
  87.9437770  89.6626200  22.4935460  87.1562230  90.7427290  23.2041820
  75.1192200  92.9523830  26.2251670  75.8002310  93.2162200  26.8439070
  74.8040250  92.1124700  26.5589680  79.3116770  93.9991190  25.3124260
  79.8194990  94.4972160  25.9529280  79.8430010  93.2226390  25.1363620
  91.4127700  92.1696380  29.0153610  90.7079870  92.5578090  28.4968720
  91.6785620  92.8646670  29.6174540  77.5952870  88.6389750  29.5787680
  77.5971310  89.1562140  28.7733580  76.7657180  88.1619930  29.5557610
  87.3589630  92.0930010  25.2237520  86.6545200  92.3814900  25.8040630
  87.7201790  92.9030120  24.8637080  77.2768200  90.3499710  27.5858130
  77.6185010  91.1941760  27.2912000  76.3384010  90.4983450  27.7023470
  90.4276550  91.5384800  25.6146730  89.4801460  91.5723780  25.7462160
  90.7526540  92.3523750  25.9996090  80.9596090  87.8381980  23.9102720
  81.2671070  87.2828870  23.1938220  80.0296790  87.9726440  23.7275710
  83.3476850  95.9030810  20.6462840  82.4206130  95.8368190  20.8751310
  83.5001670  96.8410940  20.5318080  83.3345930  92.1747810  17.6430000
  82.3949600  92.3361770  17.7282460  83.6529190  92.8933490  17.0965990
  86.8200700  93.6435650  28.5663900  86.4071880  94.4689360  28.8203890
  86.0876650  93.0580690  28.3740260  78.9533490  96.4295550  23.4282570
  78.5490490  95.7172800  22.9328470  79.0396610  96.0848790  24.3170610
  77.6662110  93.2038760  27.2081610  78.2176700  93.3134100  26.4334860
  78.1805620  93.5776360  27.9236840  89.1355980  87.9580730  16.4711880
  88.8228640  88.0507560  17.3710950  89.8968450  88.5361760  16.4209310
  75.6538120  95.3240530  20.9289220  75.5335720  96.0502620  20.3170490
  75.3439010  94.5543440  20.4517130  90.3457270  92.6952230  32.4486020
  89.7301540  93.2031900  31.9201480  90.0253690  91.7950560  32.3911960
  78.1201780  88.6675600  24.3112890  77.6769930  89.4485140  23.9797410
  78.6786770  88.9905490  25.0183830  82.4071590  91.5344120  29.9148210
  81.9450960  91.7427140  30.7268150  82.0049700  90.7203470  29.6118880
  87.4076100  92.7553070  31.0444870  86.5569690  92.4558820  31.3653940
  87.2477890  92.9995080  30.1328690  84.5025810  94.2554820  33.1443660
  84.8279220  93.4218570  32.8045890  85.2906140  94.7783340  33.2921990
  81.2360600  88.2886300  19.1918720  80.6114780  88.2846170  19.9172030
  81.1490720  87.4217260  18.7954690  80.1577680  89.2122930  26.1702490
  80.4550010  90.1185760  26.0894510  80.7063240  88.7241710  25.5562060
  77.9116000  93.7909170  22.0394140  77.6856920  93.5746340  22.9440760
  77.1308530  94.2237630  21.6940110  85.1413760  93.7972540  20.6384790
  84.5422650  94.5208340  20.4548410  85.6893370  93.7349320  19.8561240
  80.3515210  94.6894750  32.7054410  80.2558810  93.7489480  32.5554810
  81.1947190  94.9109820  32.3102480  83.7478630  92.4336080  22.6688070
  84.1408200  92.7508280  21.8556760  84.1095480  91.5547960  22.7832590
  75.4825750  91.1008420  30.8588190  75.0889140  91.9483630  31.0660970
  74.7944150  90.4634790  31.0496830  82.0570800  91.1843390  33.9284930
  81.3669120  90.9915590  34.5631020  82.8003100  91.4678030  34.4609230
  72.7842800  89.0236880  24.8918270  72.4955850  89.5939740  25.6043250
  73.5288560  88.5441330  25.2549500  72.9713030  92.9657000  16.1020990
  72.8887700  93.9087760  16.2435980  72.6196090  92.8231910  15.2233340
  84.3333770  95.0241830  26.7638850  83.6014890  95.5328640  27.1128950
  83.9358110  94.2071810  26.4627630  80.7711160  91.6996030  25.1691340
  80.7747220  91.2585980  24.3195880  81.6662280  92.0213360  25.2763160
  76.6213540  91.5822520  24.1285550  76.2813590  92.0597750  24.8852600
  75.8590860  91.1287640  23.7686650  80.8331310  92.7008110  18.1598100
  80.9544130  92.6594590  19.1083920  80.4479820  93.5632260  18.0044830
  84.7959680  90.4775510  26.1761790  84.8132420  90.9284160  27.0203640
  84.5475260  89.5781150  26.3895230  79.8452810  95.0109250  17.5581400
  79.2769710  94.5627500  16.9317310  80.5541810  95.3702030  17.0246550
  88.2230430  87.8907690  32.0148170  88.5476200  87.1597350  32.5406150
  88.2586940  87.5721330  31.1129160  81.0719130  95.7597810  26.9156750
  81.4389260  95.2856380  27.6618090  80.8824190  96.6339380  27.2565090
  73.9359620  90.5041500  23.0450220  73.6506540  90.1397170  23.8828840
  73.8738480  89.7721960  22.4313360  78.8618500  94.8006450  29.2340960
  78.5575570  95.6798430  29.4591320  79.8164960  94.8606240  29.2698400
  83.6098210  89.3970760  19.7663590  82.7962820  88.8983930  19.6908900
  83.4160160  90.2369010  19.3499940  86.3246600  93.7690410  18.0625750
  87.2126220  94.0807640  17.8877090  86.2951690  92.8962660  17.6706330
  74.9182230  95.6409190  30.3812320  74.5597170  96.3063040  30.9685660
  74.6236790  94.8092740  30.7524940  78.1195350  96.0993430  33.2651870
  77.8195490  96.2450610  32.3679690  78.8906590  95.5398720  33.1725260
  88.5960870  95.0802250  17.5305610  88.5124590  95.5116470  16.6802050
  89.3155060  95.5400600  17.9632430  73.4290280  95.6400450  17.0046920
  74.2985130  95.9225250  17.2882840  72.9380600  96.4536320  16.8895730
  76.4936870  87.3711310  21.5977720  76.3651500  87.3629210  22.5462640
  75.6698890  87.7094400  21.2468730  73.4930800  89.1302430  31.0584420
  72.7789320  89.3299350  31.6637030  73.9125840  88.3542000  31.4299220
  84.9869580  91.6224740  28.8085870  85.3550400  90.8019950  29.1365440
  84.1267780  91.6826630  29.2241520  88.3531610  90.5781680  19.6173430
  87.7244770  90.6827350  18.9031660  87.8583530  90.7978460  20.4067310
  80.3215640  92.8567630  21.0331310  79.6131790  93.3253970  21.4744920
  80.6060120  92.1989640  21.6676500  81.9471570  94.2764330  29.0323840
  82.4456820  94.7510150  29.6975690  82.0894520  93.3527850  29.2393870
  84.3531070  89.5818290  22.4727100  84.2298850  89.6004420  21.5236610
  85.3015630  89.6297230  22.5925500  78.5250660  91.1652710  18.4082020
  79.3741190  91.6022860  18.3422210  78.1581930  91.4772970  19.2354080
  89.1538430  90.4932290  29.8752230  88.6512030  91.2337690  30.2146040
  89.9695090  90.8816290  29.5589020  87.4460440  95.7365470  23.3213590
  86.5050580  95.7515700  23.4961280  87.7604510  94.9501430  23.7673890
  76.1188840  94.8510140  17.5650440  76.1992430  93.9037650  17.6767840
  77.0108590  95.1817020  17.6711100  73.6459640  96.6725060  32.8006610
  74.1498660  96.0932340  33.3722840  72.9067060  96.9565290  33.3382980
  75.6782720  94.8154650  33.6956680  75.7188060  94.5168520  34.6041910
  76.5328220  95.2162260  33.5364200  77.6188530  93.3946750  31.6631170
  77.0884990  92.9037700  31.0354510  78.2876600  93.8230950  31.1289100
  86.9888760  95.2012370  33.4311510  87.5709530  94.4464690  33.3431990
  87.1650530  95.7319810  32.6542990  78.1060830  90.3609120  31.7428460
  78.0117700  89.7429870  31.0179330  77.5258220  91.0875410  31.5158370
  80.8722270  88.9182360  28.7755850  80.4239570  88.9406620  27.9301400
  80.2387470  88.5201380  29.3726150  83.6145720  95.5452870  30.7806130
  83.7341930  94.9494010  31.5200970  84.4739720  95.5822560  30.3607430
  85.9533620  96.0990060  29.3568640  85.4268840  96.6232680  28.7533780
  86.2964960  96.7317450  29.9878370  78.3520010  93.4883430  15.8018350
  78.1509070  92.6250790  16.1631690  78.1812060  93.4016790  14.8639950
  80.3814490  92.0874220  32.0381950  80.9714180  91.7790070  32.7259770
  79.5634730  91.6153970  32.1941850  85.2007920  91.7040030  32.2714970
  84.5123440  91.0421570  32.2064960  85.9213940  91.2578300  32.7163430
  85.8308320  88.2991660  18.3305230  86.1110610  87.4559560  18.6864650
  85.0574050  88.5314770  18.8443980  77.1502810  90.5884050  15.7896230
  77.4528710  90.5951480  14.8815380  77.8897400  90.2381910  16.2863890
  80.3687740  89.5318670  16.7752430  80.0209740  88.8542660  16.1954880
  80.5700510  89.0708180  17.5895820  73.7093380  96.0606320  23.1716800
  73.0542220  95.7917960  22.5276500  74.5471330  95.9510800  22.7218780
  86.6583820  90.8547610  17.3935290  87.0768700  90.6678590  16.5531950
  86.3519880  90.0026660  17.7038220  90.1573550  95.7671750  21.0911090
  89.7817150  94.9999680  20.6592380  89.4276670  96.1494450  21.5786020
  74.7469310  96.4458890  27.7120140  75.1142350  96.3586290  28.5916160
  74.1780130  95.6825440  27.6127000  89.5473170  94.9143270  30.7250610
  89.3159260  94.6856020  29.8248560  89.8077720  95.8342820  30.6795500
  74.2985310  93.3567980  31.6178560  73.4041360  93.3234740  31.9572270
  74.8382860  93.5554770  32.3829810  87.9861240  90.1399700  33.5030310
  88.8631420  90.1483100  33.8864310  87.9982080  89.4030540  32.8922660
  72.9231460  93.2705250  19.1142130  72.0195540  93.5335450  18.9393790
  73.4072080  93.5416420  18.3342090  89.4324510  93.9929240  24.3918330
  89.9561990  93.4991890  23.7608500  90.0183930  94.1279600  25.1365900
  89.6114230  94.0769110  27.9137880  88.6616940  94.0432650  28.0282870
  89.7927240  94.9869220  27.6787650  75.4658670  92.3270790  17.0236510
  76.1750370  91.9054010  16.5383790  74.7498610  92.3946020  16.3919860
  75.1132830  88.3810120  16.0639160  75.8360960  88.9219060  16.3820380
  75.3857350  88.1073540  15.1880700  88.9224480  93.2502590  20.3310740
  89.4183600  93.0173460  21.1159620  88.7240550  92.4114430  19.9148380
  74.8025020  87.6316310  25.9661780  75.4501210  87.0813690  25.5256940
  75.2226860  87.8859460  26.7877590  90.3511640  91.8863540  22.8648420
  90.2410920  91.7319580  23.8030690  91.1119230  91.3584480  22.6223830
  88.6977360  87.8257670  29.3231420  89.3349580  88.4391810  29.6890610
  88.8452250  87.8618330  28.3780650  91.2401910  89.7171460  16.1054560
  92.1651220  89.5852640  15.8972850  91.2177700  89.7964280  17.0591010
  91.3140400  90.4882120  18.7311270  90.5191900  90.4227240  19.2604180
  91.5183680  91.4232760  18.7196620  74.5557020  87.7871980  28.7087100
  74.2071840  88.2435800  29.4745280  74.2244720  86.8929110  28.7909530
  82.0681840  88.9783860  32.2306520  82.0070730  89.5705690  32.9801930
  83.0082220  88.8709820  32.0856780  84.7056400  88.6353920  31.8698810
  85.3196810  88.9533210  31.2079890  85.2505960  88.1502510  32.4894670
  75.2277660  87.3148180  31.9837870  75.7760650  87.1336230  31.2203980
  75.2932970  86.5242290  32.5194180  85.4464440  87.1986060  28.1968100
  84.5724280  87.5321170  27.9941030  85.3375190  86.7259240  29.0219970
  86.3536420  89.4056930  29.5809820  86.0249780  88.5908690  29.2011550
  87.3018720  89.3626740  29.4575510  83.1939260  88.1155900  27.1361010
  82.4111050  88.5901400  27.4157770  82.9002190  87.2110730  27.0274190
  87.7460330  88.8179000  25.1810100  88.1868420  88.7624100  24.3331700
  87.4767920  89.7337010  25.2520280  89.6098900  88.4494240  23.1918920
  89.5487300  87.5055460  23.0449940  90.3890930  88.5574330  23.7372380
  74.5379670  88.4203380  19.6574730  75.2959030  88.5332260  19.0838760
  74.0756840  89.2572580  19.6118160  81.0793480  90.5342650  22.6477040
  80.2667990  90.1599540  22.3072920  81.5835120  89.7787730  22.9498230
  85.5818460  87.1985100  23.8860110  86.1847830  87.7705310  24.3608630
  84.8411450  87.7624540  23.6634010  88.7253060  87.6006660  19.1600390
  88.9203690  88.4990110  19.4267820  87.9382930  87.3693740  19.6533340
  76.9104820  88.9467430  18.1976700  77.4397580  88.1597230  18.0684650
  77.5433140  89.6258620  18.4312230  79.1042660  88.6842570  21.2522090
  78.4745400  87.9829880  21.4192220  78.5647800  89.4446700  21.0355250
  79.2298220  87.9626550  33.6874580  78.9482490  88.4660150  32.9235400
  79.6117920  87.1648300  33.3216710  85.8313680  87.3780130  34.2655050
  85.7179130  87.6974740  35.1606570  86.6483420  87.7792640  33.9692330
  84.7371830  95.3972600   4.6289790  84.6565880  94.4827210   4.3581500
  84.3236250  95.8939670   3.9229500  73.2580660  95.0478970   7.0556910
  73.8296770  94.2801170   7.0560550  73.2582200  95.3467730   6.1463520
  74.5005530  90.4563330   8.8425840  74.3208370  89.5589080   9.1228600
  74.0985610  91.0035200   9.5172790  83.3404030  92.6579190   6.7438150
  83.7168850  91.7851070   6.6311820  83.2423540  92.9937890   5.8528590
  77.4709040  91.0304820   2.2055590  77.5775790  91.9308550   2.5124350
  76.5601400  90.9822790   1.9150240  87.1228150  90.1529630   3.6766490
  87.9437770  89.6626200   3.7191970  87.1562230  90.7427290   4.4298330
  75.1192200  92.9523830   7.4508180  75.8002310  93.2162200   8.0695580
  74.8040250  92.1124700   7.7846190  79.3116770  93.9991190   6.5380770
  79.8194990  94.4972160   7.1785790  79.8430010  93.2226390   6.3620130
  91.4127700  92.1696380  10.2410120  90.7079870  92.5578090   9.7225230
  91.6785620  92.8646670  10.8431050  77.5952870  88.6389750  10.8044190
  77.5971310  89.1562140   9.9990090  76.7657180  88.1619930  10.7814120
  87.3589630  92.0930010   6.4494030  86.6545200  92.3814900   7.0297140
  87.7201790  92.9030120   6.0893590  77.2768200  90.3499710   8.8114640
  77.6185010  91.1941760   8.5168510  76.3384010  90.4983450   8.9279980
  90.4276550  91.5384800   6.8403240  89.4801460  91.5723780   6.9718670
  90.7526540  92.3523750   7.2252600  80.9596090  87.8381980   5.1359230
  81.2671070  87.2828870   4.4194730  80.0296790  87.9726440   4.9532220
  83.3476850  95.9030810   1.8719350  82.4206130  95.8368190   2.1007820
  83.5001670  96.8410940   1.7574590  86.8200700  93.6435650   9.7920410
  86.4071880  94.4689360  10.0460400  86.0876650  93.0580690   9.5996770
  78.9533490  96.4295550   4.6539080  78.5490490  95.7172800   4.1584980
  79.0396610  96.0848790   5.5427120  77.6662110  93.2038760   8.4338120
  78.2176700  93.3134100   7.6591370  78.1805620  93.5776360   9.1493350
  75.6538120  95.3240530   2.1545730  75.5335720  96.0502620   1.5427000
  75.3439010  94.5543440   1.6773640  90.3457270  92.6952230  13.6742530
  89.7301540  93.2031900  13.1457990  90.0253690  91.7950560  13.6168470
  78.1201780  88.6675600   5.5369400  77.6769930  89.4485140   5.2053920
  78.6786770  88.9905490   6.2440340  82.4071590  91.5344120  11.1404720
  81.9450960  91.7427140  11.9524660  82.0049700  90.7203470  10.8375390
  87.4076100  92.7553070  12.2701380  86.5569690  92.4558820  12.5910450
  87.2477890  92.9995080  11.3585200  84.5025810  94.2554820  14.3700170
  84.8279220  93.4218570  14.0302400  85.2906140  94.7783340  14.5178500
  80.1577680  89.2122930   7.3959000  80.4550010  90.1185760   7.3151020
  80.7063240  88.7241710   6.7818570  77.9116000  93.7909170   3.2650650
  77.6856920  93.5746340   4.1697270  77.1308530  94.2237630   2.9196620
  80.3515210  94.6894750  13.9310920  80.2558810  93.7489480  13.7811320
  81.1947190  94.9109820  13.5358990  83.7478630  92.4336080   3.8944580
  84.1408200  92.7508280   3.0813270  84.1095480  91.5547960   4.0089100
  75.4825750  91.1008420  12.0844700  75.0889140  91.9483630  12.2917480
  74.7944150  90.4634790  12.2753340  82.0570800  91.1843390  15.1541440
  81.3669120  90.9915590  15.7887530  82.8003100  91.4678030  15.6865740
  72.7842800  89.0236880   6.1174780  72.4955850  89.5939740   6.8299760
  73.5288560  88.5441330   6.4806010  84.3333770  95.0241830   7.9895360
  83.6014890  95.5328640   8.3385460  83.9358110  94.2071810   7.6884140
  80.7711160  91.6996030   6.3947850  80.7747220  91.2585980   5.5452390
  81.6662280  92.0213360   6.5019670  76.6213540  91.5822520   5.3542060
  76.2813590  92.0597750   6.1109110  75.8590860  91.1287640   4.9943160
  84.7959680  90.4775510   7.4018300  84.8132420  90.9284160   8.2460150
  84.5475260  89.5781150   7.6151740  88.2230430  87.8907690  13.2404680
  88.5476200  87.1597350  13.7662660  88.2586940  87.5721330  12.3385670
  81.0719130  95.7597810   8.1413260  81.4389260  95.2856380   8.8874600
  80.8824190  96.6339380   8.4821600  73.9359620  90.5041500   4.2706730
  73.6506540  90.1397170   5.1085350  73.8738480  89.7721960   3.6569870
  78.8618500  94.8006450  10.4597470  78.5575570  95.6798430  10.6847830
  79.8164960  94.8606240  10.4954910  74.9182230  95.6409190  11.6068830
  74.5597170  96.3063040  12.1942170  74.6236790  94.8092740  11.9781450
  78.1195350  96.0993430  14.4908380  77.8195490  96.2450610  13.5936200
  78.8906590  95.5398720  14.3981770  76.4936870  87.3711310   2.8234230
  76.3651500  87.3629210   3.7719150  75.6698890  87.7094400   2.4725240
  73.4930800  89.1302430  12.2840930  72.7789320  89.3299350  12.8893540
  73.9125840  88.3542000  12.6555730  84.9869580  91.6224740  10.0342380
  85.3550400  90.8019950  10.3621950  84.1267780  91.6826630  10.4498030
  80.3215640  92.8567630   2.2587820  79.6131790  93.3253970   2.7001430
  80.6060120  92.1989640   2.8933010  81.9471570  94.2764330  10.2580350
  82.4456820  94.7510150  10.9232200  82.0894520  93.3527850  10.4650380
  84.3531070  89.5818290   3.6983610  84.2298850  89.6004420   2.7493120
  85.3015630  89.6297230   3.8182010  89.1538430  90.4932290  11.1008740
  88.6512030  91.2337690  11.4402550  89.9695090  90.8816290  10.7845530
  87.4460440  95.7365470   4.5470100  86.5050580  95.7515700   4.7217790
  87.7604510  94.9501430   4.9930400  73.6459640  96.6725060  14.0263120
  74.1498660  96.0932340  14.5979350  72.9067060  96.9565290  14.5639490
  75.6782720  94.8154650  14.9213190  75.7188060  94.5168520  15.8298420
  76.5328220  95.2162260  14.7620710  77.6188530  93.3946750  12.8887680
  77.0884990  92.9037700  12.2611020  78.2876600  93.8230950  12.3545610
  86.9888760  95.2012370  14.6568020  87.5709530  94.4464690  14.5688500
  87.1650530  95.7319810  13.8799500  78.1060830  90.3609120  12.9684970
  78.0117700  89.7429870  12.2435840  77.5258220  91.0875410  12.7414880
  80.8722270  88.9182360  10.0012360  80.4239570  88.9406620   9.1557910
  80.2387470  88.5201380  10.5982660  83.6145720  95.5452870  12.0062640
  83.7341930  94.9494010  12.7457480  84.4739720  95.5822560  11.5863940
  85.9533620  96.0990060  10.5825150  85.4268840  96.6232680   9.9790290
  86.2964960  96.7317450  11.2134880  80.3814490  92.0874220  13.2638460
  80.9714180  91.7790070  13.9516280  79.5634730  91.6153970  13.4198360
  85.2007920  91.7040030  13.4971480  84.5123440  91.0421570  13.4321470
  85.9213940  91.2578300  13.9419940  73.7093380  96.0606320   4.3973310
  73.0542220  95.7917960   3.7533010  74.5471330  95.9510800   3.9475290
  90.1573550  95.7671750   2.3167600  89.7817150  94.9999680   1.8848890
  89.4276670  96.1494450   2.8042530  74.7469310  96.4458890   8.9376650
  75.1142350  96.3586290   9.8172670  74.1780130  95.6825440   8.8383510
  89.5473170  94.9143270  11.9507120  89.3159260  94.6856020  11.0505070
  89.8077720  95.8342820  11.9052010  74.2985310  93.3567980  12.8435070
  73.4041360  93.3234740  13.1828780  74.8382860  93.5554770  13.6086320
  87.9861240  90.1399700  14.7286820  88.8631420  90.1483100  15.1120820
  87.9982080  89.4030540  14.1179170  89.4324510  93.9929240   5.6174840
  89.9561990  93.4991890   4.9865010  90.0183930  94.1279600   6.3622410
  89.6114230  94.0769110   9.1394390  88.6616940  94.0432650   9.2539380
  89.7927240  94.9869220   8.9044160  74.8025020  87.6316310   7.1918290
  75.4501210  87.0813690   6.7513450  75.2226860  87.8859460   8.0134100
  90.3511640  91.8863540   4.0904930  90.2410920  91.7319580   5.0287200
  91.1119230  91.3584480   3.8480340  88.6977360  87.8257670  10.5487930
  89.3349580  88.4391810  10.9147120  88.8452250  87.8618330   9.6037160
  74.5557020  87.7871980   9.9343610  74.2071840  88.2435800  10.7001790
  74.2244720  86.8929110  10.0166040  82.0681840  88.9783860  13.4563030
  82.0070730  89.5705690  14.2058440  83.0082220  88.8709820  13.3113290
  84.7056400  88.6353920  13.0955320  85.3196810  88.9533210  12.4336400
  85.2505960  88.1502510  13.7151180  75.2277660  87.3148180  13.2094380
  75.7760650  87.1336230  12.4460490  75.2932970  86.5242290  13.7450690
  85.4464440  87.1986060   9.4224610  84.5724280  87.5321170   9.2197540
  85.3375190  86.7259240  10.2476480  86.3536420  89.4056930  10.8066330
  86.0249780  88.5908690  10.4268060  87.3018720  89.3626740  10.6832020
  83.1939260  88.1155900   8.3617520  82.4111050  88.5901400   8.6414280
  82.9002190  87.2110730   8.2530700  87.7460330  88.8179000   6.4066610
  88.1868420  88.7624100   5.5588210  87.4767920  89.7337010   6.4776790
  89.6098900  88.4494240   4.4175430  89.5487300  87.5055460   4.2706450
  90.3890930  88.5574330   4.9628890  81.0793480  90.5342650   3.8733550
  80.2667990  90.1599540   3.5329430  81.5835120  89.7787730   4.1754740
  85.5818460  87.1985100   5.1116620  86.1847830  87.7705310   5.5865140
  84.8411450  87.7624540   4.8890520  79.1042660  88.6842570   2.4778600
  78.4745400  87.9829880   2.6448730  78.5647800  89.4446700   2.2611760
  79.2298220  87.9626550  14.9131090  78.9482490  88.4660150  14.1491910
  79.6117920  87.1648300  14.5473220  85.8313680  87.3780130  15.4911560
  85.7179130  87.6974740  16.3863080  86.6483420  87.7792640  15.1948840
  84.7371830  76.6229110  98.5007240  84.6565880  75.7083720  98.2298950
  84.3236250  77.1196180  97.7946950  82.8689870  78.4008130 100.3816510
  82.0931970  77.9208570 100.6715080  83.5202800  77.7213780 100.2072670
  76.8855700  78.7127940 101.2592270  76.0540580  78.4576650 101.6588780
  77.4936680  78.7838710 101.9950190  86.8897300  82.8068320  99.1615640
  86.4278830  82.0355560  99.4902810  87.7022850  82.8334390  99.6668090
  76.8656960  82.7468030 101.4550290  77.1685000  81.8565770 101.2760510
  77.6100550  83.3038250 101.2272540  75.2947650  73.6729830  95.0434660
  74.4064350  74.0145800  94.9414540  75.5788840  73.4730150  94.1515490
  73.2580660  76.2735480 100.9274360  73.8296770  75.5057680 100.9278000
  73.2582200  76.5724240 100.0180970  83.1160610  85.0926330  98.7819630
  82.4972050  85.5483830  98.2114070  83.9712390  85.2477790  98.3809330
  82.3098860  81.0765320 100.3886670  82.2407140  80.1355260 100.2275800
  83.0718720  81.1666730 100.9609240  74.5005530  71.6819840 102.7143290
  74.3208370  70.7845590 102.9946050  74.0985610  72.2291710 103.3890240
  83.3404030  73.8835700 100.6155600  83.7168850  73.0107580 100.5029270
  83.2423540  74.2194400  99.7246040  77.4709040  72.2561330  96.0773040
  77.5775790  73.1565060  96.3841800  76.5601400  72.2079300  95.7867690
  87.1228150  71.3786140  97.5483940  87.9437770  70.8882710  97.5909420
  87.1562230  71.9683800  98.3015780  75.1192200  74.1780340 101.3225630
  75.8002310  74.4418710 101.9413030  74.8040250  73.3381210 101.6563640
  79.3116770  75.2247700 100.4098220  79.8194990  75.7228670 101.0503240
  79.8430010  74.4482900 100.2337580  91.4127700  73.3952890 104.1127570
  90.7079870  73.7834600 103.5942680  91.6785620  74.0903180 104.7148500
  77.5952870  69.8646260 104.6761640  77.5971310  70.3818650 103.8707540
  76.7657180  69.3876440 104.6531570  83.9823960  79.9765570  96.1751540
  83.3641230  80.4415020  95.6114260  84.4947210  80.6693050  96.5921050
  78.8455720  79.5041440 102.8535140  78.5125100  80.1310360 103.4956210
  79.0222400  80.0303320 102.0736810  87.3589630  73.3186520 100.3211480
  86.6545200  73.6071410 100.9014590  87.7201790  74.1286630  99.9611040
  77.2768200  71.5756220 102.6832090  77.6185010  72.4198270 102.3885960
  76.3384010  71.7239960 102.7997430  78.0574820  81.4722240 104.6684320
  78.6748820  82.1473320 104.3868770  77.1967940  81.8810220 104.5771820
  73.3507160  80.6622100  93.5491170  72.9735140  81.1509200  92.8176070
  73.6080230  81.3347380  94.1797700  88.9752410  82.9361650 102.5838960
  88.2915930  83.6060760 102.5755630  89.5146700  83.1342300 101.8183820
  90.4276550  72.7641310 100.7120690  89.4801460  72.7980290 100.8436120
  90.7526540  73.5780260 101.0970050  80.9596090  69.0638490  99.0076680
  81.2671070  68.5085380  98.2912180  80.0296790  69.1982950  98.8249670
  86.5111150  84.7805780 101.2984140  86.5238310  84.3768070 100.4306400
  85.9586370  85.5553070 101.1945570  87.8056570  81.5022000  96.3874310
  87.6952900  80.5596330  96.5123730  87.8024820  81.8637640  97.2737070
  85.9096590  79.6835620 102.6266750  86.3265380  79.4695730 101.7920210
  86.6336410  79.9408410 103.1975370  83.3476850  77.1287320  95.7436800
  82.4206130  77.0624700  95.9725270  83.5001670  78.0667450  95.6292040
  83.3345930  73.4004320  92.7403960  82.3949600  73.5618280  92.8256420
  83.6529190  74.1190000  92.1939950  89.8558690  78.0822840 102.7182990
  89.0277320  78.1515930 102.2433120  90.4509170  78.6677150 102.2498820
  87.3774140  78.6907620  96.2472050  86.7586560  78.3527170  95.5998350
  87.3598590  78.0467380  96.9551240  86.8200700  74.8692160 103.6637860
  86.4071880  75.6945870 103.9177850  86.0876650  74.2837200 103.4714220
  78.9533490  77.6552060  98.5256530  78.5490490  76.9429310  98.0302430
  79.0396610  77.3105300  99.4144570  79.4215190  81.3419620 100.6895740
  79.1243480  80.7365090 100.0103520  80.3715010  81.3796930 100.5785100
  77.6662110  74.4295270 102.3055570  78.2176700  74.5390610 101.5308820
  78.1805620  74.8032870 103.0210800  87.5100800  84.9151490 104.3518840
  87.0331360  85.7223680 104.1591450  86.8262590  84.2629820 104.5045050
  85.5538840  77.9294430  93.2544800  85.9932120  77.0916860  93.1082620
  86.2667260  78.5623830  93.3408940  83.6634220  82.8690500  97.2226040
  84.1030130  83.6114830  96.8081430  83.6021110  83.1117070  98.1465000
  89.1355980  69.1837240  91.5685840  88.8228640  69.2764070  92.4684910
  89.8968450  69.7618270  91.5183270  75.6538120  76.5497040  96.0263180
  75.5335720  77.2759130  95.4144450  75.3439010  75.7799950  95.5491090
  73.2923490  79.7212180 101.8331820  73.3703910  79.8560950 100.8887540
  73.9065170  79.0128070 102.0259940  74.5371120  81.4212370  98.2438000
  74.1299200  81.5626960  97.3891600  75.4284130  81.1372530  98.0409210
  86.3304400  85.8559620  94.5789050  86.1705540  85.5662560  95.4770880
  86.1651110  85.0799750  94.0434280  78.8092780  85.6358150  96.3560670
  78.6335260  84.7193690  96.1428470  77.9548520  85.9945440  96.5958470
  86.0330530  83.3647180  93.1387050  85.3395690  83.3624470  92.4789330
  86.7753390  82.9406500  92.7081220  85.5980460  84.9909890  97.2135540
  86.0537410  84.2099270  97.5274160  85.9372980  85.7016710  97.7576720
  78.1201780  69.8932110  99.4086850  77.6769930  70.6741650  99.0771370
  78.6786770  70.2162000 100.1157790  81.2360600  69.5142810  94.2892680
  80.6114780  69.5102680  95.0145990  81.1490720  68.6473770  93.8928650
  80.1577680  70.4379440 101.2676450  80.4550010  71.3442270 101.1868470
  80.7063240  69.9498220 100.6536020  77.9116000  75.0165680  97.1368100
  77.6856920  74.8002850  98.0414720  77.1308530  75.4494140  96.7914070
  85.1413760  75.0229050  95.7358750  84.5422650  75.7464850  95.5522370
  85.6893370  74.9605830  94.9535200  83.7478630  73.6592590  97.7662030
  84.1408200  73.9764790  96.9530720  84.1095480  72.7804470  97.8806550
  72.7842800  70.2493390  99.9892230  72.4955850  70.8196250 100.7017210
  73.5288560  69.7697840 100.3523460  72.9713030  74.1913510  91.1994950
  72.8887700  75.1344270  91.3409940  72.6196090  74.0488420  90.3207300
  84.3333770  76.2498340 101.8612810  83.6014890  76.7585150 102.2102910
  83.9358110  75.4328320 101.5601590  80.7711160  72.9252540 100.2665300
  80.7747220  72.4842490  99.4169840  81.6662280  73.2469870 100.3737120
  76.6213540  72.8079030  99.2259510  76.2813590  73.2854260  99.9826560
  75.8590860  72.3544150  98.8660610  80.8331310  73.9264620  93.2572060
  80.9544130  73.8851100  94.2057880  80.4479820  74.7888770  93.1018790
  84.7959680  71.7032020 101.2735750  84.8132420  72.1540670 102.1177600
  84.5475260  70.8037660 101.4869190  79.8452810  76.2365760  92.6555360
  79.2769710  75.7884010  92.0291270  80.5541810  76.5958540  92.1220510
  81.0719130  76.9854320 102.0130710  81.4389260  76.5112890 102.7592050
  80.8824190  77.8595890 102.3539050  73.9359620  71.7298010  98.1424180
  73.6506540  71.3653680  98.9802800  73.8738480  70.9978470  97.5287320
  78.8618500  76.0262960 104.3314920  78.5575570  76.9054940 104.5565280
  79.8164960  76.0862750 104.3672360  77.3900290  80.2323950  94.9281770
  76.6162550  79.6921570  94.7680490  78.1194920  79.7130560  94.5899530
  88.1488270  79.2289310 100.7208160  88.8687390  79.7244600 100.3304270
  87.9470090  78.5507200 100.0762030  83.6098210  70.6227270  94.8637550
  82.7962820  70.1240440  94.7882860  83.4160160  71.4625520  94.4473900
  86.3246600  74.9946920  93.1599710  87.2126220  75.3064150  92.9851050
  86.2951690  74.1219170  92.7680290  77.4337690  79.9004330  98.5660580
  77.9516360  79.0972590  98.5117470  76.9821710  79.8383470  99.4077410
  82.3207190  81.1670610  93.8387880  82.6622890  81.9112840  93.3431200
  81.4919900  81.4801730  94.2012710  88.5960870  76.3058760  92.6279570
  88.5124590  76.7372980  91.7776010  89.3155060  76.7657110  93.0606390
  89.6248120  83.1601020  95.3561700  88.9824280  82.5056640  95.6305420
  89.2378780  83.5656110  94.5802370  85.2034600  80.4886450  99.2033390
  85.5558420  79.8914580  98.5434760  84.3196930  80.1630680  99.3741640
  81.2897880  81.2484140  96.6103800  81.9769010  81.7953350  96.9911390
  80.5030300  81.7924870  96.6453410  73.4290280  76.8656960  92.1020880
  74.2985130  77.1481760  92.3856800  72.9380600  77.6792830  91.9869690
  80.5925090  78.2530170  96.2229160  81.0487870  79.0635420  96.4489350
  80.2413300  77.9353310  97.0547650  82.8957700  83.7636510 103.4521460
  83.5399920  83.9695890 104.1294880  83.2587140  83.0024910 102.9992310
  76.4936870  68.5967820  96.6951680  76.3651500  68.5885720  97.6436600
  75.6698890  68.9350910  96.3442690  84.1689780  81.7668860 102.1698910
  84.8112010  81.0662020 102.2831080  84.6939130  82.5467300 101.9895800
  88.0145500  82.0517480  91.8938050  87.7883080  81.3347920  92.4862690
  87.6241700  81.8029920  91.0559800  73.7961530  86.0784340  92.6682510
  74.1559170  86.6773680  92.0139780  73.6553870  86.6244230  93.4417540
  87.5961750  79.9689420  93.5552210  87.3083450  80.4302110  94.3430090
  88.3913920  79.5087190  93.8236430  79.8130150  83.4615540  93.4856180
  79.8040250  84.1945230  92.8700690  78.8928510  83.2147120  93.5783140
  75.4136790  78.6830430  94.2302940  74.8064740  79.4229330  94.2398240
  75.8886140  78.7729790  93.4041140  84.9869580  72.8481250 103.9059830
  85.3550400  72.0276460 104.2339400  84.1267780  72.9083140 104.3215480
  88.3531610  71.8038190  94.7147390  87.7244770  71.9083860  94.0005620
  87.8583530  72.0234970  95.5041270  82.7989750  83.5243780  92.1481370
  82.9001730  83.3207770  91.2183350  81.8991490  83.2702060  92.3529150
  80.3215640  74.0824140  96.1305270  79.6131790  74.5510480  96.5718880
  80.6060120  73.4246150  96.7650460  81.9471570  75.5020840 104.1297800
  82.4456820  75.9766660 104.7949650  82.0894520  74.5784360 104.3367830
  84.3531070  70.8074800  97.5701060  84.2298850  70.8260930  96.6210570
  85.3015630  70.8553740  97.6899460  81.4407860  86.0430100  96.8429040
  81.6949360  86.0051490  95.9208410  80.4920340  85.9163430  96.8357290
  78.5250660  72.3909220  93.5055980  79.3741190  72.8279370  93.4396170
  78.1581930  72.7029480  94.3328040  87.4460440  76.9621980  98.4187550
  86.5050580  76.9772210  98.5935240  87.7604510  76.1757940  98.8647850
  77.4242080  78.6441580  91.9791510  78.1905350  78.5322940  92.5416940
  77.5016770  77.9479550  91.3268280  76.1188840  76.0766650  92.6624400
  76.1992430  75.1294160  92.7741800  77.0108590  76.4073530  92.7685060
  89.4486020  84.1330830 100.0941810  89.5733440  84.9562000 100.5665620
  90.3151580  83.9221560  99.7465960  76.9203550  86.2262040  99.7658940
  77.6566030  85.6777500 100.0367510  77.3044470  87.0918050  99.6264930
  73.8049030  82.2935610  95.6400450  72.8788810  82.5356750  95.6305860
  74.2705460  83.1209870  95.5185200  80.0305860  85.3992350  91.5884510
  80.8234470  85.6881180  91.1366300  79.5110210  84.9684520  90.9096990
  89.0836030  84.6262480  93.0121250  88.7977540  84.2127620  92.1975430
  88.8855580  85.5550190  92.8921770  80.5483260  80.6195760  91.4526860
  80.4433900  80.0048110  92.1788240  80.3807480  80.0961650  90.6689870
  83.7885990  79.6815790  92.0568850  83.2396090  80.1285090  92.7011590
  84.4105250  79.1765040  92.5806520  79.4561110  78.6406710  93.9534150
  79.8777530  78.4746580  94.7965540  79.5811950  77.8306940  93.4589290
  81.9688750  77.6644320  91.2011250  82.4894410  76.9493340  90.8352400
  82.6157150  78.3030190  91.5011760  80.8722270  70.1438870 103.8729810
  80.4239570  70.1663130 103.0275360  80.2387470  69.7457890 104.4700110
  81.2781820  79.0393200 104.4942250  81.6969930  79.8825930 104.3218490
  80.3590450  79.1765240 104.2649030  78.3520010  74.7139940  90.8992310
  78.1509070  73.8507300  91.2605650  78.1812060  74.6273300  89.9613910
  85.8308320  69.5248170  93.4279190  86.1110610  68.6816070  93.7838610
  85.0574050  69.7571280  93.9417940  77.1502810  71.8140560  90.8870190
  77.4528710  71.8207990  89.9789340  77.8897400  71.4638420  91.3837850
  80.3687740  70.7575180  91.8726390  80.0209740  70.0799170  91.2928840
  80.5700510  70.2964690  92.6869780  82.5336780  85.7455930  93.4912990
  83.4287570  86.0840900  93.5131750  82.5654410  85.0235340  92.8637270
  76.1732940  81.1182980  91.7199990  76.6107810  81.6612650  92.3757570
  76.6580670  80.2929930  91.7296330  73.3878740  83.9072010  99.1720250
  73.7181750  83.0393070  98.9398890  73.8169740  84.1130530 100.0025210
  77.9840660  82.2381020  96.8322220  77.6836200  82.1145990  97.7326130
  77.8778150  81.3789610  96.4237950  73.8768950  84.7742600 101.9101880
  73.4399940  84.9543400 102.7426030  74.4446630  85.5317220 101.7683600
  90.7532580  82.0177420  91.5348900  89.9225540  82.0854070  92.0056130
  90.9304410  82.9081540  91.2315760  90.2089040  78.7624900  94.0383100
  90.9707950  79.3321550  94.1442790  90.2243410  78.1952100  94.8091410
  73.7093380  77.2862830  98.2690760  73.0542220  77.0174470  97.6250460
  74.5471330  77.1767310  97.8192740  91.2149010  79.6175000  98.8825030
  91.5857840  78.8342320  98.4761000  91.8550940  80.3064100  98.7042330
  88.1982770  81.0011580 104.2955350  87.3842610  81.4308740 104.5581140
  88.6056970  81.6129990 103.6824400  90.2608210  79.0559270  91.1955620
  90.5357050  79.9638150  91.0674840  90.0718950  78.9921800  92.1317610
  86.6583820  72.0804120  92.4909250  87.0768700  71.8935100  91.6505910
  86.3519880  71.2283170  92.8012180  90.1573550  76.9928260  96.1885050
  89.7817150  76.2256190  95.7566340  89.4276670  77.3750960  96.6759980
  74.7469310  77.6715400 102.8094100  75.1142350  77.5842800 103.6890120
  74.1780130  76.9081950 102.7100960  72.9231460  74.4961760  94.2116090
  72.0195540  74.7591960  94.0367750  73.4072080  74.7672930  93.4316050
  89.4324510  75.2185750  99.4892290  89.9561990  74.7248400  98.8582460
  90.0183930  75.3536110 100.2339860  89.6114230  75.3025620 103.0111840
  88.6616940  75.2689160 103.1256830  89.7927240  76.2125730 102.7761610
  75.4658670  73.5527300  92.1210470  76.1750370  73.1310520  91.6357750
  74.7498610  73.6202530  91.4893820  75.1132830  69.6066630  91.1613120
  75.8360960  70.1475570  91.4794340  75.3857350  69.3330050  90.2854660
  88.9224480  74.4759100  95.4284700  89.4183600  74.2429970  96.2133580
  88.7240550  73.6370940  95.0122340  74.8025020  68.8572820 101.0635740
  75.4501210  68.3070200 100.6230900  75.2226860  69.1115970 101.8851550
  90.3511640  73.1120050  97.9622380  90.2410920  72.9576090  98.9004650
  91.1119230  72.5840990  97.7197790  88.6977360  69.0514180 104.4205380
  89.3349580  69.6648320 104.7864570  88.8452250  69.0874840 103.4754610
  91.2401910  70.9427970  91.2028520  92.1651220  70.8109150  90.9946810
  91.2177700  71.0220790  92.1564970  91.3140400  71.7138630  93.8285230
  90.5191900  71.6483750  94.3578140  91.5183680  72.6489270  93.8170580
  88.2558820  85.7530180  97.8223620  88.8517890  85.4314750  97.1458040
  88.5136970  85.2802000  98.6136890  74.5557020  69.0128490 103.8061060
  74.2071840  69.4692310 104.5719240  74.2244720  68.1185620 103.8883490
  79.8627420  83.7407680 103.5723970  79.6218780  84.0082240 102.6854490
  80.8030060  83.9113410 103.6274830  91.1231580  85.7602060 104.3734610
  90.6289860  86.1570930 103.6561740  90.5144870  85.1351270 104.7671890
  85.4464440  68.4242570 103.2942060  84.5724280  68.7577680 103.0914990
  85.3375190  67.9515750 104.1193930  86.3536420  70.6313440 104.6783780
  86.0249780  69.8165200 104.2985510  87.3018720  70.5883250 104.5549470
  88.8071030  86.4025480 101.6521350  88.3474000  87.1541290 101.2779370
  88.1783490  85.6831950 101.5936150  75.6321650  82.4968720 104.0420070
  74.9055710  81.8774010 103.9746020  75.6930800  82.8909330 103.1718150
  79.2366750  84.7113720 100.8269480  79.7531770  84.1001080 100.3017740
  79.8864130  85.2142500 101.3180490  81.9762250  85.6022210 101.6538460
  82.2640060  85.3476510 100.7771470  82.4885470  85.0499570 102.2444030
  83.1939260  69.3412410 102.2334970  82.4111050  69.8157910 102.5131730
  82.9002190  68.4367240 102.1248150  87.7460330  70.0435510 100.2784060
  88.1868420  69.9880610  99.4305660  87.4767920  70.9593520 100.3494240
  89.6098900  69.6750750  98.2892880  89.5487300  68.7311970  98.1423900
  90.3890930  69.7830840  98.8346340  73.9151650  85.8143110  97.2516830
  73.7473690  85.1813790  97.9498720  73.0486160  86.0202510  96.9011020
  74.5379670  69.6459890  94.7548690  75.2959030  69.7588770  94.1812720
  74.0756840  70.4829090  94.7092120  81.0793480  71.7599160  97.7451000
  80.2667990  71.3856050  97.4046880  81.5835120  71.0044240  98.0472190
  85.5818460  68.4241610  98.9834070  86.1847830  68.9961820  99.4582590
  84.8411450  68.9881050  98.7607970  88.7253060  68.8263170  94.2574350
  88.9203690  69.7246620  94.5241780  87.9382930  68.5950250  94.7507300
  75.5214350  84.5076340  94.6966970  74.9961970  84.8884370  93.9928930
  75.4458930  85.1327110  95.4176680  76.9104820  70.1723940  93.2950660
  77.4397580  69.3853740  93.1658610  77.5433140  70.8515130  93.5286190
  79.1042660  69.9099080  96.3496050  78.4745400  69.2086390  96.5166180
  78.5647800  70.6703210  96.1329210  90.2779670  86.0663880  96.0180910
  90.4531860  85.3801620  95.3741830  89.5801240  86.5910930  95.6257580
  78.1207320  86.4558720  93.5716220  78.8526140  86.1718000  93.0240110
  78.3800990  86.2172000  94.4615600  77.2822110  82.5723450  93.5762550
  76.6530990  83.0408550  94.1248380  77.3969940  81.7272670  94.0108740
  84.7371830  76.6229110  79.7263750  84.6565880  75.7083720  79.4555460
  84.3236250  77.1196180  79.0203460  82.8689870  78.4008130  81.6073020
  82.0931970  77.9208570  81.8971590  83.5202800  77.7213780  81.4329180
  76.8855700  78.7127940  82.4848780  76.0540580  78.4576650  82.8845290
  77.4936680  78.7838710  83.2206700  86.8897300  82.8068320  80.3872150
  86.4278830  82.0355560  80.7159320  87.7022850  82.8334390  80.8924600
  76.8656960  82.7468030  82.6806800  77.1685000  81.8565770  82.5017020
  77.6100550  83.3038250  82.4529050  73.2580660  76.2735480  82.1530870
  73.8296770  75.5057680  82.1534510  73.2582200  76.5724240  81.2437480
  83.1160610  85.0926330  80.0076140  82.4972050  85.5483830  79.4370580
  83.9712390  85.2477790  79.6065840  82.3098860  81.0765320  81.6143180
  82.2407140  80.1355260  81.4532310  83.0718720  81.1666730  82.1865750
  74.5005530  71.6819840  83.9399800  74.3208370  70.7845590  84.2202560
  74.0985610  72.2291710  84.6146750  83.3404030  73.8835700  81.8412110
  83.7168850  73.0107580  81.7285780  83.2423540  74.2194400  80.9502550
  77.4709040  72.2561330  77.3029550  77.5775790  73.1565060  77.6098310
  76.5601400  72.2079300  77.0124200  87.1228150  71.3786140  78.7740450
  87.9437770  70.8882710  78.8165930  87.1562230  71.9683800  79.5272290
  75.1192200  74.1780340  82.5482140  75.8002310  74.4418710  83.1669540
  74.8040250  73.3381210  82.8820150  79.3116770  75.2247700  81.6354730
  79.8194990  75.7228670  82.2759750  79.8430010  74.4482900  81.4594090
  91.4127700  73.3952890  85.3384080  90.7079870  73.7834600  84.8199190
  91.6785620  74.0903180  85.9405010  77.5952870  69.8646260  85.9018150
  77.5971310  70.3818650  85.0964050  76.7657180  69.3876440  85.8788080
  83.9823960  79.9765570  77.4008050  83.3641230  80.4415020  76.8370770
  84.4947210  80.6693050  77.8177560  78.8455720  79.5041440  84.0791650
  78.5125100  80.1310360  84.7212720  79.0222400  80.0303320  83.2993320
  87.3589630  73.3186520  81.5467990  86.6545200  73.6071410  82.1271100
  87.7201790  74.1286630  81.1867550  77.2768200  71.5756220  83.9088600
  77.6185010  72.4198270  83.6142470  76.3384010  71.7239960  84.0253940
  78.0574820  81.4722240  85.8940830  78.6748820  82.1473320  85.6125280
  77.1967940  81.8810220  85.8028330  73.3507160  80.6622100  74.7747680
  72.9735140  81.1509200  74.0432580  73.6080230  81.3347380  75.4054210
  88.9752410  82.9361650  83.8095470  88.2915930  83.6060760  83.8012140
  89.5146700  83.1342300  83.0440330  90.4276550  72.7641310  81.9377200
  89.4801460  72.7980290  82.0692630  90.7526540  73.5780260  82.3226560
  80.9596090  69.0638490  80.2333190  81.2671070  68.5085380  79.5168690
  80.0296790  69.1982950  80.0506180  86.5111150  84.7805780  82.5240650
  86.5238310  84.3768070  81.6562910  85.9586370  85.5553070  82.4202080
  87.8056570  81.5022000  77.6130820  87.6952900  80.5596330  77.7380240
  87.8024820  81.8637640  78.4993580  85.9096590  79.6835620  83.8523260
  86.3265380  79.4695730  83.0176720  86.6336410  79.9408410  84.4231880
  83.3476850  77.1287320  76.9693310  82.4206130  77.0624700  77.1981780
  83.5001670  78.0667450  76.8548550  83.3345930  73.4004320  73.9660470
  82.3949600  73.5618280  74.0512930  83.6529190  74.1190000  73.4196460
  89.8558690  78.0822840  83.9439500  89.0277320  78.1515930  83.4689630
  90.4509170  78.6677150  83.4755330  87.3774140  78.6907620  77.4728560
  86.7586560  78.3527170  76.8254860  87.3598590  78.0467380  78.1807750
  86.8200700  74.8692160  84.8894370  86.4071880  75.6945870  85.1434360
  86.0876650  74.2837200  84.6970730  78.9533490  77.6552060  79.7513040
  78.5490490  76.9429310  79.2558940  79.0396610  77.3105300  80.6401080
  79.4215190  81.3419620  81.9152250  79.1243480  80.7365090  81.2360030
  80.3715010  81.3796930  81.8041610  77.6662110  74.4295270  83.5312080
  78.2176700  74.5390610  82.7565330  78.1805620  74.8032870  84.2467310
  87.5100800  84.9151490  85.5775350  87.0331360  85.7223680  85.3847960
  86.8262590  84.2629820  85.7301560  78.5133620  81.0801310  88.5660050
  77.6162150  81.3041280  88.8133450  78.5386490  81.2036250  87.6171450
  85.5538840  77.9294430  74.4801310  85.9932120  77.0916860  74.3339130
  86.2667260  78.5623830  74.5665450  77.3404840  77.9514630  87.1417420
  77.2012610  78.8237430  87.5104820  76.4586200  77.6087440  86.9965360
  83.6634220  82.8690500  78.4482550  84.1030130  83.6114830  78.0337940
  83.6021110  83.1117070  79.3721510  79.1385190  83.8936330  89.3502570
  79.1100620  84.2979280  88.4831000  78.9750160  82.9646690  89.1874170
  89.1355980  69.1837240  72.7942350  88.8228640  69.2764070  73.6941420
  89.8968450  69.7618270  72.7439780  75.6538120  76.5497040  77.2519690
  75.5335720  77.2759130  76.6400960  75.3439010  75.7799950  76.7747600
  91.0900010  84.6763430  90.6466740  91.5659730  85.1546320  91.3255820
  91.7107170  84.6080920  89.9212240  73.2923490  79.7212180  83.0588330
  73.3703910  79.8560950  82.1144050  73.9065170  79.0128070  83.2516450
  74.5371120  81.4212370  79.4694510  74.1299200  81.5626960  78.6148110
  75.4284130  81.1372530  79.2665720  90.4933260  81.8676280  87.8066750
  90.6196320  81.6288160  86.8883930  90.5354640  81.0360820  88.2788830
  84.3550000  85.5704280  86.3761560  84.8694670  85.4812290  87.1783990
  83.5119080  85.9163980  86.6689470  86.3304400  85.8559620  75.8045560
  86.1705540  85.5662560  76.7027390  86.1651110  85.0799750  75.2690790
  78.8092780  85.6358150  77.5817180  78.6335260  84.7193690  77.3684980
  77.9548520  85.9945440  77.8214980  86.0330530  83.3647180  74.3643560
  85.3395690  83.3624470  73.7045840  86.7753390  82.9406500  73.9337730
  85.5980460  84.9909890  78.4392050  86.0537410  84.2099270  78.7530670
  85.9372980  85.7016710  78.9833230  90.3457270  73.9208740  88.7716490
  89.7301540  74.4288410  88.2431950  90.0253690  73.0207070  88.7142430
  73.3483010  80.7626350  85.5982790  73.5114050  80.2931710  84.7802160
  73.8135460  80.2549910  86.2631630  78.1201780  69.8932110  80.6343360
  77.6769930  70.6741650  80.3027880  78.6786770  70.2162000  81.3414300
  82.4071590  72.7600630  86.2378680  81.9450960  72.9683650  87.0498620
  82.0049700  71.9459980  85.9349350  87.4076100  73.9809580  87.3675340
  86.5569690  73.6815330  87.6884410  87.2477890  74.2251590  86.4559160
  84.5025810  75.4811330  89.4674130  84.8279220  74.6475080  89.1276360
  85.2906140  76.0039850  89.6152460  81.2360600  69.5142810  75.5149190
  80.6114780  69.5102680  76.2402500  81.1490720  68.6473770  75.1185160
  80.1577680  70.4379440  82.4932960  80.4550010  71.3442270  82.4124980
  80.7063240  69.9498220  81.8792530  77.9116000  75.0165680  78.3624610
  77.6856920  74.8002850  79.2671230  77.1308530  75.4494140  78.0170580
  85.1413760  75.0229050  76.9615260  84.5422650  75.7464850  76.7778880
  85.6893370  74.9605830  76.1791710  80.3515210  75.9151260  89.0284880
  80.2558810  74.9745990  88.8785280  81.1947190  76.1366330  88.6332950
  83.7478630  73.6592590  78.9918540  84.1408200  73.9764790  78.1787230
  84.1095480  72.7804470  79.1063060  75.4825750  72.3264930  87.1818660
  75.0889140  73.1740140  87.3891440  74.7944150  71.6891300  87.3727300
  82.0570800  72.4099900  90.2515400  81.3669120  72.2172100  90.8861490
  82.8003100  72.6934540  90.7839700  84.3333770  76.2498340  83.0869320
  83.6014890  76.7585150  83.4359420  83.9358110  75.4328320  82.7858100
  80.7711160  72.9252540  81.4921810  80.7747220  72.4842490  80.6426350
  81.6662280  73.2469870  81.5993630  76.6213540  72.8079030  80.4516020
  76.2813590  73.2854260  81.2083070  75.8590860  72.3544150  80.0917120
  80.8331310  73.9264620  74.4828570  80.9544130  73.8851100  75.4314390
  80.4479820  74.7888770  74.3275300  84.7959680  71.7032020  82.4992260
  84.8132420  72.1540670  83.3434110  84.5475260  70.8037660  82.7125700
  79.8452810  76.2365760  73.8811870  79.2769710  75.7884010  73.2547780
  80.5541810  76.5958540  73.3477020  88.2230430  69.1164200  88.3378640
  88.5476200  68.3853860  88.8636620  88.2586940  68.7977840  87.4359630
  74.9221990  80.1377780  87.7578600  74.5376780  79.4971450  88.3561560
  75.2334180  80.8413900  88.3273330  81.0719130  76.9854320  83.2387220
  81.4389260  76.5112890  83.9848560  80.8824190  77.8595890  83.5795560
  78.8618500  76.0262960  85.5571430  78.5575570  76.9054940  85.7821790
  79.8164960  76.0862750  85.5928870  77.3900290  80.2323950  76.1538280
  76.6162550  79.6921570  75.9937000  78.1194920  79.7130560  75.8156040
  88.1488270  79.2289310  81.9464670  88.8687390  79.7244600  81.5560780
  87.9470090  78.5507200  81.3018540  83.6098210  70.6227270  76.0894060
  82.7962820  70.1240440  76.0139370  83.4160160  71.4625520  75.6730410
  83.5307070  79.2998370  87.8333670  83.4644380  78.3794040  87.5791260
  82.9012210  79.3973810  88.5478310  86.3246600  74.9946920  74.3856220
  87.2126220  75.3064150  74.2107560  86.2951690  74.1219170  73.9936800
  77.4337690  79.9004330  79.7917090  77.9516360  79.0972590  79.7373980
  76.9821710  79.8383470  80.6333920  82.3207190  81.1670610  75.0644390
  82.6622890  81.9112840  74.5687710  81.4919900  81.4801730  75.4269220
  74.9182230  76.8665700  86.7042790  74.5597170  77.5319550  87.2916130
  74.6236790  76.0349250  87.0755410  78.1195350  77.3249940  89.5882340
  77.8195490  77.4707120  88.6910160  78.8906590  76.7655230  89.4955730
  83.4623800  82.1218940  87.5837470  83.4768340  81.1899900  87.3656380
  82.7548900  82.2078700  88.2227240  88.5960870  76.3058760  73.8536080
  88.5124590  76.7372980  73.0032520  89.3155060  76.7657110  74.2862900
  89.6735010  78.7626280  86.9306050  88.9483200  79.3555060  86.7335440
  90.2010470  78.7549820  86.1319420  89.6248120  83.1601020  76.5818210
  88.9824280  82.5056640  76.8561930  89.2378780  83.5656110  75.8058880
  85.2034600  80.4886450  80.4289900  85.5558420  79.8914580  79.7691270
  84.3196930  80.1630680  80.5998150  81.2897880  81.2484140  77.8360310
  81.9769010  81.7953350  78.2167900  80.5030300  81.7924870  77.8709920
  73.4290280  76.8656960  73.3277390  74.2985130  77.1481760  73.6113310
  72.9380600  77.6792830  73.2126200  80.5925090  78.2530170  77.4485670
  81.0487870  79.0635420  77.6745860  80.2413300  77.9353310  78.2804160
  82.8957700  83.7636510  84.6777970  83.5399920  83.9695890  85.3551390
  83.2587140  83.0024910  84.2248820  84.1689780  81.7668860  83.3955420
  84.8112010  81.0662020  83.5087590  84.6939130  82.5467300  83.2152310
  88.0145500  82.0517480  73.1194560  87.7883080  81.3347920  73.7119200
  87.6241700  81.8029920  72.2816310  85.9427400  82.5663760  86.5991480
  86.2783640  83.1530450  87.2769400  85.0227740  82.4356470  86.8289270
  73.7961530  86.0784340  73.8939020  74.1559170  86.6773680  73.2396290
  73.6553870  86.6244230  74.6674050  73.4930800  70.3558940  87.3814890
  72.7789320  70.5555860  87.9867500  73.9125840  69.5798510  87.7529690
  87.5961750  79.9689420  74.7808720  87.3083450  80.4302110  75.5686600
  88.3913920  79.5087190  75.0492940  73.7803390  84.3439200  88.3681420
  73.8894510  83.4033940  88.2276810  73.1283950  84.6093950  87.7195150
  81.7715980  82.6155090  89.7679540  81.4512850  81.8964330  90.3125230
  81.0974340  83.2910160  89.8415600  79.8130150  83.4615540  74.7112690
  79.8040250  84.1945230  74.0957200  78.8928510  83.2147120  74.8039650
  75.4136790  78.6830430  75.4559450  74.8064740  79.4229330  75.4654750
  75.8886140  78.7729790  74.6297650  84.9869580  72.8481250  85.1316340
  85.3550400  72.0276460  85.4595910  84.1267780  72.9083140  85.5471990
  88.3531610  71.8038190  75.9403900  87.7244770  71.9083860  75.2262130
  87.8583530  72.0234970  76.7297780  82.7989750  83.5243780  73.3737880
  82.9001730  83.3207770  72.4439860  81.8991490  83.2702060  73.5785660
  80.3215640  74.0824140  77.3561780  79.6131790  74.5510480  77.7975390
  80.6060120  73.4246150  77.9906970  81.9471570  75.5020840  85.3554310
  82.4456820  75.9766660  86.0206160  82.0894520  74.5784360  85.5624340
  84.3531070  70.8074800  78.7957570  84.2298850  70.8260930  77.8467080
  85.3015630  70.8553740  78.9155970  81.4407860  86.0430100  78.0685550
  81.6949360  86.0051490  77.1464920  80.4920340  85.9163430  78.0613800
  78.5250660  72.3909220  74.7312490  79.3741190  72.8279370  74.6652680
  78.1581930  72.7029480  75.5584550  89.1538430  71.7188800  86.1982700
  88.6512030  72.4594200  86.5376510  89.9695090  72.1072800  85.8819490
  87.4460440  76.9621980  79.6444060  86.5050580  76.9772210  79.8191750
  87.7604510  76.1757940  80.0904360  77.4242080  78.6441580  73.2048020
  78.1905350  78.5322940  73.7673450  77.5016770  77.9479550  72.5524790
  76.1188840  76.0766650  73.8880910  76.1992430  75.1294160  73.9998310
  77.0108590  76.4073530  73.9941570  89.4486020  84.1330830  81.3198320
  89.5733440  84.9562000  81.7922130  90.3151580  83.9221560  80.9722470
  76.9203550  86.2262040  80.9915450  77.6566030  85.6777500  81.2624020
  77.3044470  87.0918050  80.8521440  73.8049030  82.2935610  76.8656960
  72.8788810  82.5356750  76.8562370  74.2705460  83.1209870  76.7441710
  75.9261830  85.4108110  90.1801030  76.7274560  85.7320160  90.5936430
  75.4113650  85.0503690  90.9020940  80.0305860  85.3992350  72.8141020
  80.8234470  85.6881180  72.3622810  79.5110210  84.9684520  72.1353500
  84.7626460  81.5187980  90.1276440  84.1564620  81.5419580  89.3872190
  84.4580570  80.7871020  90.6643690  86.1926830  85.2468270  88.7385850
  87.1448580  85.1626290  88.6886090  86.0455050  85.9109980  89.4119640
  89.0836030  84.6262480  74.2377760  88.7977540  84.2127620  73.4231940
  88.8855580  85.5550190  74.1178280  73.6459640  77.8981570  89.1237080
  74.1498660  77.3188850  89.6953310  72.9067060  78.1821800  89.6613450
  80.5483260  80.6195760  72.6783370  80.4433900  80.0048110  73.4044750
  80.3807480  80.0961650  71.8946380  80.6997580  79.3052560  88.6572600
  79.9343250  79.8737560  88.5727270  80.8813540  79.0128770  87.7640830
  83.7885990  79.6815790  73.2825360  83.2396090  80.1285090  73.9268100
  84.4105250  79.1765040  73.8063030  87.8420930  81.0357890  89.2147620
  88.5830400  81.3733650  88.7115080  87.0793610  81.2049950  88.6617390
  75.6782720  76.0411160  90.0187150  75.7188060  75.7425030  90.9272380
  76.5328220  76.4418770  89.8594670  79.4561110  78.6406710  75.1790660
  79.8777530  78.4746580  76.0222050  79.5811950  77.8306940  74.6845800
  77.6188530  74.6203260  87.9861640  77.0884990  74.1294210  87.3584980
  78.2876600  75.0487460  87.4519570  81.9688750  77.6644320  72.4267760
  82.4894410  76.9493340  72.0608910  82.6157150  78.3030190  72.7268270
  86.5166590  79.0872720  87.7502830  86.9307610  79.2417800  88.5993250
  85.5817590  79.2127940  87.9128610  86.9888760  76.4268880  89.7541980
  87.5709530  75.6721200  89.6662460  87.1650530  76.9576320  88.9773460
  78.1060830  71.5865630  88.0658930  78.0117700  70.9686380  87.3409800
  77.5258220  72.3131920  87.8388840  80.8722270  70.1438870  85.0986320
  80.4239570  70.1663130  84.2531870  80.2387470  69.7457890  85.6956620
  81.2781820  79.0393200  85.7198760  81.6969930  79.8825930  85.5475000
  80.3590450  79.1765240  85.4905540  83.6145720  76.7709380  87.1036600
  83.7341930  76.1750520  87.8431440  84.4739720  76.8079070  86.6837900
  85.9533620  77.3246570  85.6799110  85.4268840  77.8489190  85.0764250
  86.2964960  77.9573960  86.3108840  78.3520010  74.7139940  72.1248820
  78.1509070  73.8507300  72.4862160  78.1812060  74.6273300  71.1870420
  79.1289240  85.3446210  86.8356490  78.5910330  86.0692270  86.5165190
  79.3823200  84.8676550  86.0453830  80.3814490  73.3130730  88.3612420
  80.9714180  73.0046580  89.0490240  79.5634730  72.8410480  88.5172320
  85.2007920  72.9296540  88.5945440  84.5123440  72.2678080  88.5295430
  85.9213940  72.4834810  89.0393900  85.8308320  69.5248170  74.6535700
  86.1110610  68.6816070  75.0095120  85.0574050  69.7571280  75.1674450
  77.1502810  71.8140560  72.1126700  77.4528710  71.8207990  71.2045850
  77.8897400  71.4638420  72.6094360  81.9851450  86.5797420  87.0943140
  81.9110150  87.4832560  87.4015510  81.0830290  86.2609320  87.0665210
  80.3687740  70.7575180  73.0982900  80.0209740  70.0799170  72.5185350
  80.5700510  70.2964690  73.9126290  82.5336780  85.7455930  74.7169500
  83.4287570  86.0840900  74.7388260  82.5654410  85.0235340  74.0893780
  73.3878740  83.9072010  80.3976760  73.7181750  83.0393070  80.1655400
  73.8169740  84.1130530  81.2281720  77.9840660  82.2381020  78.0578730
  77.6836200  82.1145990  78.9582640  77.8778150  81.3789610  77.6494460
  73.8768950  84.7742600  83.1358390  73.4399940  84.9543400  83.9682540
  74.4446630  85.5317220  82.9940110  89.5131130  84.2759600  87.4235700
  88.9133120  84.3352160  86.6799620  89.6425030  83.3364580  87.5532550
  90.7532580  82.0177420  72.7605410  89.9225540  82.0854070  73.2312640
  90.9304410  82.9081540  72.4572270  90.2089040  78.7624900  75.2639610
  90.9707950  79.3321550  75.3699300  90.2243410  78.1952100  76.0347920
  73.7093380  77.2862830  79.4947270  73.0542220  77.0174470  78.8506970
  74.5471330  77.1767310  79.0449250  91.2149010  79.6175000  80.1081540
  91.5857840  78.8342320  79.7017510  91.8550940  80.3064100  79.9298840
  88.1982770  81.0011580  85.5211860  87.3842610  81.4308740  85.7837650
  88.6056970  81.6129990  84.9080910  90.2608210  79.0559270  72.4212130
  90.5357050  79.9638150  72.2931350  90.0718950  78.9921800  73.3574120
  86.6583820  72.0804120  73.7165760  87.0768700  71.8935100  72.8762420
  86.3519880  71.2283170  74.0268690  90.1573550  76.9928260  77.4141560
  89.7817150  76.2256190  76.9822850  89.4276670  77.3750960  77.9016490
  74.7469310  77.6715400  84.0350610  75.1142350  77.5842800  84.9146630
  74.1780130  76.9081950  83.9357470  89.5473170  76.1399780  87.0481080
  89.3159260  75.9112530  86.1479030  89.8077720  77.0599330  87.0025970
  74.2985310  74.5824490  87.9409030  73.4041360  74.5491250  88.2802740
  74.8382860  74.7811280  88.7060280  87.9861240  71.3656210  89.8260780
  88.8631420  71.3739610  90.2094780  87.9982080  70.6287050  89.2153130
  89.4324510  75.2185750  80.7148800  89.9561990  74.7248400  80.0838970
  90.0183930  75.3536110  81.4596370  89.6114230  75.3025620  84.2368350
  88.6616940  75.2689160  84.3513340  89.7927240  76.2125730  84.0018120
  88.9224480  74.4759100  76.6541210  89.4183600  74.2429970  77.4390090
  88.7240550  73.6370940  76.2378850  74.8025020  68.8572820  82.2892250
  75.4501210  68.3070200  81.8487410  75.2226860  69.1115970  83.1108060
  90.3511640  73.1120050  79.1878890  90.2410920  72.9576090  80.1261160
  91.1119230  72.5840990  78.9454300  88.6977360  69.0514180  85.6461890
  89.3349580  69.6648320  86.0121080  88.8452250  69.0874840  84.7011120
  91.2401910  70.9427970  72.4285030  92.1651220  70.8109150  72.2203320
  91.2177700  71.0220790  73.3821480  91.3140400  71.7138630  75.0541740
  90.5191900  71.6483750  75.5834650  91.5183680  72.6489270  75.0427090
  88.2558820  85.7530180  79.0480130  88.8517890  85.4314750  78.3714550
  88.5136970  85.2802000  79.8393400  74.5557020  69.0128490  85.0317570
  74.2071840  69.4692310  85.7975750  74.2244720  68.1185620  85.1140000
  76.1621390  82.1848090  89.1970760  76.1191020  81.8141000  90.0785220
  76.2932400  83.1225660  89.3372580  79.8627420  83.7407680  84.7980480
  79.6218780  84.0082240  83.9111000  80.8030060  83.9113410  84.8531340
  91.1231580  85.7602060  85.5991120  90.6289860  86.1570930  84.8818250
  90.5144870  85.1351270  85.9928400  75.2277660  68.5404690  88.3068340
  75.7760650  68.3592740  87.5434450  75.2932970  67.7498800  88.8424650
  76.0009420  85.1310340  86.3168540  75.4069740  84.9995040  87.0558580
  75.9933260  84.2948480  85.8510640  85.4464440  68.4242570  84.5198570
  84.5724280  68.7577680  84.3171500  85.3375190  67.9515750  85.3450440
  86.3536420  70.6313440  85.9040290  86.0249780  69.8165200  85.5242020
  87.3018720  70.5883250  85.7805980  88.8071030  86.4025480  82.8777860
  88.3474000  87.1541290  82.5035880  88.1783490  85.6831950  82.8192660
  75.6321650  82.4968720  85.2676580  74.9055710  81.8774010  85.2002530
  75.6930800  82.8909330  84.3974660  79.2366750  84.7113720  82.0525990
  79.7531770  84.1001080  81.5274250  79.8864130  85.2142500  82.5437000
  81.9762250  85.6022210  82.8794970  82.2640060  85.3476510  82.0027980
  82.4885470  85.0499570  83.4700540  83.1939260  69.3412410  83.4591480
  82.4111050  69.8157910  83.7388240  82.9002190  68.4367240  83.3504660
  87.7460330  70.0435510  81.5040570  88.1868420  69.9880610  80.6562170
  87.4767920  70.9593520  81.5750750  89.6098900  69.6750750  79.5149390
  89.5487300  68.7311970  79.3680410  90.3890930  69.7830840  80.0602850
  73.9151650  85.8143110  78.4773340  73.7473690  85.1813790  79.1755230
  73.0486160  86.0202510  78.1267530  81.0793480  71.7599160  78.9707510
  80.2667990  71.3856050  78.6303390  81.5835120  71.0044240  79.2728700
  85.5818460  68.4241610  80.2090580  86.1847830  68.9961820  80.6839100
  84.8411450  68.9881050  79.9864480  88.7253060  68.8263170  75.4830860
  88.9203690  69.7246620  75.7498290  87.9382930  68.5950250  75.9763810
  75.5214350  84.5076340  75.9223480  74.9961970  84.8884370  75.2185440
  75.4458930  85.1327110  76.6433190  79.1042660  69.9099080  77.5752560
  78.4745400  69.2086390  77.7422690  78.5647800  70.6703210  77.3585720
  82.0434610  86.5238310  90.2463170  82.9701920  86.2882580  90.2899130
  82.0285040  87.3510310  89.7649200  90.2779670  86.0663880  77.2437420
  90.4531860  85.3801620  76.5998340  89.5801240  86.5910930  76.8514090
  78.1207320  86.4558720  74.7972730  78.8526140  86.1718000  74.2496620
  78.3800990  86.2172000  75.6872110  77.2822110  82.5723450  74.8019060
  76.6530990  83.0408550  75.3504890  77.3969940  81.7272670  75.2365250
  88.6112170  85.7508170  90.0704210  89.4037490  85.2557400  89.8630170
  88.9045320  86.4298310  90.6779820  84.7371830  76.6229110  60.9520260
  84.6565880  75.7083720  60.6811970  84.3236250  77.1196180  60.2459970
  82.8689870  78.4008130  62.8329530  82.0931970  77.9208570  63.1228100
  83.5202800  77.7213780  62.6585690  86.8897300  82.8068320  61.6128660
  86.4278830  82.0355560  61.9415830  87.7022850  82.8334390  62.1181110
  83.1160610  85.0926330  61.2332650  82.4972050  85.5483830  60.6627090
  83.9712390  85.2477790  60.8322350  82.3098860  81.0765320  62.8399690
  82.2407140  80.1355260  62.6788820  83.0718720  81.1666730  63.4122260
  91.4127700  73.3952890  66.5640590  90.7079870  73.7834600  66.0455700
  91.6785620  74.0903180  67.1661520  83.9823960  79.9765570  58.6264560
  83.3641230  80.4415020  58.0627280  84.4947210  80.6693050  59.0434070
  78.8455720  79.5041440  65.3048160  78.5125100  80.1310360  65.9469230
  79.0222400  80.0303320  64.5249830  87.3589630  73.3186520  62.7724500
  86.6545200  73.6071410  63.3527610  87.7201790  74.1286630  62.4124060
  78.0574820  81.4722240  67.1197340  78.6748820  82.1473320  66.8381790
  77.1967940  81.8810220  67.0284840  88.9752410  82.9361650  65.0351980
  88.2915930  83.6060760  65.0268650  89.5146700  83.1342300  64.2696840
  90.4276550  72.7641310  63.1633710  89.4801460  72.7980290  63.2949140
  90.7526540  73.5780260  63.5483070  86.5111150  84.7805780  63.7497160
  86.5238310  84.3768070  62.8819420  85.9586370  85.5553070  63.6458590
  87.8056570  81.5022000  58.8387330  87.6952900  80.5596330  58.9636750
  87.8024820  81.8637640  59.7250090  85.9096590  79.6835620  65.0779770
  86.3265380  79.4695730  64.2433230  86.6336410  79.9408410  65.6488390
  89.8558690  78.0822840  65.1696010  89.0277320  78.1515930  64.6946140
  90.4509170  78.6677150  64.7011840  87.3774140  78.6907620  58.6985070
  86.7586560  78.3527170  58.0511370  87.3598590  78.0467380  59.4064260
  86.8200700  74.8692160  66.1150880  86.4071880  75.6945870  66.3690870
  86.0876650  74.2837200  65.9227240  87.5100800  84.9151490  66.8031860
  87.0331360  85.7223680  66.6104470  86.8262590  84.2629820  66.9558070
  85.5538840  77.9294430  55.7057820  85.9932120  77.0916860  55.5595640
  86.2667260  78.5623830  55.7921960  83.6634220  82.8690500  59.6739060
  84.1030130  83.6114830  59.2594450  83.6021110  83.1117070  60.5978020
  79.1385190  83.8936330  70.5759080  79.1100620  84.2979280  69.7087510
  78.9750160  82.9646690  70.4130680  91.0900010  84.6763430  71.8723250
  91.5659730  85.1546320  72.5512330  91.7107170  84.6080920  71.1468750
  90.4933260  81.8676280  69.0323260  90.6196320  81.6288160  68.1140440
  90.5354640  81.0360820  69.5045340  84.3550000  85.5704280  67.6018070
  84.8694670  85.4812290  68.4040500  83.5119080  85.9163980  67.8945980
  86.3304400  85.8559620  57.0302070  86.1705540  85.5662560  57.9283900
  86.1651110  85.0799750  56.4947300  78.8092780  85.6358150  58.8073690
  78.6335260  84.7193690  58.5941490  77.9548520  85.9945440  59.0471490
  86.0330530  83.3647180  55.5900070  85.3395690  83.3624470  54.9302350
  86.7753390  82.9406500  55.1594240  85.5980460  84.9909890  59.6648560
  86.0537410  84.2099270  59.9787180  85.9372980  85.7016710  60.2089740
  90.3457270  73.9208740  69.9973000  89.7301540  74.4288410  69.4688460
  90.0253690  73.0207070  69.9398940  82.4071590  72.7600630  67.4635190
  81.9450960  72.9683650  68.2755130  82.0049700  71.9459980  67.1605860
  87.4076100  73.9809580  68.5931850  86.5569690  73.6815330  68.9140920
  87.2477890  74.2251590  67.6815670  84.5025810  75.4811330  70.6930640
  84.8279220  74.6475080  70.3532870  85.2906140  76.0039850  70.8408970
  80.3515210  75.9151260  70.2541390  80.2558810  74.9745990  70.1041790
  81.1947190  76.1366330  69.8589460  82.0570800  72.4099900  71.4771910
  81.3669120  72.2172100  72.1118000  82.8003100  72.6934540  72.0096210
  84.3333770  76.2498340  64.3125830  83.6014890  76.7585150  64.6615930
  83.9358110  75.4328320  64.0114610  84.7959680  71.7032020  63.7248770
  84.8132420  72.1540670  64.5690620  84.5475260  70.8037660  63.9382210
  88.2230430  69.1164200  69.5635150  88.5476200  68.3853860  70.0893130
  88.2586940  68.7977840  68.6616140  81.0719130  76.9854320  64.4643730
  81.4389260  76.5112890  65.2105070  80.8824190  77.8595890  64.8052070
  88.1488270  79.2289310  63.1721180  88.8687390  79.7244600  62.7817290
  87.9470090  78.5507200  62.5275050  83.5307070  79.2998370  69.0590180
  83.4644380  78.3794040  68.8047770  82.9012210  79.3973810  69.7734820
  82.3207190  81.1670610  56.2900900  82.6622890  81.9112840  55.7944220
  81.4919900  81.4801730  56.6525730  78.1195350  77.3249940  70.8138850
  77.8195490  77.4707120  69.9166670  78.8906590  76.7655230  70.7212240
  83.4623800  82.1218940  68.8093980  83.4768340  81.1899900  68.5912890
  82.7548900  82.2078700  69.4483750  89.6735010  78.7626280  68.1562560
  88.9483200  79.3555060  67.9591950  90.2010470  78.7549820  67.3575930
  89.6248120  83.1601020  57.8074720  88.9824280  82.5056640  58.0818440
  89.2378780  83.5656110  57.0315390  85.2034600  80.4886450  61.6546410
  85.5558420  79.8914580  60.9947780  84.3196930  80.1630680  61.8254660
  81.2897880  81.2484140  59.0616820  81.9769010  81.7953350  59.4424410
  80.5030300  81.7924870  59.0966430  82.8957700  83.7636510  65.9034480
  83.5399920  83.9695890  66.5807900  83.2587140  83.0024910  65.4505330
  84.1689780  81.7668860  64.6211930  84.8112010  81.0662020  64.7344100
  84.6939130  82.5467300  64.4408820  88.0145500  82.0517480  54.3451070
  87.7883080  81.3347920  54.9375710  87.6241700  81.8029920  53.5072820
  85.9427400  82.5663760  67.8247990  86.2783640  83.1530450  68.5025910
  85.0227740  82.4356470  68.0545780  73.7961530  86.0784340  55.1195530
  74.1559170  86.6773680  54.4652800  73.6553870  86.6244230  55.8930560
  87.5961750  79.9689420  56.0065230  87.3083450  80.4302110  56.7943110
  88.3913920  79.5087190  56.2749450  81.7715980  82.6155090  70.9936050
  81.4512850  81.8964330  71.5381740  81.0974340  83.2910160  71.0672110
  79.8130150  83.4615540  55.9369200  79.8040250  84.1945230  55.3213710
  78.8928510  83.2147120  56.0296160  84.9869580  72.8481250  66.3572850
  85.3550400  72.0276460  66.6852420  84.1267780  72.9083140  66.7728500
  82.7989750  83.5243780  54.5994390  82.9001730  83.3207770  53.6696370
  81.8991490  83.2702060  54.8042170  81.9471570  75.5020840  66.5810820
  82.4456820  75.9766660  67.2462670  82.0894520  74.5784360  66.7880850
  81.4407860  86.0430100  59.2942060  81.6949360  86.0051490  58.3721430
  80.4920340  85.9163430  59.2870310  89.1538430  71.7188800  67.4239210
  88.6512030  72.4594200  67.7633020  89.9695090  72.1072800  67.1076000
  87.4460440  76.9621980  60.8700570  86.5050580  76.9772210  61.0448260
  87.7604510  76.1757940  61.3160870  89.4486020  84.1330830  62.5454830
  89.5733440  84.9562000  63.0178640  90.3151580  83.9221560  62.1978980
  75.9261830  85.4108110  71.4057540  76.7274560  85.7320160  71.8192940
  75.4113650  85.0503690  72.1277450  80.0305860  85.3992350  54.0397530
  80.8234470  85.6881180  53.5879320  79.5110210  84.9684520  53.3610010
  84.7626460  81.5187980  71.3532950  84.1564620  81.5419580  70.6128700
  84.4580570  80.7871020  71.8900200  86.1926830  85.2468270  69.9642360
  87.1448580  85.1626290  69.9142600  86.0455050  85.9109980  70.6376150
  89.0836030  84.6262480  55.4634270  88.7977540  84.2127620  54.6488450
  88.8855580  85.5550190  55.3434790  80.5483260  80.6195760  53.9039880
  80.4433900  80.0048110  54.6301260  80.3807480  80.0961650  53.1202890
  80.6997580  79.3052560  69.8829110  79.9343250  79.8737560  69.7983780
  80.8813540  79.0128770  68.9897340  83.7885990  79.6815790  54.5081870
  83.2396090  80.1285090  55.1524610  84.4105250  79.1765040  55.0319540
  87.8420930  81.0357890  70.4404130  88.5830400  81.3733650  69.9371590
  87.0793610  81.2049950  69.8873900  81.9688750  77.6644320  53.6524270
  82.4894410  76.9493340  53.2865420  82.6157150  78.3030190  53.9524780
  86.5166590  79.0872720  68.9759340  86.9307610  79.2417800  69.8249760
  85.5817590  79.2127940  69.1385120  86.9888760  76.4268880  70.9798490
  87.5709530  75.6721200  70.8918970  87.1650530  76.9576320  70.2029970
  81.2781820  79.0393200  66.9455270  81.6969930  79.8825930  66.7731510
  80.3590450  79.1765240  66.7162050  83.6145720  76.7709380  68.3293110
  83.7341930  76.1750520  69.0687950  84.4739720  76.8079070  67.9094410
  85.9533620  77.3246570  66.9055620  85.4268840  77.8489190  66.3020760
  86.2964960  77.9573960  67.5365350  79.1289240  85.3446210  68.0613000
  78.5910330  86.0692270  67.7421700  79.3823200  84.8676550  67.2710340
  80.3814490  73.3130730  69.5868930  80.9714180  73.0046580  70.2746750
  79.5634730  72.8410480  69.7428830  85.2007920  72.9296540  69.8201950
  84.5123440  72.2678080  69.7551940  85.9213940  72.4834810  70.2650410
  81.9851450  86.5797420  68.3199650  81.9110150  87.4832560  68.6272020
  81.0830290  86.2609320  68.2921720  82.5336780  85.7455930  55.9426010
  83.4287570  86.0840900  55.9644770  82.5654410  85.0235340  55.3150290
  89.5131130  84.2759600  68.6492210  88.9133120  84.3352160  67.9056130
  89.6425030  83.3364580  68.7789060  90.7532580  82.0177420  53.9861920
  89.9225540  82.0854070  54.4569150  90.9304410  82.9081540  53.6828780
  91.2149010  79.6175000  61.3338050  91.5857840  78.8342320  60.9274020
  91.8550940  80.3064100  61.1555350  88.1982770  81.0011580  66.7468370
  87.3842610  81.4308740  67.0094160  88.6056970  81.6129990  66.1337420
  90.1573550  76.9928260  58.6398070  89.7817150  76.2256190  58.2079360
  89.4276670  77.3750960  59.1273000  89.5473170  76.1399780  68.2737590
  89.3159260  75.9112530  67.3735540  89.8077720  77.0599330  68.2282480
  87.9861240  71.3656210  71.0517290  88.8631420  71.3739610  71.4351290
  87.9982080  70.6287050  70.4409640  89.4324510  75.2185750  61.9405310
  89.9561990  74.7248400  61.3095480  90.0183930  75.3536110  62.6852880
  89.6114230  75.3025620  65.4624860  88.6616940  75.2689160  65.5769850
  89.7927240  76.2125730  65.2274630  90.3511640  73.1120050  60.4135400
  90.2410920  72.9576090  61.3517670  91.1119230  72.5840990  60.1710810
  88.6977360  69.0514180  66.8718400  89.3349580  69.6648320  67.2377590
  88.8452250  69.0874840  65.9267630  88.2558820  85.7530180  60.2736640
  88.8517890  85.4314750  59.5971060  88.5136970  85.2802000  61.0649910
  82.0681840  70.2040370  69.7793500  82.0070730  70.7962200  70.5288910
  83.0082220  70.0966330  69.6343760  84.7056400  69.8610430  69.4185790
  85.3196810  70.1789720  68.7566870  85.2505960  69.3759020  70.0381650
  91.1231580  85.7602060  66.8247630  90.6289860  86.1570930  66.1074760
  90.5144870  85.1351270  67.2184910  86.3536420  70.6313440  67.1296800
  86.0249780  69.8165200  66.7498530  87.3018720  70.5883250  67.0062490
  88.8071030  86.4025480  64.1034370  88.3474000  87.1541290  63.7292390
  88.1783490  85.6831950  64.0449170  81.9762250  85.6022210  64.1051480
  82.2640060  85.3476510  63.2284490  82.4885470  85.0499570  64.6957050
  87.7460330  70.0435510  62.7297080  88.1868420  69.9880610  61.8818680
  87.4767920  70.9593520  62.8007260  73.9151650  85.8143110  59.7029850
  73.7473690  85.1813790  60.4011740  73.0486160  86.0202510  59.3524040
  75.5214350  84.5076340  57.1479990  74.9961970  84.8884370  56.4441950
  75.4458930  85.1327110  57.8689700  82.0434610  86.5238310  71.4719680
  82.9701920  86.2882580  71.5155640  82.0285040  87.3510310  70.9905710
  90.2779670  86.0663880  58.4693930  90.4531860  85.3801620  57.8254850
  89.5801240  86.5910930  58.0770600  79.2298220  69.1883060  71.2361560
  78.9482490  69.6916660  70.4722380  79.6117920  68.3904810  70.8703690
  78.1207320  86.4558720  56.0229240  78.8526140  86.1718000  55.4753130
  78.3800990  86.2172000  56.9128620  77.2822110  82.5723450  56.0275570
  76.6530990  83.0408550  56.5761400  77.3969940  81.7272670  56.4621760
  85.8313680  68.6036640  71.8142030  85.7179130  68.9231250  72.7093550
  86.6483420  69.0049150  71.5179310  88.6112170  85.7508170  71.2960720
  89.4037490  85.2557400  71.0886680  88.9045320  86.4298310  71.9036330
  84.7371830  76.6229110  42.1776770  84.6565880  75.7083720  41.9068480
  84.3236250  77.1196180  41.4716480  82.8689870  78.4008130  44.0586040
  82.0931970  77.9208570  44.3484610  83.5202800  77.7213780  43.8842200
  76.8855700  78.7127940  44.9361800  76.0540580  78.4576650  45.3358310
  77.4936680  78.7838710  45.6719720  86.8897300  82.8068320  42.8385170
  86.4278830  82.0355560  43.1672340  87.7022850  82.8334390  43.3437620
  76.8656960  82.7468030  45.1319820  77.1685000  81.8565770  44.9530040
  77.6100550  83.3038250  44.9042070  75.2947650  73.6729830  38.7204190
  74.4064350  74.0145800  38.6184070  75.5788840  73.4730150  37.8285020
  73.2580660  76.2735480  44.6043890  73.8296770  75.5057680  44.6047530
  73.2582200  76.5724240  43.6950500  83.1160610  85.0926330  42.4589160
  82.4972050  85.5483830  41.8883600  83.9712390  85.2477790  42.0578860
  82.3098860  81.0765320  44.0656200  82.2407140  80.1355260  43.9045330
  83.0718720  81.1666730  44.6378770  74.5005530  71.6819840  46.3912820
  74.3208370  70.7845590  46.6715580  74.0985610  72.2291710  47.0659770
  83.3404030  73.8835700  44.2925130  83.7168850  73.0107580  44.1798800
  83.2423540  74.2194400  43.4015570  77.4709040  72.2561330  39.7542570
  77.5775790  73.1565060  40.0611330  76.5601400  72.2079300  39.4637220
  75.1192200  74.1780340  44.9995160  75.8002310  74.4418710  45.6182560
  74.8040250  73.3381210  45.3333170  79.3116770  75.2247700  44.0867750
  79.8194990  75.7228670  44.7272770  79.8430010  74.4482900  43.9107110
  83.9823960  79.9765570  39.8521070  83.3641230  80.4415020  39.2883790
  84.4947210  80.6693050  40.2690580  78.8455720  79.5041440  46.5304670
  78.5125100  80.1310360  47.1725740  79.0222400  80.0303320  45.7506340
  77.2768200  71.5756220  46.3601620  77.6185010  72.4198270  46.0655490
  76.3384010  71.7239960  46.4766960  78.0574820  81.4722240  48.3453850
  78.6748820  82.1473320  48.0638300  77.1967940  81.8810220  48.2541350
  73.3507160  80.6622100  37.2260700  72.9735140  81.1509200  36.4945600
  73.6080230  81.3347380  37.8567230  88.9752410  82.9361650  46.2608490
  88.2915930  83.6060760  46.2525160  89.5146700  83.1342300  45.4953350
  80.9596090  69.0638490  42.6846210  81.2671070  68.5085380  41.9681710
  80.0296790  69.1982950  42.5019200  86.5111150  84.7805780  44.9753670
  86.5238310  84.3768070  44.1075930  85.9586370  85.5553070  44.8715100
  87.8056570  81.5022000  40.0643840  87.6952900  80.5596330  40.1893260
  87.8024820  81.8637640  40.9506600  85.9096590  79.6835620  46.3036280
  86.3265380  79.4695730  45.4689740  86.6336410  79.9408410  46.8744900
  83.3476850  77.1287320  39.4206330  82.4206130  77.0624700  39.6494800
  83.5001670  78.0667450  39.3061570  83.3345930  73.4004320  36.4173490
  82.3949600  73.5618280  36.5025950  83.6529190  74.1190000  35.8709480
  87.3774140  78.6907620  39.9241580  86.7586560  78.3527170  39.2767880
  87.3598590  78.0467380  40.6320770  78.9533490  77.6552060  42.2026060
  78.5490490  76.9429310  41.7071960  79.0396610  77.3105300  43.0914100
  79.4215190  81.3419620  44.3665270  79.1243480  80.7365090  43.6873050
  80.3715010  81.3796930  44.2554630  77.6662110  74.4295270  45.9825100
  78.2176700  74.5390610  45.2078350  78.1805620  74.8032870  46.6980330
  87.5100800  84.9151490  48.0288370  87.0331360  85.7223680  47.8360980
  86.8262590  84.2629820  48.1814580  78.5133620  81.0801310  51.0173070
  77.6162150  81.3041280  51.2646470  78.5386490  81.2036250  50.0684470
  85.5538840  77.9294430  36.9314330  85.9932120  77.0916860  36.7852150
  86.2667260  78.5623830  37.0178470  77.3404840  77.9514630  49.5930440
  77.2012610  78.8237430  49.9617840  76.4586200  77.6087440  49.4478380
  83.6634220  82.8690500  40.8995570  84.1030130  83.6114830  40.4850960
  83.6021110  83.1117070  41.8234530  79.1385190  83.8936330  51.8015590
  79.1100620  84.2979280  50.9344020  78.9750160  82.9646690  51.6387190
  89.1355980  69.1837240  35.2455370  88.8228640  69.2764070  36.1454440
  89.8968450  69.7618270  35.1952800  75.6538120  76.5497040  39.7032710
  75.5335720  77.2759130  39.0913980  75.3439010  75.7799950  39.2260620
  91.0900010  84.6763430  53.0979760  91.5659730  85.1546320  53.7768840
  91.7107170  84.6080920  52.3725260  73.2923490  79.7212180  45.5101350
  73.3703910  79.8560950  44.5657070  73.9065170  79.0128070  45.7029470
  74.5371120  81.4212370  41.9207530  74.1299200  81.5626960  41.0661130
  75.4284130  81.1372530  41.7178740  90.4933260  81.8676280  50.2579770
  90.6196320  81.6288160  49.3396950  90.5354640  81.0360820  50.7301850
  84.3550000  85.5704280  48.8274580  84.8694670  85.4812290  49.6297010
  83.5119080  85.9163980  49.1202490  86.3304400  85.8559620  38.2558580
  86.1705540  85.5662560  39.1540410  86.1651110  85.0799750  37.7203810
  78.8092780  85.6358150  40.0330200  78.6335260  84.7193690  39.8198000
  77.9548520  85.9945440  40.2728000  86.0330530  83.3647180  36.8156580
  85.3395690  83.3624470  36.1558860  86.7753390  82.9406500  36.3850750
  85.5980460  84.9909890  40.8905070  86.0537410  84.2099270  41.2043690
  85.9372980  85.7016710  41.4346250  73.3483010  80.7626350  48.0495810
  73.5114050  80.2931710  47.2315180  73.8135460  80.2549910  48.7144650
  78.1201780  69.8932110  43.0856380  77.6769930  70.6741650  42.7540900
  78.6786770  70.2162000  43.7927320  81.2360600  69.5142810  37.9662210
  80.6114780  69.5102680  38.6915520  81.1490720  68.6473770  37.5698180
  80.1577680  70.4379440  44.9445980  80.4550010  71.3442270  44.8638000
  80.7063240  69.9498220  44.3305550  77.9116000  75.0165680  40.8137630
  77.6856920  74.8002850  41.7184250  77.1308530  75.4494140  40.4683600
  85.1413760  75.0229050  39.4128280  84.5422650  75.7464850  39.2291900
  85.6893370  74.9605830  38.6304730  83.7478630  73.6592590  41.4431560
  84.1408200  73.9764790  40.6300250  84.1095480  72.7804470  41.5576080
  72.7842800  70.2493390  43.6661760  72.4955850  70.8196250  44.3786740
  73.5288560  69.7697840  44.0292990  72.9713030  74.1913510  34.8764480
  72.8887700  75.1344270  35.0179470  72.6196090  74.0488420  33.9976830
  84.3333770  76.2498340  45.5382340  83.6014890  76.7585150  45.8872440
  83.9358110  75.4328320  45.2371120  80.7711160  72.9252540  43.9434830
  80.7747220  72.4842490  43.0939370  81.6662280  73.2469870  44.0506650
  76.6213540  72.8079030  42.9029040  76.2813590  73.2854260  43.6596090
  75.8590860  72.3544150  42.5430140  80.8331310  73.9264620  36.9341590
  80.9544130  73.8851100  37.8827410  80.4479820  74.7888770  36.7788320
  79.8452810  76.2365760  36.3324890  79.2769710  75.7884010  35.7060800
  80.5541810  76.5958540  35.7990040  74.9221990  80.1377780  50.2091620
  74.5376780  79.4971450  50.8074580  75.2334180  80.8413900  50.7786350
  81.0719130  76.9854320  45.6900240  81.4389260  76.5112890  46.4361580
  80.8824190  77.8595890  46.0308580  73.9359620  71.7298010  41.8193710
  73.6506540  71.3653680  42.6572330  73.8738480  70.9978470  41.2056850
  78.8618500  76.0262960  48.0084450  78.5575570  76.9054940  48.2334810
  79.8164960  76.0862750  48.0441890  77.3900290  80.2323950  38.6051300
  76.6162550  79.6921570  38.4450020  78.1194920  79.7130560  38.2669060
  83.6098210  70.6227270  38.5407080  82.7962820  70.1240440  38.4652390
  83.4160160  71.4625520  38.1243430  83.5307070  79.2998370  50.2846690
  83.4644380  78.3794040  50.0304280  82.9012210  79.3973810  50.9991330
  86.3246600  74.9946920  36.8369240  87.2126220  75.3064150  36.6620580
  86.2951690  74.1219170  36.4449820  77.4337690  79.9004330  42.2430110
  77.9516360  79.0972590  42.1887000  76.9821710  79.8383470  43.0846940
  82.3207190  81.1670610  37.5157410  82.6622890  81.9112840  37.0200730
  81.4919900  81.4801730  37.8782240  74.9182230  76.8665700  49.1555810
  74.5597170  77.5319550  49.7429150  74.6236790  76.0349250  49.5268430
  83.4623800  82.1218940  50.0350490  83.4768340  81.1899900  49.8169400
  82.7548900  82.2078700  50.6740260  88.5960870  76.3058760  36.3049100
  88.5124590  76.7372980  35.4545540  89.3155060  76.7657110  36.7375920
  89.6248120  83.1601020  39.0331230  88.9824280  82.5056640  39.3074950
  89.2378780  83.5656110  38.2571900  85.2034600  80.4886450  42.8802920
  85.5558420  79.8914580  42.2204290  84.3196930  80.1630680  43.0511170
  81.2897880  81.2484140  40.2873330  81.9769010  81.7953350  40.6680920
  80.5030300  81.7924870  40.3222940  73.4290280  76.8656960  35.7790410
  74.2985130  77.1481760  36.0626330  72.9380600  77.6792830  35.6639220
  80.5925090  78.2530170  39.8998690  81.0487870  79.0635420  40.1258880
  80.2413300  77.9353310  40.7317180  82.8957700  83.7636510  47.1290990
  83.5399920  83.9695890  47.8064410  83.2587140  83.0024910  46.6761840
  76.4936870  68.5967820  40.3721210  76.3651500  68.5885720  41.3206130
  75.6698890  68.9350910  40.0212220  84.1689780  81.7668860  45.8468440
  84.8112010  81.0662020  45.9600610  84.6939130  82.5467300  45.6665330
  88.0145500  82.0517480  35.5707580  87.7883080  81.3347920  36.1632220
  87.6241700  81.8029920  34.7329330  85.9427400  82.5663760  49.0504500
  86.2783640  83.1530450  49.7282420  85.0227740  82.4356470  49.2802290
  73.7961530  86.0784340  36.3452040  74.1559170  86.6773680  35.6909310
  73.6553870  86.6244230  37.1187070  73.4930800  70.3558940  49.8327910
  72.7789320  70.5555860  50.4380520  73.9125840  69.5798510  50.2042710
  87.5961750  79.9689420  37.2321740  87.3083450  80.4302110  38.0199620
  88.3913920  79.5087190  37.5005960  73.7803390  84.3439200  50.8194440
  73.8894510  83.4033940  50.6789830  73.1283950  84.6093950  50.1708170
  81.7715980  82.6155090  52.2192560  81.4512850  81.8964330  52.7638250
  81.0974340  83.2910160  52.2928620  79.8130150  83.4615540  37.1625710
  79.8040250  84.1945230  36.5470220  78.8928510  83.2147120  37.2552670
  75.4136790  78.6830430  37.9072470  74.8064740  79.4229330  37.9167770
  75.8886140  78.7729790  37.0810670  88.3531610  71.8038190  38.3916920
  87.7244770  71.9083860  37.6775150  87.8583530  72.0234970  39.1810800
  82.7989750  83.5243780  35.8250900  82.9001730  83.3207770  34.8952880
  81.8991490  83.2702060  36.0298680  80.3215640  74.0824140  39.8074800
  79.6131790  74.5510480  40.2488410  80.6060120  73.4246150  40.4419990
  84.3531070  70.8074800  41.2470590  84.2298850  70.8260930  40.2980100
  85.3015630  70.8553740  41.3668990  81.4407860  86.0430100  40.5198570
  81.6949360  86.0051490  39.5977940  80.4920340  85.9163430  40.5126820
  78.5250660  72.3909220  37.1825510  79.3741190  72.8279370  37.1165700
  78.1581930  72.7029480  38.0097570  87.4460440  76.9621980  42.0957080
  86.5050580  76.9772210  42.2704770  87.7604510  76.1757940  42.5417380
  77.4242080  78.6441580  35.6561040  78.1905350  78.5322940  36.2186470
  77.5016770  77.9479550  35.0037810  76.1188840  76.0766650  36.3393930
  76.1992430  75.1294160  36.4511330  77.0108590  76.4073530  36.4454590
  89.4486020  84.1330830  43.7711340  89.5733440  84.9562000  44.2435150
  90.3151580  83.9221560  43.4235490  76.9203550  86.2262040  43.4428470
  77.6566030  85.6777500  43.7137040  77.3044470  87.0918050  43.3034460
  73.8049030  82.2935610  39.3169980  72.8788810  82.5356750  39.3075390
  74.2705460  83.1209870  39.1954730  75.9261830  85.4108110  52.6314050
  76.7274560  85.7320160  53.0449450  75.4113650  85.0503690  53.3533960
  80.0305860  85.3992350  35.2654040  80.8234470  85.6881180  34.8135830
  79.5110210  84.9684520  34.5866520  84.7626460  81.5187980  52.5789460
  84.1564620  81.5419580  51.8385210  84.4580570  80.7871020  53.1156710
  86.1926830  85.2468270  51.1898870  87.1448580  85.1626290  51.1399110
  86.0455050  85.9109980  51.8632660  89.0836030  84.6262480  36.6890780
  88.7977540  84.2127620  35.8744960  88.8855580  85.5550190  36.5691300
  80.5483260  80.6195760  35.1296390  80.4433900  80.0048110  35.8557770
  80.3807480  80.0961650  34.3459400  80.6997580  79.3052560  51.1085620
  79.9343250  79.8737560  51.0240290  80.8813540  79.0128770  50.2153850
  83.7885990  79.6815790  35.7338380  83.2396090  80.1285090  36.3781120
  84.4105250  79.1765040  36.2576050  87.8420930  81.0357890  51.6660640
  88.5830400  81.3733650  51.1628100  87.0793610  81.2049950  51.1130410
  79.4561110  78.6406710  37.6303680  79.8777530  78.4746580  38.4735070
  79.5811950  77.8306940  37.1358820  81.9688750  77.6644320  34.8780780
  82.4894410  76.9493340  34.5121930  82.6157150  78.3030190  35.1781290
  86.5166590  79.0872720  50.2015850  86.9307610  79.2417800  51.0506270
  85.5817590  79.2127940  50.3641630  81.2781820  79.0393200  48.1711780
  81.6969930  79.8825930  47.9988020  80.3590450  79.1765240  47.9418560
  85.9533620  77.3246570  48.1312130  85.4268840  77.8489190  47.5277270
  86.2964960  77.9573960  48.7621860  78.3520010  74.7139940  34.5761840
  78.1509070  73.8507300  34.9375180  78.1812060  74.6273300  33.6383440
  79.1289240  85.3446210  49.2869510  78.5910330  86.0692270  48.9678210
  79.3823200  84.8676550  48.4966850  85.8308320  69.5248170  37.1048720
  86.1110610  68.6816070  37.4608140  85.0574050  69.7571280  37.6187470
  77.1502810  71.8140560  34.5639720  77.4528710  71.8207990  33.6558870
  77.8897400  71.4638420  35.0607380  81.9851450  86.5797420  49.5456160
  81.9110150  87.4832560  49.8528530  81.0830290  86.2609320  49.5178230
  80.3687740  70.7575180  35.5495920  80.0209740  70.0799170  34.9698370
  80.5700510  70.2964690  36.3639310  82.5336780  85.7455930  37.1682520
  83.4287570  86.0840900  37.1901280  82.5654410  85.0235340  36.5406800
  76.1732940  81.1182980  35.3969520  76.6107810  81.6612650  36.0527100
  76.6580670  80.2929930  35.4065860  73.3878740  83.9072010  42.8489780
  73.7181750  83.0393070  42.6168420  73.8169740  84.1130530  43.6794740
  77.9840660  82.2381020  40.5091750  77.6836200  82.1145990  41.4095660
  77.8778150  81.3789610  40.1007480  73.8768950  84.7742600  45.5871410
  73.4399940  84.9543400  46.4195560  74.4446630  85.5317220  45.4453130
  89.5131130  84.2759600  49.8748720  88.9133120  84.3352160  49.1312640
  89.6425030  83.3364580  50.0045570  90.7532580  82.0177420  35.2118430
  89.9225540  82.0854070  35.6825660  90.9304410  82.9081540  34.9085290
  90.2089040  78.7624900  37.7152630  90.9707950  79.3321550  37.8212320
  90.2243410  78.1952100  38.4860940  73.7093380  77.2862830  41.9460290
  73.0542220  77.0174470  41.3019990  74.5471330  77.1767310  41.4962270
  88.1982770  81.0011580  47.9724880  87.3842610  81.4308740  48.2350670
  88.6056970  81.6129990  47.3593930  90.2608210  79.0559270  34.8725150
  90.5357050  79.9638150  34.7444370  90.0718950  78.9921800  35.8087140
  86.6583820  72.0804120  36.1678780  87.0768700  71.8935100  35.3275440
  86.3519880  71.2283170  36.4781710  90.1573550  76.9928260  39.8654580
  89.7817150  76.2256190  39.4335870  89.4276670  77.3750960  40.3529510
  74.7469310  77.6715400  46.4863630  75.1142350  77.5842800  47.3659650
  74.1780130  76.9081950  46.3870490  72.9231460  74.4961760  37.8885620
  72.0195540  74.7591960  37.7137280  73.4072080  74.7672930  37.1085580
  75.4658670  73.5527300  35.7980000  76.1750370  73.1310520  35.3127280
  74.7498610  73.6202530  35.1663350  75.1132830  69.6066630  34.8382650
  75.8360960  70.1475570  35.1563870  75.3857350  69.3330050  33.9624190
  88.9224480  74.4759100  39.1054230  89.4183600  74.2429970  39.8903110
  88.7240550  73.6370940  38.6891870  74.8025020  68.8572820  44.7405270
  75.4501210  68.3070200  44.3000430  75.2226860  69.1115970  45.5621080
  91.2401910  70.9427970  34.8798050  92.1651220  70.8109150  34.6716340
  91.2177700  71.0220790  35.8334500  91.3140400  71.7138630  37.5054760
  90.5191900  71.6483750  38.0347670  91.5183680  72.6489270  37.4940110
  88.2558820  85.7530180  41.4993150  88.8517890  85.4314750  40.8227570
  88.5136970  85.2802000  42.2906420  74.5557020  69.0128490  47.4830590
  74.2071840  69.4692310  48.2488770  74.2244720  68.1185620  47.5653020
  76.1621390  82.1848090  51.6483780  76.1191020  81.8141000  52.5298240
  76.2932400  83.1225660  51.7885600  79.8627420  83.7407680  47.2493500
  79.6218780  84.0082240  46.3624020  80.8030060  83.9113410  47.3044360
  91.1231580  85.7602060  48.0504140  90.6289860  86.1570930  47.3331270
  90.5144870  85.1351270  48.4441420  76.0009420  85.1310340  48.7681560
  75.4069740  84.9995040  49.5071600  75.9933260  84.2948480  48.3023660
  88.8071030  86.4025480  45.3290880  88.3474000  87.1541290  44.9548900
  88.1783490  85.6831950  45.2705680  75.6321650  82.4968720  47.7189600
  74.9055710  81.8774010  47.6515550  75.6930800  82.8909330  46.8487680
  79.2366750  84.7113720  44.5039010  79.7531770  84.1001080  43.9787270
  79.8864130  85.2142500  44.9950020  81.9762250  85.6022210  45.3307990
  82.2640060  85.3476510  44.4541000  82.4885470  85.0499570  45.9213560
  83.1939260  69.3412410  45.9104500  82.4111050  69.8157910  46.1901260
  82.9002190  68.4367240  45.8017680  73.9151650  85.8143110  40.9286360
  73.7473690  85.1813790  41.6268250  73.0486160  86.0202510  40.5780550
  74.5379670  69.6459890  38.4318220  75.2959030  69.7588770  37.8582250
  74.0756840  70.4829090  38.3861650  81.0793480  71.7599160  41.4220530
  80.2667990  71.3856050  41.0816410  81.5835120  71.0044240  41.7241720
  85.5818460  68.4241610  42.6603600  86.1847830  68.9961820  43.1352120
  84.8411450  68.9881050  42.4377500  75.5214350  84.5076340  38.3736500
  74.9961970  84.8884370  37.6698460  75.4458930  85.1327110  39.0946210
  76.9104820  70.1723940  36.9720190  77.4397580  69.3853740  36.8428140
  77.5433140  70.8515130  37.2055720  79.1042660  69.9099080  40.0265580
  78.4745400  69.2086390  40.1935710  78.5647800  70.6703210  39.8098740
  82.0434610  86.5238310  52.6976190  82.9701920  86.2882580  52.7412150
  82.0285040  87.3510310  52.2162220  90.2779670  86.0663880  39.6950440
  90.4531860  85.3801620  39.0511360  89.5801240  86.5910930  39.3027110
  78.1207320  86.4558720  37.2485750  78.8526140  86.1718000  36.7009640
  78.3800990  86.2172000  38.1385130  77.2822110  82.5723450  37.2532080
  76.6530990  83.0408550  37.8017910  77.3969940  81.7272670  37.6878270
  88.6112170  85.7508170  52.5217230  89.4037490  85.2557400  52.3143190
  88.9045320  86.4298310  53.1292840  84.7371830  76.6229110  23.4033280
  84.6565880  75.7083720  23.1324990  84.3236250  77.1196180  22.6972990
  82.8689870  78.4008130  25.2842550  82.0931970  77.9208570  25.5741120
  83.5202800  77.7213780  25.1098710  76.8855700  78.7127940  26.1618310
  76.0540580  78.4576650  26.5614820  77.4936680  78.7838710  26.8976230
  86.8897300  82.8068320  24.0641680  86.4278830  82.0355560  24.3928850
  87.7022850  82.8334390  24.5694130  76.8656960  82.7468030  26.3576330
  77.1685000  81.8565770  26.1786550  77.6100550  83.3038250  26.1298580
  75.2947650  73.6729830  19.9460700  74.4064350  74.0145800  19.8440580
  75.5788840  73.4730150  19.0541530  73.2580660  76.2735480  25.8300400
  73.8296770  75.5057680  25.8304040  73.2582200  76.5724240  24.9207010
  83.1160610  85.0926330  23.6845670  82.4972050  85.5483830  23.1140110
  83.9712390  85.2477790  23.2835370  82.3098860  81.0765320  25.2912710
  82.2407140  80.1355260  25.1301840  83.0718720  81.1666730  25.8635280
  74.5005530  71.6819840  27.6169330  74.3208370  70.7845590  27.8972090
  74.0985610  72.2291710  28.2916280  83.3404030  73.8835700  25.5181640
  83.7168850  73.0107580  25.4055310  83.2423540  74.2194400  24.6272080
  77.4709040  72.2561330  20.9799080  77.5775790  73.1565060  21.2867840
  76.5601400  72.2079300  20.6893730  87.1228150  71.3786140  22.4509980
  87.9437770  70.8882710  22.4935460  87.1562230  71.9683800  23.2041820
  75.1192200  74.1780340  26.2251670  75.8002310  74.4418710  26.8439070
  74.8040250  73.3381210  26.5589680  79.3116770  75.2247700  25.3124260
  79.8194990  75.7228670  25.9529280  79.8430010  74.4482900  25.1363620
  91.4127700  73.3952890  29.0153610  90.7079870  73.7834600  28.4968720
  91.6785620  74.0903180  29.6174540  77.5952870  69.8646260  29.5787680
  77.5971310  70.3818650  28.7733580  76.7657180  69.3876440  29.5557610
  83.9823960  79.9765570  21.0777580  83.3641230  80.4415020  20.5140300
  84.4947210  80.6693050  21.4947090  78.8455720  79.5041440  27.7561180
  78.5125100  80.1310360  28.3982250  79.0222400  80.0303320  26.9762850
  87.3589630  73.3186520  25.2237520  86.6545200  73.6071410  25.8040630
  87.7201790  74.1286630  24.8637080  77.2768200  71.5756220  27.5858130
  77.6185010  72.4198270  27.2912000  76.3384010  71.7239960  27.7023470
  78.0574820  81.4722240  29.5710360  78.6748820  82.1473320  29.2894810
  77.1967940  81.8810220  29.4797860  73.3507160  80.6622100  18.4517210
  72.9735140  81.1509200  17.7202110  73.6080230  81.3347380  19.0823740
  88.9752410  82.9361650  27.4865000  88.2915930  83.6060760  27.4781670
  89.5146700  83.1342300  26.7209860  90.4276550  72.7641310  25.6146730
  89.4801460  72.7980290  25.7462160  90.7526540  73.5780260  25.9996090
  80.9596090  69.0638490  23.9102720  81.2671070  68.5085380  23.1938220
  80.0296790  69.1982950  23.7275710  86.5111150  84.7805780  26.2010180
  86.5238310  84.3768070  25.3332440  85.9586370  85.5553070  26.0971610
  87.8056570  81.5022000  21.2900350  87.6952900  80.5596330  21.4149770
  87.8024820  81.8637640  22.1763110  85.9096590  79.6835620  27.5292790
  86.3265380  79.4695730  26.6946250  86.6336410  79.9408410  28.1001410
  83.3476850  77.1287320  20.6462840  82.4206130  77.0624700  20.8751310
  83.5001670  78.0667450  20.5318080  83.3345930  73.4004320  17.6430000
  82.3949600  73.5618280  17.7282460  83.6529190  74.1190000  17.0965990
  89.8558690  78.0822840  27.6209030  89.0277320  78.1515930  27.1459160
  90.4509170  78.6677150  27.1524860  87.3774140  78.6907620  21.1498090
  86.7586560  78.3527170  20.5024390  87.3598590  78.0467380  21.8577280
  86.8200700  74.8692160  28.5663900  86.4071880  75.6945870  28.8203890
  86.0876650  74.2837200  28.3740260  78.9533490  77.6552060  23.4282570
  78.5490490  76.9429310  22.9328470  79.0396610  77.3105300  24.3170610
  79.4215190  81.3419620  25.5921780  79.1243480  80.7365090  24.9129560
  80.3715010  81.3796930  25.4811140  77.6662110  74.4295270  27.2081610
  78.2176700  74.5390610  26.4334860  78.1805620  74.8032870  27.9236840
  87.5100800  84.9151490  29.2544880  87.0331360  85.7223680  29.0617490
  86.8262590  84.2629820  29.4071090  78.5133620  81.0801310  32.2429580
  77.6162150  81.3041280  32.4902980  78.5386490  81.2036250  31.2940980
  85.5538840  77.9294430  18.1570840  85.9932120  77.0916860  18.0108660
  86.2667260  78.5623830  18.2434980  77.3404840  77.9514630  30.8186950
  77.2012610  78.8237430  31.1874350  76.4586200  77.6087440  30.6734890
  83.6634220  82.8690500  22.1252080  84.1030130  83.6114830  21.7107470
  83.6021110  83.1117070  23.0491040  79.1385190  83.8936330  33.0272100
  79.1100620  84.2979280  32.1600530  78.9750160  82.9646690  32.8643700
  89.1355980  69.1837240  16.4711880  88.8228640  69.2764070  17.3710950
  89.8968450  69.7618270  16.4209310  75.6538120  76.5497040  20.9289220
  75.5335720  77.2759130  20.3170490  75.3439010  75.7799950  20.4517130
  91.0900010  84.6763430  34.3236270  91.5659730  85.1546320  35.0025350
  91.7107170  84.6080920  33.5981770  73.2923490  79.7212180  26.7357860
  73.3703910  79.8560950  25.7913580  73.9065170  79.0128070  26.9285980
  74.5371120  81.4212370  23.1464040  74.1299200  81.5626960  22.2917640
  75.4284130  81.1372530  22.9435250  90.4933260  81.8676280  31.4836280
  90.6196320  81.6288160  30.5653460  90.5354640  81.0360820  31.9558360
  84.3550000  85.5704280  30.0531090  84.8694670  85.4812290  30.8553520
  83.5119080  85.9163980  30.3459000  86.3304400  85.8559620  19.4815090
  86.1705540  85.5662560  20.3796920  86.1651110  85.0799750  18.9460320
  78.8092780  85.6358150  21.2586710  78.6335260  84.7193690  21.0454510
  77.9548520  85.9945440  21.4984510  86.0330530  83.3647180  18.0413090
  85.3395690  83.3624470  17.3815370  86.7753390  82.9406500  17.6107260
  85.5980460  84.9909890  22.1161580  86.0537410  84.2099270  22.4300200
  85.9372980  85.7016710  22.6602760  90.3457270  73.9208740  32.4486020
  89.7301540  74.4288410  31.9201480  90.0253690  73.0207070  32.3911960
  73.3483010  80.7626350  29.2752320  73.5114050  80.2931710  28.4571690
  73.8135460  80.2549910  29.9401160  78.1201780  69.8932110  24.3112890
  77.6769930  70.6741650  23.9797410  78.6786770  70.2162000  25.0183830
  82.4071590  72.7600630  29.9148210  81.9450960  72.9683650  30.7268150
  82.0049700  71.9459980  29.6118880  87.4076100  73.9809580  31.0444870
  86.5569690  73.6815330  31.3653940  87.2477890  74.2251590  30.1328690
  84.5025810  75.4811330  33.1443660  84.8279220  74.6475080  32.8045890
  85.2906140  76.0039850  33.2921990  81.2360600  69.5142810  19.1918720
  80.6114780  69.5102680  19.9172030  81.1490720  68.6473770  18.7954690
  80.1577680  70.4379440  26.1702490  80.4550010  71.3442270  26.0894510
  80.7063240  69.9498220  25.5562060  77.9116000  75.0165680  22.0394140
  77.6856920  74.8002850  22.9440760  77.1308530  75.4494140  21.6940110
  85.1413760  75.0229050  20.6384790  84.5422650  75.7464850  20.4548410
  85.6893370  74.9605830  19.8561240  80.3515210  75.9151260  32.7054410
  80.2558810  74.9745990  32.5554810  81.1947190  76.1366330  32.3102480
  83.7478630  73.6592590  22.6688070  84.1408200  73.9764790  21.8556760
  84.1095480  72.7804470  22.7832590  75.4825750  72.3264930  30.8588190
  75.0889140  73.1740140  31.0660970  74.7944150  71.6891300  31.0496830
  82.0570800  72.4099900  33.9284930  81.3669120  72.2172100  34.5631020
  82.8003100  72.6934540  34.4609230  72.7842800  70.2493390  24.8918270
  72.4955850  70.8196250  25.6043250  73.5288560  69.7697840  25.2549500
  72.9713030  74.1913510  16.1020990  72.8887700  75.1344270  16.2435980
  72.6196090  74.0488420  15.2233340  84.3333770  76.2498340  26.7638850
  83.6014890  76.7585150  27.1128950  83.9358110  75.4328320  26.4627630
  80.7711160  72.9252540  25.1691340  80.7747220  72.4842490  24.3195880
  81.6662280  73.2469870  25.2763160  76.6213540  72.8079030  24.1285550
  76.2813590  73.2854260  24.8852600  75.8590860  72.3544150  23.7686650
  80.8331310  73.9264620  18.1598100  80.9544130  73.8851100  19.1083920
  80.4479820  74.7888770  18.0044830  84.7959680  71.7032020  26.1761790
  84.8132420  72.1540670  27.0203640  84.5475260  70.8037660  26.3895230
  79.8452810  76.2365760  17.5581400  79.2769710  75.7884010  16.9317310
  80.5541810  76.5958540  17.0246550  88.2230430  69.1164200  32.0148170
  88.5476200  68.3853860  32.5406150  88.2586940  68.7977840  31.1129160
  74.9221990  80.1377780  31.4348130  74.5376780  79.4971450  32.0331090
  75.2334180  80.8413900  32.0042860  81.0719130  76.9854320  26.9156750
  81.4389260  76.5112890  27.6618090  80.8824190  77.8595890  27.2565090
  73.9359620  71.7298010  23.0450220  73.6506540  71.3653680  23.8828840
  73.8738480  70.9978470  22.4313360  78.8618500  76.0262960  29.2340960
  78.5575570  76.9054940  29.4591320  79.8164960  76.0862750  29.2698400
  77.3900290  80.2323950  19.8307810  76.6162550  79.6921570  19.6706530
  78.1194920  79.7130560  19.4925570  88.1488270  79.2289310  25.6234200
  88.8687390  79.7244600  25.2330310  87.9470090  78.5507200  24.9788070
  83.6098210  70.6227270  19.7663590  82.7962820  70.1240440  19.6908900
  83.4160160  71.4625520  19.3499940  83.5307070  79.2998370  31.5103200
  83.4644380  78.3794040  31.2560790  82.9012210  79.3973810  32.2247840
  86.3246600  74.9946920  18.0625750  87.2126220  75.3064150  17.8877090
  86.2951690  74.1219170  17.6706330  77.4337690  79.9004330  23.4686620
  77.9516360  79.0972590  23.4143510  76.9821710  79.8383470  24.3103450
  82.3207190  81.1670610  18.7413920  82.6622890  81.9112840  18.2457240
  81.4919900  81.4801730  19.1038750  74.9182230  76.8665700  30.3812320
  74.5597170  77.5319550  30.9685660  74.6236790  76.0349250  30.7524940
  78.1195350  77.3249940  33.2651870  77.8195490  77.4707120  32.3679690
  78.8906590  76.7655230  33.1725260  83.4623800  82.1218940  31.2607000
  83.4768340  81.1899900  31.0425910  82.7548900  82.2078700  31.8996770
  88.5960870  76.3058760  17.5305610  88.5124590  76.7372980  16.6802050
  89.3155060  76.7657110  17.9632430  89.6735010  78.7626280  30.6075580
  88.9483200  79.3555060  30.4104970  90.2010470  78.7549820  29.8088950
  89.6248120  83.1601020  20.2587740  88.9824280  82.5056640  20.5331460
  89.2378780  83.5656110  19.4828410  85.2034600  80.4886450  24.1059430
  85.5558420  79.8914580  23.4460800  84.3196930  80.1630680  24.2767680
  81.2897880  81.2484140  21.5129840  81.9769010  81.7953350  21.8937430
  80.5030300  81.7924870  21.5479450  73.4290280  76.8656960  17.0046920
  74.2985130  77.1481760  17.2882840  72.9380600  77.6792830  16.8895730
  80.5925090  78.2530170  21.1255200  81.0487870  79.0635420  21.3515390
  80.2413300  77.9353310  21.9573690  82.8957700  83.7636510  28.3547500
  83.5399920  83.9695890  29.0320920  83.2587140  83.0024910  27.9018350
  76.4936870  68.5967820  21.5977720  76.3651500  68.5885720  22.5462640
  75.6698890  68.9350910  21.2468730  84.1689780  81.7668860  27.0724950
  84.8112010  81.0662020  27.1857120  84.6939130  82.5467300  26.8921840
  88.0145500  82.0517480  16.7964090  87.7883080  81.3347920  17.3888730
  87.6241700  81.8029920  15.9585840  85.9427400  82.5663760  30.2761010
  86.2783640  83.1530450  30.9538930  85.0227740  82.4356470  30.5058800
  73.7961530  86.0784340  17.5708550  74.1559170  86.6773680  16.9165820
  73.6553870  86.6244230  18.3443580  73.4930800  70.3558940  31.0584420
  72.7789320  70.5555860  31.6637030  73.9125840  69.5798510  31.4299220
  87.5961750  79.9689420  18.4578250  87.3083450  80.4302110  19.2456130
  88.3913920  79.5087190  18.7262470  73.7803390  84.3439200  32.0450950
  73.8894510  83.4033940  31.9046340  73.1283950  84.6093950  31.3964680
  81.7715980  82.6155090  33.4449070  81.4512850  81.8964330  33.9894760
  81.0974340  83.2910160  33.5185130  79.8130150  83.4615540  18.3882220
  79.8040250  84.1945230  17.7726730  78.8928510  83.2147120  18.4809180
  75.4136790  78.6830430  19.1328980  74.8064740  79.4229330  19.1424280
  75.8886140  78.7729790  18.3067180  84.9869580  72.8481250  28.8085870
  85.3550400  72.0276460  29.1365440  84.1267780  72.9083140  29.2241520
  88.3531610  71.8038190  19.6173430  87.7244770  71.9083860  18.9031660
  87.8583530  72.0234970  20.4067310  82.7989750  83.5243780  17.0507410
  82.9001730  83.3207770  16.1209390  81.8991490  83.2702060  17.2555190
  80.3215640  74.0824140  21.0331310  79.6131790  74.5510480  21.4744920
  80.6060120  73.4246150  21.6676500  81.9471570  75.5020840  29.0323840
  82.4456820  75.9766660  29.6975690  82.0894520  74.5784360  29.2393870
  84.3531070  70.8074800  22.4727100  84.2298850  70.8260930  21.5236610
  85.3015630  70.8553740  22.5925500  81.4407860  86.0430100  21.7455080
  81.6949360  86.0051490  20.8234450  80.4920340  85.9163430  21.7383330
  78.5250660  72.3909220  18.4082020  79.3741190  72.8279370  18.3422210
  78.1581930  72.7029480  19.2354080  89.1538430  71.7188800  29.8752230
  88.6512030  72.4594200  30.2146040  89.9695090  72.1072800  29.5589020
  87.4460440  76.9621980  23.3213590  86.5050580  76.9772210  23.4961280
  87.7604510  76.1757940  23.7673890  77.4242080  78.6441580  16.8817550
  78.1905350  78.5322940  17.4442980  77.5016770  77.9479550  16.2294320
  76.1188840  76.0766650  17.5650440  76.1992430  75.1294160  17.6767840
  77.0108590  76.4073530  17.6711100  89.4486020  84.1330830  24.9967850
  89.5733440  84.9562000  25.4691660  90.3151580  83.9221560  24.6492000
  76.9203550  86.2262040  24.6684980  77.6566030  85.6777500  24.9393550
  77.3044470  87.0918050  24.5290970  73.8049030  82.2935610  20.5426490
  72.8788810  82.5356750  20.5331900  74.2705460  83.1209870  20.4211240
  75.9261830  85.4108110  33.8570560  76.7274560  85.7320160  34.2705960
  75.4113650  85.0503690  34.5790470  80.0305860  85.3992350  16.4910550
  80.8234470  85.6881180  16.0392340  79.5110210  84.9684520  15.8123030
  84.7626460  81.5187980  33.8045970  84.1564620  81.5419580  33.0641720
  84.4580570  80.7871020  34.3413220  86.1926830  85.2468270  32.4155380
  87.1448580  85.1626290  32.3655620  86.0455050  85.9109980  33.0889170
  89.0836030  84.6262480  17.9147290  88.7977540  84.2127620  17.1001470
  88.8855580  85.5550190  17.7947810  73.6459640  77.8981570  32.8006610
  74.1498660  77.3188850  33.3722840  72.9067060  78.1821800  33.3382980
  80.5483260  80.6195760  16.3552900  80.4433900  80.0048110  17.0814280
  80.3807480  80.0961650  15.5715910  80.6997580  79.3052560  32.3342130
  79.9343250  79.8737560  32.2496800  80.8813540  79.0128770  31.4410360
  83.7885990  79.6815790  16.9594890  83.2396090  80.1285090  17.6037630
  84.4105250  79.1765040  17.4832560  87.8420930  81.0357890  32.8917150
  88.5830400  81.3733650  32.3884610  87.0793610  81.2049950  32.3386920
  75.6782720  76.0411160  33.6956680  75.7188060  75.7425030  34.6041910
  76.5328220  76.4418770  33.5364200  79.4561110  78.6406710  18.8560190
  79.8777530  78.4746580  19.6991580  79.5811950  77.8306940  18.3615330
  77.6188530  74.6203260  31.6631170  77.0884990  74.1294210  31.0354510
  78.2876600  75.0487460  31.1289100  81.9688750  77.6644320  16.1037290
  82.4894410  76.9493340  15.7378440  82.6157150  78.3030190  16.4037800
  86.5166590  79.0872720  31.4272360  86.9307610  79.2417800  32.2762780
  85.5817590  79.2127940  31.5898140  86.9888760  76.4268880  33.4311510
  87.5709530  75.6721200  33.3431990  87.1650530  76.9576320  32.6542990
  78.1060830  71.5865630  31.7428460  78.0117700  70.9686380  31.0179330
  77.5258220  72.3131920  31.5158370  80.8722270  70.1438870  28.7755850
  80.4239570  70.1663130  27.9301400  80.2387470  69.7457890  29.3726150
  81.2781820  79.0393200  29.3968290  81.6969930  79.8825930  29.2244530
  80.3590450  79.1765240  29.1675070  83.6145720  76.7709380  30.7806130
  83.7341930  76.1750520  31.5200970  84.4739720  76.8079070  30.3607430
  85.9533620  77.3246570  29.3568640  85.4268840  77.8489190  28.7533780
  86.2964960  77.9573960  29.9878370  78.3520010  74.7139940  15.8018350
  78.1509070  73.8507300  16.1631690  78.1812060  74.6273300  14.8639950
  79.1289240  85.3446210  30.5126020  78.5910330  86.0692270  30.1934720
  79.3823200  84.8676550  29.7223360  80.3814490  73.3130730  32.0381950
  80.9714180  73.0046580  32.7259770  79.5634730  72.8410480  32.1941850
  85.2007920  72.9296540  32.2714970  84.5123440  72.2678080  32.2064960
  85.9213940  72.4834810  32.7163430  85.8308320  69.5248170  18.3305230
  86.1110610  68.6816070  18.6864650  85.0574050  69.7571280  18.8443980
  77.1502810  71.8140560  15.7896230  77.4528710  71.8207990  14.8815380
  77.8897400  71.4638420  16.2863890  81.9851450  86.5797420  30.7712670
  81.9110150  87.4832560  31.0785040  81.0830290  86.2609320  30.7434740
  80.3687740  70.7575180  16.7752430  80.0209740  70.0799170  16.1954880
  80.5700510  70.2964690  17.5895820  82.5336780  85.7455930  18.3939030
  83.4287570  86.0840900  18.4157790  82.5654410  85.0235340  17.7663310
  76.1732940  81.1182980  16.6226030  76.6107810  81.6612650  17.2783610
  76.6580670  80.2929930  16.6322370  73.3878740  83.9072010  24.0746290
  73.7181750  83.0393070  23.8424930  73.8169740  84.1130530  24.9051250
  77.9840660  82.2381020  21.7348260  77.6836200  82.1145990  22.6352170
  77.8778150  81.3789610  21.3263990  73.8768950  84.7742600  26.8127920
  73.4399940  84.9543400  27.6452070  74.4446630  85.5317220  26.6709640
  89.5131130  84.2759600  31.1005230  88.9133120  84.3352160  30.3569150
  89.6425030  83.3364580  31.2302080  90.7532580  82.0177420  16.4374940
  89.9225540  82.0854070  16.9082170  90.9304410  82.9081540  16.1341800
  90.2089040  78.7624900  18.9409140  90.9707950  79.3321550  19.0468830
  90.2243410  78.1952100  19.7117450  73.7093380  77.2862830  23.1716800
  73.0542220  77.0174470  22.5276500  74.5471330  77.1767310  22.7218780
  91.2149010  79.6175000  23.7851070  91.5857840  78.8342320  23.3787040
  91.8550940  80.3064100  23.6068370  88.1982770  81.0011580  29.1981390
  87.3842610  81.4308740  29.4607180  88.6056970  81.6129990  28.5850440
  90.2608210  79.0559270  16.0981660  90.5357050  79.9638150  15.9700880
  90.0718950  78.9921800  17.0343650  86.6583820  72.0804120  17.3935290
  87.0768700  71.8935100  16.5531950  86.3519880  71.2283170  17.7038220
  90.1573550  76.9928260  21.0911090  89.7817150  76.2256190  20.6592380
  89.4276670  77.3750960  21.5786020  74.7469310  77.6715400  27.7120140
  75.1142350  77.5842800  28.5916160  74.1780130  76.9081950  27.6127000
  89.5473170  76.1399780  30.7250610  89.3159260  75.9112530  29.8248560
  89.8077720  77.0599330  30.6795500  74.2985310  74.5824490  31.6178560
  73.4041360  74.5491250  31.9572270  74.8382860  74.7811280  32.3829810
  87.9861240  71.3656210  33.5030310  88.8631420  71.3739610  33.8864310
  87.9982080  70.6287050  32.8922660  72.9231460  74.4961760  19.1142130
  72.0195540  74.7591960  18.9393790  73.4072080  74.7672930  18.3342090
  89.4324510  75.2185750  24.3918330  89.9561990  74.7248400  23.7608500
  90.0183930  75.3536110  25.1365900  89.6114230  75.3025620  27.9137880
  88.6616940  75.2689160  28.0282870  89.7927240  76.2125730  27.6787650
  75.4658670  73.5527300  17.0236510  76.1750370  73.1310520  16.5383790
  74.7498610  73.6202530  16.3919860  75.1132830  69.6066630  16.0639160
  75.8360960  70.1475570  16.3820380  75.3857350  69.3330050  15.1880700
  88.9224480  74.4759100  20.3310740  89.4183600  74.2429970  21.1159620
  88.7240550  73.6370940  19.9148380  74.8025020  68.8572820  25.9661780
  75.4501210  68.3070200  25.5256940  75.2226860  69.1115970  26.7877590
  90.3511640  73.1120050  22.8648420  90.2410920  72.9576090  23.8030690
  91.1119230  72.5840990  22.6223830  88.6977360  69.0514180  29.3231420
  89.3349580  69.6648320  29.6890610  88.8452250  69.0874840  28.3780650
  91.2401910  70.9427970  16.1054560  92.1651220  70.8109150  15.8972850
  91.2177700  71.0220790  17.0591010  91.3140400  71.7138630  18.7311270
  90.5191900  71.6483750  19.2604180  91.5183680  72.6489270  18.7196620
  88.2558820  85.7530180  22.7249660  88.8517890  85.4314750  22.0484080
  88.5136970  85.2802000  23.5162930  74.5557020  69.0128490  28.7087100
  74.2071840  69.4692310  29.4745280  74.2244720  68.1185620  28.7909530
  76.1621390  82.1848090  32.8740290  76.1191020  81.8141000  33.7554750
  76.2932400  83.1225660  33.0142110  79.8627420  83.7407680  28.4750010
  79.6218780  84.0082240  27.5880530  80.8030060  83.9113410  28.5300870
  82.0681840  70.2040370  32.2306520  82.0070730  70.7962200  32.9801930
  83.0082220  70.0966330  32.0856780  84.7056400  69.8610430  31.8698810
  85.3196810  70.1789720  31.2079890  85.2505960  69.3759020  32.4894670
  91.1231580  85.7602060  29.2760650  90.6289860  86.1570930  28.5587780
  90.5144870  85.1351270  29.6697930  75.2277660  68.5404690  31.9837870
  75.7760650  68.3592740  31.2203980  75.2932970  67.7498800  32.5194180
  76.0009420  85.1310340  29.9938070  75.4069740  84.9995040  30.7328110
  75.9933260  84.2948480  29.5280170  85.4464440  68.4242570  28.1968100
  84.5724280  68.7577680  27.9941030  85.3375190  67.9515750  29.0219970
  86.3536420  70.6313440  29.5809820  86.0249780  69.8165200  29.2011550
  87.3018720  70.5883250  29.4575510  88.8071030  86.4025480  26.5547390
  88.3474000  87.1541290  26.1805410  88.1783490  85.6831950  26.4962190
  75.6321650  82.4968720  28.9446110  74.9055710  81.8774010  28.8772060
  75.6930800  82.8909330  28.0744190  79.2366750  84.7113720  25.7295520
  79.7531770  84.1001080  25.2043780  79.8864130  85.2142500  26.2206530
  81.9762250  85.6022210  26.5564500  82.2640060  85.3476510  25.6797510
  82.4885470  85.0499570  27.1470070  83.1939260  69.3412410  27.1361010
  82.4111050  69.8157910  27.4157770  82.9002190  68.4367240  27.0274190
  87.7460330  70.0435510  25.1810100  88.1868420  69.9880610  24.3331700
  87.4767920  70.9593520  25.2520280  89.6098900  69.6750750  23.1918920
  89.5487300  68.7311970  23.0449940  90.3890930  69.7830840  23.7372380
  73.9151650  85.8143110  22.1542870  73.7473690  85.1813790  22.8524760
  73.0486160  86.0202510  21.8037060  74.5379670  69.6459890  19.6574730
  75.2959030  69.7588770  19.0838760  74.0756840  70.4829090  19.6118160
  81.0793480  71.7599160  22.6477040  80.2667990  71.3856050  22.3072920
  81.5835120  71.0044240  22.9498230  85.5818460  68.4241610  23.8860110
  86.1847830  68.9961820  24.3608630  84.8411450  68.9881050  23.6634010
  88.7253060  68.8263170  19.1600390  88.9203690  69.7246620  19.4267820
  87.9382930  68.5950250  19.6533340  75.5214350  84.5076340  19.5993010
  74.9961970  84.8884370  18.8954970  75.4458930  85.1327110  20.3202720
  76.9104820  70.1723940  18.1976700  77.4397580  69.3853740  18.0684650
  77.5433140  70.8515130  18.4312230  79.1042660  69.9099080  21.2522090
  78.4745400  69.2086390  21.4192220  78.5647800  70.6703210  21.0355250
  82.0434610  86.5238310  33.9232700  82.9701920  86.2882580  33.9668660
  82.0285040  87.3510310  33.4418730  90.2779670  86.0663880  20.9206950
  90.4531860  85.3801620  20.2767870  89.5801240  86.5910930  20.5283620
  79.2298220  69.1883060  33.6874580  78.9482490  69.6916660  32.9235400
  79.6117920  68.3904810  33.3216710  78.1207320  86.4558720  18.4742260
  78.8526140  86.1718000  17.9266150  78.3800990  86.2172000  19.3641640
  77.2822110  82.5723450  18.4788590  76.6530990  83.0408550  19.0274420
  77.3969940  81.7272670  18.9134780  85.8313680  68.6036640  34.2655050
  85.7179130  68.9231250  35.1606570  86.6483420  69.0049150  33.9692330
  88.6112170  85.7508170  33.7473740  89.4037490  85.2557400  33.5399700
  88.9045320  86.4298310  34.3549350  84.7371830  76.6229110   4.6289790
  84.6565880  75.7083720   4.3581500  84.3236250  77.1196180   3.9229500
  82.8689870  78.4008130   6.5099060  82.0931970  77.9208570   6.7997630
  83.5202800  77.7213780   6.3355220  76.8855700  78.7127940   7.3874820
  76.0540580  78.4576650   7.7871330  77.4936680  78.7838710   8.1232740
  86.8897300  82.8068320   5.2898190  86.4278830  82.0355560   5.6185360
  87.7022850  82.8334390   5.7950640  76.8656960  82.7468030   7.5832840
  77.1685000  81.8565770   7.4043060  77.6100550  83.3038250   7.3555090
  73.2580660  76.2735480   7.0556910  73.8296770  75.5057680   7.0560550
  73.2582200  76.5724240   6.1463520  83.1160610  85.0926330   4.9102180
  82.4972050  85.5483830   4.3396620  83.9712390  85.2477790   4.5091880
  82.3098860  81.0765320   6.5169220  82.2407140  80.1355260   6.3558350
  83.0718720  81.1666730   7.0891790  74.5005530  71.6819840   8.8425840
  74.3208370  70.7845590   9.1228600  74.0985610  72.2291710   9.5172790
  83.3404030  73.8835700   6.7438150  83.7168850  73.0107580   6.6311820
  83.2423540  74.2194400   5.8528590  77.4709040  72.2561330   2.2055590
  77.5775790  73.1565060   2.5124350  76.5601400  72.2079300   1.9150240
  87.1228150  71.3786140   3.6766490  87.9437770  70.8882710   3.7191970
  87.1562230  71.9683800   4.4298330  75.1192200  74.1780340   7.4508180
  75.8002310  74.4418710   8.0695580  74.8040250  73.3381210   7.7846190
  79.3116770  75.2247700   6.5380770  79.8194990  75.7228670   7.1785790
  79.8430010  74.4482900   6.3620130  91.4127700  73.3952890  10.2410120
  90.7079870  73.7834600   9.7225230  91.6785620  74.0903180  10.8431050
  77.5952870  69.8646260  10.8044190  77.5971310  70.3818650   9.9990090
  76.7657180  69.3876440  10.7814120  83.9823960  79.9765570   2.3034090
  83.3641230  80.4415020   1.7396810  84.4947210  80.6693050   2.7203600
  78.8455720  79.5041440   8.9817690  78.5125100  80.1310360   9.6238760
  79.0222400  80.0303320   8.2019360  87.3589630  73.3186520   6.4494030
  86.6545200  73.6071410   7.0297140  87.7201790  74.1286630   6.0893590
  77.2768200  71.5756220   8.8114640  77.6185010  72.4198270   8.5168510
  76.3384010  71.7239960   8.9279980  78.0574820  81.4722240  10.7966870
  78.6748820  82.1473320  10.5151320  77.1967940  81.8810220  10.7054370
  88.9752410  82.9361650   8.7121510  88.2915930  83.6060760   8.7038180
  89.5146700  83.1342300   7.9466370  90.4276550  72.7641310   6.8403240
  89.4801460  72.7980290   6.9718670  90.7526540  73.5780260   7.2252600
  80.9596090  69.0638490   5.1359230  81.2671070  68.5085380   4.4194730
  80.0296790  69.1982950   4.9532220  86.5111150  84.7805780   7.4266690
  86.5238310  84.3768070   6.5588950  85.9586370  85.5553070   7.3228120
  87.8056570  81.5022000   2.5156860  87.6952900  80.5596330   2.6406280
  87.8024820  81.8637640   3.4019620  85.9096590  79.6835620   8.7549300
  86.3265380  79.4695730   7.9202760  86.6336410  79.9408410   9.3257920
  83.3476850  77.1287320   1.8719350  82.4206130  77.0624700   2.1007820
  83.5001670  78.0667450   1.7574590  89.8558690  78.0822840   8.8465540
  89.0277320  78.1515930   8.3715670  90.4509170  78.6677150   8.3781370
  87.3774140  78.6907620   2.3754600  86.7586560  78.3527170   1.7280900
  87.3598590  78.0467380   3.0833790  86.8200700  74.8692160   9.7920410
  86.4071880  75.6945870  10.0460400  86.0876650  74.2837200   9.5996770
  78.9533490  77.6552060   4.6539080  78.5490490  76.9429310   4.1584980
  79.0396610  77.3105300   5.5427120  79.4215190  81.3419620   6.8178290
  79.1243480  80.7365090   6.1386070  80.3715010  81.3796930   6.7067650
  77.6662110  74.4295270   8.4338120  78.2176700  74.5390610   7.6591370
  78.1805620  74.8032870   9.1493350  87.5100800  84.9151490  10.4801390
  87.0331360  85.7223680  10.2874000  86.8262590  84.2629820  10.6327600
  78.5133620  81.0801310  13.4686090  77.6162150  81.3041280  13.7159490
  78.5386490  81.2036250  12.5197490  77.3404840  77.9514630  12.0443460
  77.2012610  78.8237430  12.4130860  76.4586200  77.6087440  11.8991400
  83.6634220  82.8690500   3.3508590  84.1030130  83.6114830   2.9363980
  83.6021110  83.1117070   4.2747550  79.1385190  83.8936330  14.2528610
  79.1100620  84.2979280  13.3857040  78.9750160  82.9646690  14.0900210
  75.6538120  76.5497040   2.1545730  75.5335720  77.2759130   1.5427000
  75.3439010  75.7799950   1.6773640  91.0900010  84.6763430  15.5492780
  91.5659730  85.1546320  16.2281860  91.7107170  84.6080920  14.8238280
  73.2923490  79.7212180   7.9614370  73.3703910  79.8560950   7.0170090
  73.9065170  79.0128070   8.1542490  74.5371120  81.4212370   4.3720550
  74.1299200  81.5626960   3.5174150  75.4284130  81.1372530   4.1691760
  90.4933260  81.8676280  12.7092790  90.6196320  81.6288160  11.7909970
  90.5354640  81.0360820  13.1814870  84.3550000  85.5704280  11.2787600
  84.8694670  85.4812290  12.0810030  83.5119080  85.9163980  11.5715510
  78.8092780  85.6358150   2.4843220  78.6335260  84.7193690   2.2711020
  77.9548520  85.9945440   2.7241020  85.5980460  84.9909890   3.3418090
  86.0537410  84.2099270   3.6556710  85.9372980  85.7016710   3.8859270
  90.3457270  73.9208740  13.6742530  89.7301540  74.4288410  13.1457990
  90.0253690  73.0207070  13.6168470  73.3483010  80.7626350  10.5008830
  73.5114050  80.2931710   9.6828200  73.8135460  80.2549910  11.1657670
  78.1201780  69.8932110   5.5369400  77.6769930  70.6741650   5.2053920
  78.6786770  70.2162000   6.2440340  82.4071590  72.7600630  11.1404720
  81.9450960  72.9683650  11.9524660  82.0049700  71.9459980  10.8375390
  87.4076100  73.9809580  12.2701380  86.5569690  73.6815330  12.5910450
  87.2477890  74.2251590  11.3585200  84.5025810  75.4811330  14.3700170
  84.8279220  74.6475080  14.0302400  85.2906140  76.0039850  14.5178500
  80.1577680  70.4379440   7.3959000  80.4550010  71.3442270   7.3151020
  80.7063240  69.9498220   6.7818570  77.9116000  75.0165680   3.2650650
  77.6856920  74.8002850   4.1697270  77.1308530  75.4494140   2.9196620
  80.3515210  75.9151260  13.9310920  80.2558810  74.9745990  13.7811320
  81.1947190  76.1366330  13.5358990  83.7478630  73.6592590   3.8944580
  84.1408200  73.9764790   3.0813270  84.1095480  72.7804470   4.0089100
  75.4825750  72.3264930  12.0844700  75.0889140  73.1740140  12.2917480
  74.7944150  71.6891300  12.2753340  82.0570800  72.4099900  15.1541440
  81.3669120  72.2172100  15.7887530  82.8003100  72.6934540  15.6865740
  72.7842800  70.2493390   6.1174780  72.4955850  70.8196250   6.8299760
  73.5288560  69.7697840   6.4806010  84.3333770  76.2498340   7.9895360
  83.6014890  76.7585150   8.3385460  83.9358110  75.4328320   7.6884140
  80.7711160  72.9252540   6.3947850  80.7747220  72.4842490   5.5452390
  81.6662280  73.2469870   6.5019670  76.6213540  72.8079030   5.3542060
  76.2813590  73.2854260   6.1109110  75.8590860  72.3544150   4.9943160
  84.7959680  71.7032020   7.4018300  84.8132420  72.1540670   8.2460150
  84.5475260  70.8037660   7.6151740  88.2230430  69.1164200  13.2404680
  88.5476200  68.3853860  13.7662660  88.2586940  68.7977840  12.3385670
  74.9221990  80.1377780  12.6604640  74.5376780  79.4971450  13.2587600
  75.2334180  80.8413900  13.2299370  81.0719130  76.9854320   8.1413260
  81.4389260  76.5112890   8.8874600  80.8824190  77.8595890   8.4821600
  73.9359620  71.7298010   4.2706730  73.6506540  71.3653680   5.1085350
  73.8738480  70.9978470   3.6569870  78.8618500  76.0262960  10.4597470
  78.5575570  76.9054940  10.6847830  79.8164960  76.0862750  10.4954910
  88.1488270  79.2289310   6.8490710  88.8687390  79.7244600   6.4586820
  87.9470090  78.5507200   6.2044580  83.5307070  79.2998370  12.7359710
  83.4644380  78.3794040  12.4817300  82.9012210  79.3973810  13.4504350
  77.4337690  79.9004330   4.6943130  77.9516360  79.0972590   4.6400020
  76.9821710  79.8383470   5.5359960  74.9182230  76.8665700  11.6068830
  74.5597170  77.5319550  12.1942170  74.6236790  76.0349250  11.9781450
  78.1195350  77.3249940  14.4908380  77.8195490  77.4707120  13.5936200
  78.8906590  76.7655230  14.3981770  83.4623800  82.1218940  12.4863510
  83.4768340  81.1899900  12.2682420  82.7548900  82.2078700  13.1253280
  89.6735010  78.7626280  11.8332090  88.9483200  79.3555060  11.6361480
  90.2010470  78.7549820  11.0345460  85.2034600  80.4886450   5.3315940
  85.5558420  79.8914580   4.6717310  84.3196930  80.1630680   5.5024190
  81.2897880  81.2484140   2.7386350  81.9769010  81.7953350   3.1193940
  80.5030300  81.7924870   2.7735960  80.5925090  78.2530170   2.3511710
  81.0487870  79.0635420   2.5771900  80.2413300  77.9353310   3.1830200
  82.8957700  83.7636510   9.5804010  83.5399920  83.9695890  10.2577430
  83.2587140  83.0024910   9.1274860  76.4936870  68.5967820   2.8234230
  76.3651500  68.5885720   3.7719150  75.6698890  68.9350910   2.4725240
  84.1689780  81.7668860   8.2981460  84.8112010  81.0662020   8.4113630
  84.6939130  82.5467300   8.1178350  85.9427400  82.5663760  11.5017520
  86.2783640  83.1530450  12.1795440  85.0227740  82.4356470  11.7315310
  73.4930800  70.3558940  12.2840930  72.7789320  70.5555860  12.8893540
  73.9125840  69.5798510  12.6555730  73.7803390  84.3439200  13.2707460
  73.8894510  83.4033940  13.1302850  73.1283950  84.6093950  12.6221190
  81.7715980  82.6155090  14.6705580  81.4512850  81.8964330  15.2151270
  81.0974340  83.2910160  14.7441640  84.9869580  72.8481250  10.0342380
  85.3550400  72.0276460  10.3621950  84.1267780  72.9083140  10.4498030
  80.3215640  74.0824140   2.2587820  79.6131790  74.5510480   2.7001430
  80.6060120  73.4246150   2.8933010  81.9471570  75.5020840  10.2580350
  82.4456820  75.9766660  10.9232200  82.0894520  74.5784360  10.4650380
  84.3531070  70.8074800   3.6983610  84.2298850  70.8260930   2.7493120
  85.3015630  70.8553740   3.8182010  81.4407860  86.0430100   2.9711590
  81.6949360  86.0051490   2.0490960  80.4920340  85.9163430   2.9639840
  89.1538430  71.7188800  11.1008740  88.6512030  72.4594200  11.4402550
  89.9695090  72.1072800  10.7845530  87.4460440  76.9621980   4.5470100
  86.5050580  76.9772210   4.7217790  87.7604510  76.1757940   4.9930400
  89.4486020  84.1330830   6.2224360  89.5733440  84.9562000   6.6948170
  90.3151580  83.9221560   5.8748510  76.9203550  86.2262040   5.8941490
  77.6566030  85.6777500   6.1650060  77.3044470  87.0918050   5.7547480
  73.8049030  82.2935610   1.7683000  72.8788810  82.5356750   1.7588410
  74.2705460  83.1209870   1.6467750  75.9261830  85.4108110  15.0827070
  76.7274560  85.7320160  15.4962470  75.4113650  85.0503690  15.8046980
  84.7626460  81.5187980  15.0302480  84.1564620  81.5419580  14.2898230
  84.4580570  80.7871020  15.5669730  86.1926830  85.2468270  13.6411890
  87.1448580  85.1626290  13.5912130  86.0455050  85.9109980  14.3145680
  73.6459640  77.8981570  14.0263120  74.1498660  77.3188850  14.5979350
  72.9067060  78.1821800  14.5639490  80.6997580  79.3052560  13.5598640
  79.9343250  79.8737560  13.4753310  80.8813540  79.0128770  12.6666870
  87.8420930  81.0357890  14.1173660  88.5830400  81.3733650  13.6141120
  87.0793610  81.2049950  13.5643430  75.6782720  76.0411160  14.9213190
  75.7188060  75.7425030  15.8298420  76.5328220  76.4418770  14.7620710
  77.6188530  74.6203260  12.8887680  77.0884990  74.1294210  12.2611020
  78.2876600  75.0487460  12.3545610  86.5166590  79.0872720  12.6528870
  86.9307610  79.2417800  13.5019290  85.5817590  79.2127940  12.8154650
  86.9888760  76.4268880  14.6568020  87.5709530  75.6721200  14.5688500
  87.1650530  76.9576320  13.8799500  78.1060830  71.5865630  12.9684970
  78.0117700  70.9686380  12.2435840  77.5258220  72.3131920  12.7414880
  80.8722270  70.1438870  10.0012360  80.4239570  70.1663130   9.1557910
  80.2387470  69.7457890  10.5982660  81.2781820  79.0393200  10.6224800
  81.6969930  79.8825930  10.4501040  80.3590450  79.1765240  10.3931580
  83.6145720  76.7709380  12.0062640  83.7341930  76.1750520  12.7457480
  84.4739720  76.8079070  11.5863940  85.9533620  77.3246570  10.5825150
  85.4268840  77.8489190   9.9790290  86.2964960  77.9573960  11.2134880
  79.1289240  85.3446210  11.7382530  78.5910330  86.0692270  11.4191230
  79.3823200  84.8676550  10.9479870  80.3814490  73.3130730  13.2638460
  80.9714180  73.0046580  13.9516280  79.5634730  72.8410480  13.4198360
  85.2007920  72.9296540  13.4971480  84.5123440  72.2678080  13.4321470
  85.9213940  72.4834810  13.9419940  81.9851450  86.5797420  11.9969180
  81.9110150  87.4832560  12.3041550  81.0830290  86.2609320  11.9691250
  73.3878740  83.9072010   5.3002800  73.7181750  83.0393070   5.0681440
  73.8169740  84.1130530   6.1307760  77.9840660  82.2381020   2.9604770
  77.6836200  82.1145990   3.8608680  77.8778150  81.3789610   2.5520500
  73.8768950  84.7742600   8.0384430  73.4399940  84.9543400   8.8708580
  74.4446630  85.5317220   7.8966150  89.5131130  84.2759600  12.3261740
  88.9133120  84.3352160  11.5825660  89.6425030  83.3364580  12.4558590
  73.7093380  77.2862830   4.3973310  73.0542220  77.0174470   3.7533010
  74.5471330  77.1767310   3.9475290  91.2149010  79.6175000   5.0107580
  91.5857840  78.8342320   4.6043550  91.8550940  80.3064100   4.8324880
  88.1982770  81.0011580  10.4237900  87.3842610  81.4308740  10.6863690
  88.6056970  81.6129990   9.8106950  90.1573550  76.9928260   2.3167600
  89.7817150  76.2256190   1.8848890  89.4276670  77.3750960   2.8042530
  74.7469310  77.6715400   8.9376650  75.1142350  77.5842800   9.8172670
  74.1780130  76.9081950   8.8383510  89.5473170  76.1399780  11.9507120
  89.3159260  75.9112530  11.0505070  89.8077720  77.0599330  11.9052010
  74.2985310  74.5824490  12.8435070  73.4041360  74.5491250  13.1828780
  74.8382860  74.7811280  13.6086320  87.9861240  71.3656210  14.7286820
  88.8631420  71.3739610  15.1120820  87.9982080  70.6287050  14.1179170
  89.4324510  75.2185750   5.6174840  89.9561990  74.7248400   4.9865010
  90.0183930  75.3536110   6.3622410  89.6114230  75.3025620   9.1394390
  88.6616940  75.2689160   9.2539380  89.7927240  76.2125730   8.9044160
  74.8025020  68.8572820   7.1918290  75.4501210  68.3070200   6.7513450
  75.2226860  69.1115970   8.0134100  90.3511640  73.1120050   4.0904930
  90.2410920  72.9576090   5.0287200  91.1119230  72.5840990   3.8480340
  88.6977360  69.0514180  10.5487930  89.3349580  69.6648320  10.9147120
  88.8452250  69.0874840   9.6037160  88.2558820  85.7530180   3.9506170
  88.8517890  85.4314750   3.2740590  88.5136970  85.2802000   4.7419440
  74.5557020  69.0128490   9.9343610  74.2071840  69.4692310  10.7001790
  74.2244720  68.1185620  10.0166040  76.1621390  82.1848090  14.0996800
  76.1191020  81.8141000  14.9811260  76.2932400  83.1225660  14.2398620
  79.8627420  83.7407680   9.7006520  79.6218780  84.0082240   8.8137040
  80.8030060  83.9113410   9.7557380  82.0681840  70.2040370  13.4563030
  82.0070730  70.7962200  14.2058440  83.0082220  70.0966330  13.3113290
  84.7056400  69.8610430  13.0955320  85.3196810  70.1789720  12.4336400
  85.2505960  69.3759020  13.7151180  91.1231580  85.7602060  10.5017160
  90.6289860  86.1570930   9.7844290  90.5144870  85.1351270  10.8954440
  75.2277660  68.5404690  13.2094380  75.7760650  68.3592740  12.4460490
  75.2932970  67.7498800  13.7450690  76.0009420  85.1310340  11.2194580
  75.4069740  84.9995040  11.9584620  75.9933260  84.2948480  10.7536680
  85.4464440  68.4242570   9.4224610  84.5724280  68.7577680   9.2197540
  85.3375190  67.9515750  10.2476480  86.3536420  70.6313440  10.8066330
  86.0249780  69.8165200  10.4268060  87.3018720  70.5883250  10.6832020
  88.8071030  86.4025480   7.7803900  88.3474000  87.1541290   7.4061920
  88.1783490  85.6831950   7.7218700  75.6321650  82.4968720  10.1702620
  74.9055710  81.8774010  10.1028570  75.6930800  82.8909330   9.3000700
  79.2366750  84.7113720   6.9552030  79.7531770  84.1001080   6.4300290
  79.8864130  85.2142500   7.4463040  81.9762250  85.6022210   7.7821010
  82.2640060  85.3476510   6.9054020  82.4885470  85.0499570   8.3726580
  83.1939260  69.3412410   8.3617520  82.4111050  69.8157910   8.6414280
  82.9002190  68.4367240   8.2530700  87.7460330  70.0435510   6.4066610
  88.1868420  69.9880610   5.5588210  87.4767920  70.9593520   6.4776790
  89.6098900  69.6750750   4.4175430  89.5487300  68.7311970   4.2706450
  90.3890930  69.7830840   4.9628890  73.9151650  85.8143110   3.3799380
  73.7473690  85.1813790   4.0781270  73.0486160  86.0202510   3.0293570
  81.0793480  71.7599160   3.8733550  80.2667990  71.3856050   3.5329430
  81.5835120  71.0044240   4.1754740  85.5818460  68.4241610   5.1116620
  86.1847830  68.9961820   5.5865140  84.8411450  68.9881050   4.8890520
  79.1042660  69.9099080   2.4778600  78.4745400  69.2086390   2.6448730
  78.5647800  70.6703210   2.2611760  82.0434610  86.5238310  15.1489210
  82.9701920  86.2882580  15.1925170  82.0285040  87.3510310  14.6675240
  90.2779670  86.0663880   2.1463460  90.4531860  85.3801620   1.5024380
  89.5801240  86.5910930   1.7540130  79.2298220  69.1883060  14.9131090
  78.9482490  69.6916660  14.1491910  79.6117920  68.3904810  14.5473220
  85.8313680  68.6036640  15.4911560  85.7179130  68.9231250  16.3863080
  86.6483420  69.0049150  15.1948840  88.6112170  85.7508170  14.9730250
  89.4037490  85.2557400  14.7656210  88.9045320  86.4298310  15.5805860
  84.7371830  57.8485620  98.5007240  84.6565880  56.9340230  98.2298950
  84.3236250  58.3452690  97.7946950  82.8689870  59.6264640 100.3816510
  82.0931970  59.1465080 100.6715080  83.5202800  58.9470290 100.2072670
  76.8855700  59.9384450 101.2592270  76.0540580  59.6833160 101.6588780
  77.4936680  60.0095220 101.9950190  86.8897300  64.0324830  99.1615640
  86.4278830  63.2612070  99.4902810  87.7022850  64.0590900  99.6668090
  76.8656960  63.9724540 101.4550290  77.1685000  63.0822280 101.2760510
  77.6100550  64.5294760 101.2272540  75.2947650  54.8986340  95.0434660
  74.4064350  55.2402310  94.9414540  75.5788840  54.6986660  94.1515490
  73.2580660  57.4991990 100.9274360  73.8296770  56.7314190 100.9278000
  73.2582200  57.7980750 100.0180970  83.1160610  66.3182840  98.7819630
  82.4972050  66.7740340  98.2114070  83.9712390  66.4734300  98.3809330
  82.3098860  62.3021830 100.3886670  82.2407140  61.3611770 100.2275800
  83.0718720  62.3923240 100.9609240  74.5005530  52.9076350 102.7143290
  74.3208370  52.0102100 102.9946050  74.0985610  53.4548220 103.3890240
  83.3404030  55.1092210 100.6155600  83.7168850  54.2364090 100.5029270
  83.2423540  55.4450910  99.7246040  77.4709040  53.4817840  96.0773040
  77.5775790  54.3821570  96.3841800  76.5601400  53.4335810  95.7867690
  87.1228150  52.6042650  97.5483940  87.9437770  52.1139220  97.5909420
  87.1562230  53.1940310  98.3015780  75.1192200  55.4036850 101.3225630
  75.8002310  55.6675220 101.9413030  74.8040250  54.5637720 101.6563640
  79.3116770  56.4504210 100.4098220  79.8194990  56.9485180 101.0503240
  79.8430010  55.6739410 100.2337580  91.4127700  54.6209400 104.1127570
  90.7079870  55.0091110 103.5942680  91.6785620  55.3159690 104.7148500
  77.5952870  51.0902770 104.6761640  77.5971310  51.6075160 103.8707540
  76.7657180  50.6132950 104.6531570  83.9823960  61.2022080  96.1751540
  83.3641230  61.6671530  95.6114260  84.4947210  61.8949560  96.5921050
  78.8455720  60.7297950 102.8535140  78.5125100  61.3566870 103.4956210
  79.0222400  61.2559830 102.0736810  87.3589630  54.5443030 100.3211480
  86.6545200  54.8327920 100.9014590  87.7201790  55.3543140  99.9611040
  77.2768200  52.8012730 102.6832090  77.6185010  53.6454780 102.3885960
  76.3384010  52.9496470 102.7997430  78.0574820  62.6978750 104.6684320
  78.6748820  63.3729830 104.3868770  77.1967940  63.1066730 104.5771820
  73.3507160  61.8878610  93.5491170  72.9735140  62.3765710  92.8176070
  73.6080230  62.5603890  94.1797700  88.9752410  64.1618160 102.5838960
  88.2915930  64.8317270 102.5755630  89.5146700  64.3598810 101.8183820
  90.4276550  53.9897820 100.7120690  89.4801460  54.0236800 100.8436120
  90.7526540  54.8036770 101.0970050  80.9596090  50.2895000  99.0076680
  81.2671070  49.7341890  98.2912180  80.0296790  50.4239460  98.8249670
  86.5111150  66.0062290 101.2984140  86.5238310  65.6024580 100.4306400
  85.9586370  66.7809580 101.1945570  87.8056570  62.7278510  96.3874310
  87.6952900  61.7852840  96.5123730  87.8024820  63.0894150  97.2737070
  85.9096590  60.9092130 102.6266750  86.3265380  60.6952240 101.7920210
  86.6336410  61.1664920 103.1975370  83.3476850  58.3543830  95.7436800
  82.4206130  58.2881210  95.9725270  83.5001670  59.2923960  95.6292040
  83.3345930  54.6260830  92.7403960  82.3949600  54.7874790  92.8256420
  83.6529190  55.3446510  92.1939950  89.8558690  59.3079350 102.7182990
  89.0277320  59.3772440 102.2433120  90.4509170  59.8933660 102.2498820
  87.3774140  59.9164130  96.2472050  86.7586560  59.5783680  95.5998350
  87.3598590  59.2723890  96.9551240  86.8200700  56.0948670 103.6637860
  86.4071880  56.9202380 103.9177850  86.0876650  55.5093710 103.4714220
  78.9533490  58.8808570  98.5256530  78.5490490  58.1685820  98.0302430
  79.0396610  58.5361810  99.4144570  79.4215190  62.5676130 100.6895740
  79.1243480  61.9621600 100.0103520  80.3715010  62.6053440 100.5785100
  77.6662110  55.6551780 102.3055570  78.2176700  55.7647120 101.5308820
  78.1805620  56.0289380 103.0210800  87.5100800  66.1408000 104.3518840
  87.0331360  66.9480190 104.1591450  86.8262590  65.4886330 104.5045050
  85.5538840  59.1550940  93.2544800  85.9932120  58.3173370  93.1082620
  86.2667260  59.7880340  93.3408940  83.6634220  64.0947010  97.2226040
  84.1030130  64.8371340  96.8081430  83.6021110  64.3373580  98.1465000
  89.1355980  50.4093750  91.5685840  88.8228640  50.5020580  92.4684910
  89.8968450  50.9874780  91.5183270  75.6538120  57.7753550  96.0263180
  75.5335720  58.5015640  95.4144450  75.3439010  57.0056460  95.5491090
  73.2923490  60.9468690 101.8331820  73.3703910  61.0817460 100.8887540
  73.9065170  60.2384580 102.0259940  74.5371120  62.6468880  98.2438000
  74.1299200  62.7883470  97.3891600  75.4284130  62.3629040  98.0409210
  86.3304400  67.0816130  94.5789050  86.1705540  66.7919070  95.4770880
  86.1651110  66.3056260  94.0434280  78.8092780  66.8614660  96.3560670
  78.6335260  65.9450200  96.1428470  77.9548520  67.2201950  96.5958470
  86.0330530  64.5903690  93.1387050  85.3395690  64.5880980  92.4789330
  86.7753390  64.1663010  92.7081220  85.5980460  66.2166400  97.2135540
  86.0537410  65.4355780  97.5274160  85.9372980  66.9273220  97.7576720
  78.1201780  51.1188620  99.4086850  77.6769930  51.8998160  99.0771370
  78.6786770  51.4418510 100.1157790  81.2360600  50.7399320  94.2892680
  80.6114780  50.7359190  95.0145990  81.1490720  49.8730280  93.8928650
  80.1577680  51.6635950 101.2676450  80.4550010  52.5698780 101.1868470
  80.7063240  51.1754730 100.6536020  77.9116000  56.2422190  97.1368100
  77.6856920  56.0259360  98.0414720  77.1308530  56.6750650  96.7914070
  85.1413760  56.2485560  95.7358750  84.5422650  56.9721360  95.5522370
  85.6893370  56.1862340  94.9535200  83.7478630  54.8849100  97.7662030
  84.1408200  55.2021300  96.9530720  84.1095480  54.0060980  97.8806550
  72.7842800  51.4749900  99.9892230  72.4955850  52.0452760 100.7017210
  73.5288560  50.9954350 100.3523460  72.9713030  55.4170020  91.1994950
  72.8887700  56.3600780  91.3409940  72.6196090  55.2744930  90.3207300
  84.3333770  57.4754850 101.8612810  83.6014890  57.9841660 102.2102910
  83.9358110  56.6584830 101.5601590  80.7711160  54.1509050 100.2665300
  80.7747220  53.7099000  99.4169840  81.6662280  54.4726380 100.3737120
  76.6213540  54.0335540  99.2259510  76.2813590  54.5110770  99.9826560
  75.8590860  53.5800660  98.8660610  80.8331310  55.1521130  93.2572060
  80.9544130  55.1107610  94.2057880  80.4479820  56.0145280  93.1018790
  84.7959680  52.9288530 101.2735750  84.8132420  53.3797180 102.1177600
  84.5475260  52.0294170 101.4869190  79.8452810  57.4622270  92.6555360
  79.2769710  57.0140520  92.0291270  80.5541810  57.8215050  92.1220510
  81.0719130  58.2110830 102.0130710  81.4389260  57.7369400 102.7592050
  80.8824190  59.0852400 102.3539050  73.9359620  52.9554520  98.1424180
  73.6506540  52.5910190  98.9802800  73.8738480  52.2234980  97.5287320
  78.8618500  57.2519470 104.3314920  78.5575570  58.1311450 104.5565280
  79.8164960  57.3119260 104.3672360  77.3900290  61.4580460  94.9281770
  76.6162550  60.9178080  94.7680490  78.1194920  60.9387070  94.5899530
  88.1488270  60.4545820 100.7208160  88.8687390  60.9501110 100.3304270
  87.9470090  59.7763710 100.0762030  83.6098210  51.8483780  94.8637550
  82.7962820  51.3496950  94.7882860  83.4160160  52.6882030  94.4473900
  86.3246600  56.2203430  93.1599710  87.2126220  56.5320660  92.9851050
  86.2951690  55.3475680  92.7680290  77.4337690  61.1260840  98.5660580
  77.9516360  60.3229100  98.5117470  76.9821710  61.0639980  99.4077410
  82.3207190  62.3927120  93.8387880  82.6622890  63.1369350  93.3431200
  81.4919900  62.7058240  94.2012710  88.5960870  57.5315270  92.6279570
  88.5124590  57.9629490  91.7776010  89.3155060  57.9913620  93.0606390
  89.6248120  64.3857530  95.3561700  88.9824280  63.7313150  95.6305420
  89.2378780  64.7912620  94.5802370  85.2034600  61.7142960  99.2033390
  85.5558420  61.1171090  98.5434760  84.3196930  61.3887190  99.3741640
  81.2897880  62.4740650  96.6103800  81.9769010  63.0209860  96.9911390
  80.5030300  63.0181380  96.6453410  73.4290280  58.0913470  92.1020880
  74.2985130  58.3738270  92.3856800  72.9380600  58.9049340  91.9869690
  80.5925090  59.4786680  96.2229160  81.0487870  60.2891930  96.4489350
  80.2413300  59.1609820  97.0547650  82.8957700  64.9893020 103.4521460
  83.5399920  65.1952400 104.1294880  83.2587140  64.2281420 102.9992310
  76.4936870  49.8224330  96.6951680  76.3651500  49.8142230  97.6436600
  75.6698890  50.1607420  96.3442690  84.1689780  62.9925370 102.1698910
  84.8112010  62.2918530 102.2831080  84.6939130  63.7723810 101.9895800
  88.0145500  63.2773990  91.8938050  87.7883080  62.5604430  92.4862690
  87.6241700  63.0286430  91.0559800  73.7961530  67.3040850  92.6682510
  74.1559170  67.9030190  92.0139780  73.6553870  67.8500740  93.4417540
  87.5961750  61.1945930  93.5552210  87.3083450  61.6558620  94.3430090
  88.3913920  60.7343700  93.8236430  75.4136790  59.9086940  94.2302940
  74.8064740  60.6485840  94.2398240  75.8886140  59.9986300  93.4041140
  84.9869580  54.0737760 103.9059830  85.3550400  53.2532970 104.2339400
  84.1267780  54.1339650 104.3215480  88.3531610  53.0294700  94.7147390
  87.7244770  53.1340370  94.0005620  87.8583530  53.2491480  95.5041270
  80.3215640  55.3080650  96.1305270  79.6131790  55.7766990  96.5718880
  80.6060120  54.6502660  96.7650460  81.9471570  56.7277350 104.1297800
  82.4456820  57.2023170 104.7949650  82.0894520  55.8040870 104.3367830
  84.3531070  52.0331310  97.5701060  84.2298850  52.0517440  96.6210570
  85.3015630  52.0810250  97.6899460  81.4407860  67.2686610  96.8429040
  81.6949360  67.2308000  95.9208410  80.4920340  67.1419940  96.8357290
  78.5250660  53.6165730  93.5055980  79.3741190  54.0535880  93.4396170
  78.1581930  53.9285990  94.3328040  87.4460440  58.1878490  98.4187550
  86.5050580  58.2028720  98.5935240  87.7604510  57.4014450  98.8647850
  76.1188840  57.3023160  92.6624400  76.1992430  56.3550670  92.7741800
  77.0108590  57.6330040  92.7685060  89.4486020  65.3587340 100.0941810
  89.5733440  66.1818510 100.5665620  90.3151580  65.1478070  99.7465960
  76.9203550  67.4518550  99.7658940  77.6566030  66.9034010 100.0367510
  77.3044470  68.3174560  99.6264930  73.8049030  63.5192120  95.6400450
  72.8788810  63.7613260  95.6305860  74.2705460  64.3466380  95.5185200
  89.0836030  65.8518990  93.0121250  88.7977540  65.4384130  92.1975430
  88.8855580  66.7806700  92.8921770  80.5483260  61.8452270  91.4526860
  80.4433900  61.2304620  92.1788240  80.3807480  61.3218160  90.6689870
  83.7885990  60.9072300  92.0568850  83.2396090  61.3541600  92.7011590
  84.4105250  60.4021550  92.5806520  79.4561110  59.8663220  93.9534150
  79.8777530  59.7003090  94.7965540  79.5811950  59.0563450  93.4589290
  81.9688750  58.8900830  91.2011250  82.4894410  58.1749850  90.8352400
  82.6157150  59.5286700  91.5011760  80.8722270  51.3695380 103.8729810
  80.4239570  51.3919640 103.0275360  80.2387470  50.9714400 104.4700110
  81.2781820  60.2649710 104.4942250  81.6969930  61.1082440 104.3218490
  80.3590450  60.4021750 104.2649030  78.3520010  55.9396450  90.8992310
  78.1509070  55.0763810  91.2605650  78.1812060  55.8529810  89.9613910
  85.8308320  50.7504680  93.4279190  86.1110610  49.9072580  93.7838610
  85.0574050  50.9827790  93.9417940  77.1502810  53.0397070  90.8870190
  77.4528710  53.0464500  89.9789340  77.8897400  52.6894930  91.3837850
  80.3687740  51.9831690  91.8726390  80.0209740  51.3055680  91.2928840
  80.5700510  51.5221200  92.6869780  82.5336780  66.9712440  93.4912990
  83.4287570  67.3097410  93.5131750  82.5654410  66.2491850  92.8637270
  73.3878740  65.1328520  99.1720250  73.7181750  64.2649580  98.9398890
  73.8169740  65.3387040 100.0025210  77.9840660  63.4637530  96.8322220
  77.6836200  63.3402500  97.7326130  77.8778150  62.6046120  96.4237950
  73.8768950  65.9999110 101.9101880  73.4399940  66.1799910 102.7426030
  74.4446630  66.7573730 101.7683600  90.7532580  63.2433930  91.5348900
  89.9225540  63.3110580  92.0056130  90.9304410  64.1338050  91.2315760
  90.2089040  59.9881410  94.0383100  90.9707950  60.5578060  94.1442790
  90.2243410  59.4208610  94.8091410  73.7093380  58.5119340  98.2690760
  73.0542220  58.2430980  97.6250460  74.5471330  58.4023820  97.8192740
  91.2149010  60.8431510  98.8825030  91.5857840  60.0598830  98.4761000
  91.8550940  61.5320610  98.7042330  88.1982770  62.2268090 104.2955350
  87.3842610  62.6565250 104.5581140  88.6056970  62.8386500 103.6824400
  90.2608210  60.2815780  91.1955620  90.5357050  61.1894660  91.0674840
  90.0718950  60.2178310  92.1317610  86.6583820  53.3060630  92.4909250
  87.0768700  53.1191610  91.6505910  86.3519880  52.4539680  92.8012180
  90.1573550  58.2184770  96.1885050  89.7817150  57.4512700  95.7566340
  89.4276670  58.6007470  96.6759980  74.7469310  58.8971910 102.8094100
  75.1142350  58.8099310 103.6890120  74.1780130  58.1338460 102.7100960
  72.9231460  55.7218270  94.2116090  72.0195540  55.9848470  94.0367750
  73.4072080  55.9929440  93.4316050  89.4324510  56.4442260  99.4892290
  89.9561990  55.9504910  98.8582460  90.0183930  56.5792620 100.2339860
  89.6114230  56.5282130 103.0111840  88.6616940  56.4945670 103.1256830
  89.7927240  57.4382240 102.7761610  75.4658670  54.7783810  92.1210470
  76.1750370  54.3567030  91.6357750  74.7498610  54.8459040  91.4893820
  75.1132830  50.8323140  91.1613120  75.8360960  51.3732080  91.4794340
  75.3857350  50.5586560  90.2854660  88.9224480  55.7015610  95.4284700
  89.4183600  55.4686480  96.2133580  88.7240550  54.8627450  95.0122340
  74.8025020  50.0829330 101.0635740  75.4501210  49.5326710 100.6230900
  75.2226860  50.3372480 101.8851550  90.3511640  54.3376560  97.9622380
  90.2410920  54.1832600  98.9004650  91.1119230  53.8097500  97.7197790
  88.6977360  50.2770690 104.4205380  89.3349580  50.8904830 104.7864570
  88.8452250  50.3131350 103.4754610  91.2401910  52.1684480  91.2028520
  92.1651220  52.0365660  90.9946810  91.2177700  52.2477300  92.1564970
  91.3140400  52.9395140  93.8285230  90.5191900  52.8740260  94.3578140
  91.5183680  53.8745780  93.8170580  88.2558820  66.9786690  97.8223620
  88.8517890  66.6571260  97.1458040  88.5136970  66.5058510  98.6136890
  74.5557020  50.2385000 103.8061060  74.2071840  50.6948820 104.5719240
  74.2244720  49.3442130 103.8883490  79.8627420  64.9664190 103.5723970
  79.6218780  65.2338750 102.6854490  80.8030060  65.1369920 103.6274830
  91.1231580  66.9858570 104.3734610  90.6289860  67.3827440 103.6561740
  90.5144870  66.3607780 104.7671890  85.4464440  49.6499080 103.2942060
  84.5724280  49.9834190 103.0914990  85.3375190  49.1772260 104.1193930
  86.3536420  51.8569950 104.6783780  86.0249780  51.0421710 104.2985510
  87.3018720  51.8139760 104.5549470  88.8071030  67.6281990 101.6521350
  88.3474000  68.3797800 101.2779370  88.1783490  66.9088460 101.5936150
  75.6321650  63.7225230 104.0420070  74.9055710  63.1030520 103.9746020
  75.6930800  64.1165840 103.1718150  79.2366750  65.9370230 100.8269480
  79.7531770  65.3257590 100.3017740  79.8864130  66.4399010 101.3180490
  81.9762250  66.8278720 101.6538460  82.2640060  66.5733020 100.7771470
  82.4885470  66.2756080 102.2444030  83.1939260  50.5668920 102.2334970
  82.4111050  51.0414420 102.5131730  82.9002190  49.6623750 102.1248150
  87.7460330  51.2692020 100.2784060  88.1868420  51.2137120  99.4305660
  87.4767920  52.1850030 100.3494240  89.6098900  50.9007260  98.2892880
  89.5487300  49.9568480  98.1423900  90.3890930  51.0087350  98.8346340
  73.9151650  67.0399620  97.2516830  73.7473690  66.4070300  97.9498720
  73.0486160  67.2459020  96.9011020  74.5379670  50.8716400  94.7548690
  75.2959030  50.9845280  94.1812720  74.0756840  51.7085600  94.7092120
  81.0793480  52.9855670  97.7451000  80.2667990  52.6112560  97.4046880
  81.5835120  52.2300750  98.0472190  85.5818460  49.6498120  98.9834070
  86.1847830  50.2218330  99.4582590  84.8411450  50.2137560  98.7607970
  88.7253060  50.0519680  94.2574350  88.9203690  50.9503130  94.5241780
  87.9382930  49.8206760  94.7507300  76.9104820  51.3980450  93.2950660
  77.4397580  50.6110250  93.1658610  77.5433140  52.0771640  93.5286190
  79.1042660  51.1355590  96.3496050  78.4745400  50.4342900  96.5166180
  78.5647800  51.8959720  96.1329210  90.2779670  67.2920390  96.0180910
  90.4531860  66.6058130  95.3741830  89.5801240  67.8167440  95.6257580
  74.5005530  52.9076350  83.9399800  74.3208370  52.0102100  84.2202560
  74.0985610  53.4548220  84.6146750  75.1192200  55.4036850  82.5482140
  75.8002310  55.6675220  83.1669540  74.8040250  54.5637720  82.8820150
  87.3589630  54.5443030  81.5467990  86.6545200  54.8327920  82.1271100
  87.7201790  55.3543140  81.1867550  77.2768200  52.8012730  83.9088600
  77.6185010  53.6454780  83.6142470  76.3384010  52.9496470  84.0253940
  80.9596090  50.2895000  80.2333190  81.2671070  49.7341890  79.5168690
  80.0296790  50.4239460  80.0506180  89.8558690  59.3079350  83.9439500
  89.0277320  59.3772440  83.4689630  90.4509170  59.8933660  83.4755330
  86.8200700  56.0948670  84.8894370  86.4071880  56.9202380  85.1434360
  86.0876650  55.5093710  84.6970730  77.6662110  55.6551780  83.5312080
  78.2176700  55.7647120  82.7565330  78.1805620  56.0289380  84.2467310
  91.0900010  65.9019940  90.6466740  91.5659730  66.3802830  91.3255820
  91.7107170  65.8337430  89.9212240  90.4933260  63.0932790  87.8066750
  90.6196320  62.8544670  86.8883930  90.5354640  62.2617330  88.2788830
  82.4071590  53.9857140  86.2378680  81.9450960  54.1940160  87.0498620
  82.0049700  53.1716490  85.9349350  87.4076100  55.2066090  87.3675340
  86.5569690  54.9071840  87.6884410  87.2477890  55.4508100  86.4559160
  84.5025810  56.7067840  89.4674130  84.8279220  55.8731590  89.1276360
  85.2906140  57.2296360  89.6152460  80.3515210  57.1407770  89.0284880
  80.2558810  56.2002500  88.8785280  81.1947190  57.3622840  88.6332950
  75.4825750  53.5521440  87.1818660  75.0889140  54.3996650  87.3891440
  74.7944150  52.9147810  87.3727300  82.0570800  53.6356410  90.2515400
  81.3669120  53.4428610  90.8861490  82.8003100  53.9191050  90.7839700
  84.3333770  57.4754850  83.0869320  83.6014890  57.9841660  83.4359420
  83.9358110  56.6584830  82.7858100  80.8331310  55.1521130  74.4828570
  80.9544130  55.1107610  75.4314390  80.4479820  56.0145280  74.3275300
  84.7959680  52.9288530  82.4992260  84.8132420  53.3797180  83.3434110
  84.5475260  52.0294170  82.7125700  81.0719130  58.2110830  83.2387220
  81.4389260  57.7369400  83.9848560  80.8824190  59.0852400  83.5795560
  78.8618500  57.2519470  85.5571430  78.5575570  58.1311450  85.7821790
  79.8164960  57.3119260  85.5928870  89.6735010  59.9882790  86.9306050
  88.9483200  60.5811570  86.7335440  90.2010470  59.9806330  86.1319420
  73.4930800  51.5815450  87.3814890  72.7789320  51.7812370  87.9867500
  73.9125840  50.8055020  87.7529690  73.7803390  65.5695710  88.3681420
  73.8894510  64.6290450  88.2276810  73.1283950  65.8350460  87.7195150
  84.9869580  54.0737760  85.1316340  85.3550400  53.2532970  85.4595910
  84.1267780  54.1339650  85.5471990  80.3215640  55.3080650  77.3561780
  79.6131790  55.7766990  77.7975390  80.6060120  54.6502660  77.9906970
  81.9471570  56.7277350  85.3554310  82.4456820  57.2023170  86.0206160
  82.0894520  55.8040870  85.5624340  78.5250660  53.6165730  74.7312490
  79.3741190  54.0535880  74.6652680  78.1581930  53.9285990  75.5584550
  87.4460440  58.1878490  79.6444060  86.5050580  58.2028720  79.8191750
  87.7604510  57.4014450  80.0904360  77.4242080  59.8698090  73.2048020
  78.1905350  59.7579450  73.7673450  77.5016770  59.1736060  72.5524790
  75.9261830  66.6364620  90.1801030  76.7274560  66.9576670  90.5936430
  75.4113650  66.2760200  90.9020940  84.7626460  62.7444490  90.1276440
  84.1564620  62.7676090  89.3872190  84.4580570  62.0127530  90.6643690
  87.8420930  62.2614400  89.2147620  88.5830400  62.5990160  88.7115080
  87.0793610  62.4306460  88.6617390  77.6188530  55.8459770  87.9861640
  77.0884990  55.3550720  87.3584980  78.2876600  56.2743970  87.4519570
  86.5166590  60.3129230  87.7502830  86.9307610  60.4674310  88.5993250
  85.5817590  60.4384450  87.9128610  86.9888760  57.6525390  89.7541980
  87.5709530  56.8977710  89.6662460  87.1650530  58.1832830  88.9773460
  78.1060830  52.8122140  88.0658930  78.0117700  52.1942890  87.3409800
  77.5258220  53.5388430  87.8388840  80.8722270  51.3695380  85.0986320
  80.4239570  51.3919640  84.2531870  80.2387470  50.9714400  85.6956620
  83.6145720  57.9965890  87.1036600  83.7341930  57.4007030  87.8431440
  84.4739720  58.0335580  86.6837900  85.9533620  58.5503080  85.6799110
  85.4268840  59.0745700  85.0764250  86.2964960  59.1830470  86.3108840
  80.3814490  54.5387240  88.3612420  80.9714180  54.2303090  89.0490240
  79.5634730  54.0666990  88.5172320  85.2007920  54.1553050  88.5945440
  84.5123440  53.4934590  88.5295430  85.9213940  53.7091320  89.0393900
  80.3687740  51.9831690  73.0982900  80.0209740  51.3055680  72.5185350
  80.5700510  51.5221200  73.9126290  89.5131130  65.5016110  87.4235700
  88.9133120  65.5608670  86.6799620  89.6425030  64.5621090  87.5532550
  89.5473170  57.3656290  87.0481080  89.3159260  57.1369040  86.1479030
  89.8077720  58.2855840  87.0025970  74.2985310  55.8081000  87.9409030
  73.4041360  55.7747760  88.2802740  74.8382860  56.0067790  88.7060280
  74.8025020  50.0829330  82.2892250  75.4501210  49.5326710  81.8487410
  75.2226860  50.3372480  83.1108060  74.5557020  50.2385000  85.0317570
  74.2071840  50.6948820  85.7975750  74.2244720  49.3442130  85.1140000
  82.0681840  51.4296880  88.5536990  82.0070730  52.0218710  89.3032400
  83.0082220  51.3222840  88.4087250  84.7056400  51.0866940  88.1929280
  85.3196810  51.4046230  87.5310360  85.2505960  50.6015530  88.8125140
  75.2277660  49.7661200  88.3068340  75.7760650  49.5849250  87.5434450
  75.2932970  48.9755310  88.8424650  79.2366750  65.9370230  82.0525990
  79.7531770  65.3257590  81.5274250  79.8864130  66.4399010  82.5437000
  81.0793480  52.9855670  78.9707510  80.2667990  52.6112560  78.6303390
  81.5835120  52.2300750  79.2728700  90.2779670  67.2920390  77.2437420
  90.4531860  66.6058130  76.5998340  89.5801240  67.8167440  76.8514090
  79.2298220  50.4139570  90.0105050  78.9482490  50.9173170  89.2465870
  79.6117920  49.6161320  89.6447180  78.1207320  67.6815230  74.7972730
  78.8526140  67.3974510  74.2496620  78.3800990  67.4428510  75.6872110
  85.8313680  49.8293150  90.5885520  85.7179130  50.1487760  91.4837040
  86.6483420  50.2305660  90.2922800  88.6112170  66.9764680  90.0704210
  89.4037490  66.4813910  89.8630170  88.9045320  67.6554820  90.6779820
  75.2947650  54.8986340  57.4947680  74.4064350  55.2402310  57.3927560
  75.5788840  54.6986660  56.6028510  77.4709040  53.4817840  58.5286060
  77.5775790  54.3821570  58.8354820  76.5601400  53.4335810  58.2380710
  75.6538120  57.7753550  58.4776200  75.5335720  58.5015640  57.8657470
  75.3439010  57.0056460  58.0004110  78.1201780  51.1188620  61.8599870
  77.6769930  51.8998160  61.5284390  78.6786770  51.4418510  62.5670810
  81.2360600  50.7399320  56.7405700  80.6114780  50.7359190  57.4659010
  81.1490720  49.8730280  56.3441670  72.9713030  55.4170020  53.6507970
  72.8887700  56.3600780  53.7922960  72.6196090  55.2744930  52.7720320
  76.6213540  54.0335540  61.6772530  76.2813590  54.5110770  62.4339580
  75.8590860  53.5800660  61.3173630  79.8452810  57.4622270  55.1068380
  79.2769710  57.0140520  54.4804290  80.5541810  57.8215050  54.5733530
  73.9359620  52.9554520  60.5937200  73.6506540  52.5910190  61.4315820
  73.8738480  52.2234980  59.9800340  73.4290280  58.0913470  54.5533900
  74.2985130  58.3738270  54.8369820  72.9380600  58.9049340  54.4382710
  76.4936870  49.8224330  59.1464700  76.3651500  49.8142230  60.0949620
  75.6698890  50.1607420  58.7955710  75.4136790  59.9086940  56.6815960
  74.8064740  60.6485840  56.6911260  75.8886140  59.9986300  55.8554160
  78.5250660  53.6165730  55.9569000  79.3741190  54.0535880  55.8909190
  78.1581930  53.9285990  56.7841060  76.1188840  57.3023160  55.1137420
  76.1992430  56.3550670  55.2254820  77.0108590  57.6330040  55.2198080
  78.3520010  55.9396450  53.3505330  78.1509070  55.0763810  53.7118670
  78.1812060  55.8529810  52.4126930  85.8308320  50.7504680  55.8792210
  86.1110610  49.9072580  56.2351630  85.0574050  50.9827790  56.3930960
  77.1502810  53.0397070  53.3383210  77.4528710  53.0464500  52.4302360
  77.8897400  52.6894930  53.8350870  80.3687740  51.9831690  54.3239410
  80.0209740  51.3055680  53.7441860  80.5700510  51.5221200  55.1382800
  72.9231460  55.7218270  56.6629110  72.0195540  55.9848470  56.4880770
  73.4072080  55.9929440  55.8829070  75.4658670  54.7783810  54.5723490
  76.1750370  54.3567030  54.0870770  74.7498610  54.8459040  53.9406840
  75.1132830  50.8323140  53.6126140  75.8360960  51.3732080  53.9307360
  75.3857350  50.5586560  52.7367680  74.8025020  50.0829330  63.5148760
  75.4501210  49.5326710  63.0743920  75.2226860  50.3372480  64.3364570
  89.6098900  50.9007260  60.7405900  89.5487300  49.9568480  60.5936920
  90.3890930  51.0087350  61.2859360  74.5379670  50.8716400  57.2061710
  75.2959030  50.9845280  56.6325740  74.0756840  51.7085600  57.1605140
  88.7253060  50.0519680  56.7087370  88.9203690  50.9503130  56.9754800
  87.9382930  49.8206760  57.2020320  76.9104820  51.3980450  55.7463680
  77.4397580  50.6110250  55.6171630  77.5433140  52.0771640  55.9799210
  79.1042660  51.1355590  58.8009070  78.4745400  50.4342900  58.9679200
  78.5647800  51.8959720  58.5842230  82.0434610  67.7494820  71.4719680
  82.9701920  67.5139090  71.5155640  82.0285040  68.5766820  70.9905710
  88.6112170  66.9764680  71.2960720  89.4037490  66.4813910  71.0886680
  88.9045320  67.6554820  71.9036330  84.7371830  57.8485620  42.1776770
  84.6565880  56.9340230  41.9068480  84.3236250  58.3452690  41.4716480
  82.8689870  59.6264640  44.0586040  82.0931970  59.1465080  44.3484610
  83.5202800  58.9470290  43.8842200  76.8855700  59.9384450  44.9361800
  76.0540580  59.6833160  45.3358310  77.4936680  60.0095220  45.6719720
  86.8897300  64.0324830  42.8385170  86.4278830  63.2612070  43.1672340
  87.7022850  64.0590900  43.3437620  76.8656960  63.9724540  45.1319820
  77.1685000  63.0822280  44.9530040  77.6100550  64.5294760  44.9042070
  75.2947650  54.8986340  38.7204190  74.4064350  55.2402310  38.6184070
  75.5788840  54.6986660  37.8285020  73.2580660  57.4991990  44.6043890
  73.8296770  56.7314190  44.6047530  73.2582200  57.7980750  43.6950500
  83.1160610  66.3182840  42.4589160  82.4972050  66.7740340  41.8883600
  83.9712390  66.4734300  42.0578860  82.3098860  62.3021830  44.0656200
  82.2407140  61.3611770  43.9045330  83.0718720  62.3923240  44.6378770
  74.5005530  52.9076350  46.3912820  74.3208370  52.0102100  46.6715580
  74.0985610  53.4548220  47.0659770  83.3404030  55.1092210  44.2925130
  83.7168850  54.2364090  44.1798800  83.2423540  55.4450910  43.4015570
  77.4709040  53.4817840  39.7542570  77.5775790  54.3821570  40.0611330
  76.5601400  53.4335810  39.4637220  87.1228150  52.6042650  41.2253470
  87.9437770  52.1139220  41.2678950  87.1562230  53.1940310  41.9785310
  75.1192200  55.4036850  44.9995160  75.8002310  55.6675220  45.6182560
  74.8040250  54.5637720  45.3333170  79.3116770  56.4504210  44.0867750
  79.8194990  56.9485180  44.7272770  79.8430010  55.6739410  43.9107110
  77.5952870  51.0902770  48.3531170  77.5971310  51.6075160  47.5477070
  76.7657180  50.6132950  48.3301100  83.9823960  61.2022080  39.8521070
  83.3641230  61.6671530  39.2883790  84.4947210  61.8949560  40.2690580
  87.3589630  54.5443030  43.9981010  86.6545200  54.8327920  44.5784120
  87.7201790  55.3543140  43.6380570  77.2768200  52.8012730  46.3601620
  77.6185010  53.6454780  46.0655490  76.3384010  52.9496470  46.4766960
  73.3507160  61.8878610  37.2260700  72.9735140  62.3765710  36.4945600
  73.6080230  62.5603890  37.8567230  80.9596090  50.2895000  42.6846210
  81.2671070  49.7341890  41.9681710  80.0296790  50.4239460  42.5019200
  87.8056570  62.7278510  40.0643840  87.6952900  61.7852840  40.1893260
  87.8024820  63.0894150  40.9506600  83.3476850  58.3543830  39.4206330
  82.4206130  58.2881210  39.6494800  83.5001670  59.2923960  39.3061570
  83.3345930  54.6260830  36.4173490  82.3949600  54.7874790  36.5025950
  83.6529190  55.3446510  35.8709480  87.3774140  59.9164130  39.9241580
  86.7586560  59.5783680  39.2767880  87.3598590  59.2723890  40.6320770
  78.9533490  58.8808570  42.2026060  78.5490490  58.1685820  41.7071960
  79.0396610  58.5361810  43.0914100  79.4215190  62.5676130  44.3665270
  79.1243480  61.9621600  43.6873050  80.3715010  62.6053440  44.2554630
  77.6662110  55.6551780  45.9825100  78.2176700  55.7647120  45.2078350
  78.1805620  56.0289380  46.6980330  85.5538840  59.1550940  36.9314330
  85.9932120  58.3173370  36.7852150  86.2667260  59.7880340  37.0178470
  77.3404840  59.1771140  49.5930440  77.2012610  60.0493940  49.9617840
  76.4586200  58.8343950  49.4478380  83.6634220  64.0947010  40.8995570
  84.1030130  64.8371340  40.4850960  83.6021110  64.3373580  41.8234530
  89.1355980  50.4093750  35.2455370  88.8228640  50.5020580  36.1454440
  89.8968450  50.9874780  35.1952800  75.6538120  57.7753550  39.7032710
  75.5335720  58.5015640  39.0913980  75.3439010  57.0056460  39.2260620
  73.2923490  60.9468690  45.5101350  73.3703910  61.0817460  44.5657070
  73.9065170  60.2384580  45.7029470  74.5371120  62.6468880  41.9207530
  74.1299200  62.7883470  41.0661130  75.4284130  62.3629040  41.7178740
  86.3304400  67.0816130  38.2558580  86.1705540  66.7919070  39.1540410
  86.1651110  66.3056260  37.7203810  78.8092780  66.8614660  40.0330200
  78.6335260  65.9450200  39.8198000  77.9548520  67.2201950  40.2728000
  86.0330530  64.5903690  36.8156580  85.3395690  64.5880980  36.1558860
  86.7753390  64.1663010  36.3850750  85.5980460  66.2166400  40.8905070
  86.0537410  65.4355780  41.2043690  85.9372980  66.9273220  41.4346250
  73.3483010  61.9882860  48.0495810  73.5114050  61.5188220  47.2315180
  73.8135460  61.4806420  48.7144650  78.1201780  51.1188620  43.0856380
  77.6769930  51.8998160  42.7540900  78.6786770  51.4418510  43.7927320
  82.4071590  53.9857140  48.6891700  81.9450960  54.1940160  49.5011640
  82.0049700  53.1716490  48.3862370  81.2360600  50.7399320  37.9662210
  80.6114780  50.7359190  38.6915520  81.1490720  49.8730280  37.5698180
  80.1577680  51.6635950  44.9445980  80.4550010  52.5698780  44.8638000
  80.7063240  51.1754730  44.3305550  77.9116000  56.2422190  40.8137630
  77.6856920  56.0259360  41.7184250  77.1308530  56.6750650  40.4683600
  85.1413760  56.2485560  39.4128280  84.5422650  56.9721360  39.2291900
  85.6893370  56.1862340  38.6304730  80.3515210  57.1407770  51.4797900
  80.2558810  56.2002500  51.3298300  81.1947190  57.3622840  51.0845970
  83.7478630  54.8849100  41.4431560  84.1408200  55.2021300  40.6300250
  84.1095480  54.0060980  41.5576080  75.4825750  53.5521440  49.6331680
  75.0889140  54.3996650  49.8404460  74.7944150  52.9147810  49.8240320
  82.0570800  53.6356410  52.7028420  81.3669120  53.4428610  53.3374510
  82.8003100  53.9191050  53.2352720  72.7842800  51.4749900  43.6661760
  72.4955850  52.0452760  44.3786740  73.5288560  50.9954350  44.0292990
  72.9713030  55.4170020  34.8764480  72.8887700  56.3600780  35.0179470
  72.6196090  55.2744930  33.9976830  84.3333770  57.4754850  45.5382340
  83.6014890  57.9841660  45.8872440  83.9358110  56.6584830  45.2371120
  80.7711160  54.1509050  43.9434830  80.7747220  53.7099000  43.0939370
  81.6662280  54.4726380  44.0506650  76.6213540  54.0335540  42.9029040
  76.2813590  54.5110770  43.6596090  75.8590860  53.5800660  42.5430140
  80.8331310  55.1521130  36.9341590  80.9544130  55.1107610  37.8827410
  80.4479820  56.0145280  36.7788320  84.7959680  52.9288530  44.9505280
  84.8132420  53.3797180  45.7947130  84.5475260  52.0294170  45.1638720
  79.8452810  57.4622270  36.3324890  79.2769710  57.0140520  35.7060800
  80.5541810  57.8215050  35.7990040  74.9221990  61.3634290  50.2091620
  74.5376780  60.7227960  50.8074580  75.2334180  62.0670410  50.7786350
  81.0719130  58.2110830  45.6900240  81.4389260  57.7369400  46.4361580
  80.8824190  59.0852400  46.0308580  73.9359620  52.9554520  41.8193710
  73.6506540  52.5910190  42.6572330  73.8738480  52.2234980  41.2056850
  78.8618500  57.2519470  48.0084450  78.5575570  58.1311450  48.2334810
  79.8164960  57.3119260  48.0441890  77.3900290  61.4580460  38.6051300
  76.6162550  60.9178080  38.4450020  78.1194920  60.9387070  38.2669060
  83.6098210  51.8483780  38.5407080  82.7962820  51.3496950  38.4652390
  83.4160160  52.6882030  38.1243430  86.3246600  56.2203430  36.8369240
  87.2126220  56.5320660  36.6620580  86.2951690  55.3475680  36.4449820
  77.4337690  61.1260840  42.2430110  77.9516360  60.3229100  42.1887000
  76.9821710  61.0639980  43.0846940  82.3207190  62.3927120  37.5157410
  82.6622890  63.1369350  37.0200730  81.4919900  62.7058240  37.8782240
  74.9182230  58.0922210  49.1555810  74.5597170  58.7576060  49.7429150
  74.6236790  57.2605760  49.5268430  78.1195350  58.5506450  52.0395360
  77.8195490  58.6963630  51.1423180  78.8906590  57.9911740  51.9468750
  88.5960870  57.5315270  36.3049100  88.5124590  57.9629490  35.4545540
  89.3155060  57.9913620  36.7375920  85.2034600  61.7142960  42.8802920
  85.5558420  61.1171090  42.2204290  84.3196930  61.3887190  43.0511170
  81.2897880  62.4740650  40.2873330  81.9769010  63.0209860  40.6680920
  80.5030300  63.0181380  40.3222940  73.4290280  58.0913470  35.7790410
  74.2985130  58.3738270  36.0626330  72.9380600  58.9049340  35.6639220
  80.5925090  59.4786680  39.8998690  81.0487870  60.2891930  40.1258880
  80.2413300  59.1609820  40.7317180  76.4936870  49.8224330  40.3721210
  76.3651500  49.8142230  41.3206130  75.6698890  50.1607420  40.0212220
  88.0145500  63.2773990  35.5707580  87.7883080  62.5604430  36.1632220
  87.6241700  63.0286430  34.7329330  73.7961530  67.3040850  36.3452040
  74.1559170  67.9030190  35.6909310  73.6553870  67.8500740  37.1187070
  73.4930800  51.5815450  49.8327910  72.7789320  51.7812370  50.4380520
  73.9125840  50.8055020  50.2042710  87.5961750  61.1945930  37.2321740
  87.3083450  61.6558620  38.0199620  88.3913920  60.7343700  37.5005960
  73.7803390  65.5695710  50.8194440  73.8894510  64.6290450  50.6789830
  73.1283950  65.8350460  50.1708170  79.8130150  64.6872050  37.1625710
  79.8040250  65.4201740  36.5470220  78.8928510  64.4403630  37.2552670
  75.4136790  59.9086940  37.9072470  74.8064740  60.6485840  37.9167770
  75.8886140  59.9986300  37.0810670  84.9869580  54.0737760  47.5829360
  85.3550400  53.2532970  47.9108930  84.1267780  54.1339650  47.9985010
  88.3531610  53.0294700  38.3916920  87.7244770  53.1340370  37.6775150
  87.8583530  53.2491480  39.1810800  82.7989750  64.7500290  35.8250900
  82.9001730  64.5464280  34.8952880  81.8991490  64.4958570  36.0298680
  80.3215640  55.3080650  39.8074800  79.6131790  55.7766990  40.2488410
  80.6060120  54.6502660  40.4419990  81.9471570  56.7277350  47.8067330
  82.4456820  57.2023170  48.4719180  82.0894520  55.8040870  48.0137360
  84.3531070  52.0331310  41.2470590  84.2298850  52.0517440  40.2980100
  85.3015630  52.0810250  41.3668990  81.4407860  67.2686610  40.5198570
  81.6949360  67.2308000  39.5977940  80.4920340  67.1419940  40.5126820
  78.5250660  53.6165730  37.1825510  79.3741190  54.0535880  37.1165700
  78.1581930  53.9285990  38.0097570  77.4242080  59.8698090  35.6561040
  78.1905350  59.7579450  36.2186470  77.5016770  59.1736060  35.0037810
  76.1188840  57.3023160  36.3393930  76.1992430  56.3550670  36.4511330
  77.0108590  57.6330040  36.4454590  76.9203550  67.4518550  43.4428470
  77.6566030  66.9034010  43.7137040  77.3044470  68.3174560  43.3034460
  73.8049030  63.5192120  39.3169980  72.8788810  63.7613260  39.3075390
  74.2705460  64.3466380  39.1954730  80.0305860  66.6248860  35.2654040
  80.8234470  66.9137690  34.8135830  79.5110210  66.1941030  34.5866520
  89.0836030  65.8518990  36.6890780  88.7977540  65.4384130  35.8744960
  88.8855580  66.7806700  36.5691300  73.6459640  59.1238080  51.5750100
  74.1498660  58.5445360  52.1466330  72.9067060  59.4078310  52.1126470
  80.5483260  61.8452270  35.1296390  80.4433900  61.2304620  35.8557770
  80.3807480  61.3218160  34.3459400  83.7885990  60.9072300  35.7338380
  83.2396090  61.3541600  36.3781120  84.4105250  60.4021550  36.2576050
  75.6782720  57.2667670  52.4700170  75.7188060  56.9681540  53.3785400
  76.5328220  57.6675280  52.3107690  79.4561110  59.8663220  37.6303680
  79.8777530  59.7003090  38.4735070  79.5811950  59.0563450  37.1358820
  77.6188530  55.8459770  50.4374660  77.0884990  55.3550720  49.8098000
  78.2876600  56.2743970  49.9032590  81.9688750  58.8900830  34.8780780
  82.4894410  58.1749850  34.5121930  82.6157150  59.5286700  35.1781290
  78.1060830  52.8122140  50.5171950  78.0117700  52.1942890  49.7922820
  77.5258220  53.5388430  50.2901860  80.8722270  51.3695380  47.5499340
  80.4239570  51.3919640  46.7044890  80.2387470  50.9714400  48.1469640
  83.6145720  57.9965890  49.5549620  83.7341930  57.4007030  50.2944460
  84.4739720  58.0335580  49.1350920  78.3520010  55.9396450  34.5761840
  78.1509070  55.0763810  34.9375180  78.1812060  55.8529810  33.6383440
  80.3814490  54.5387240  50.8125440  80.9714180  54.2303090  51.5003260
  79.5634730  54.0666990  50.9685340  85.2007920  54.1553050  51.0458460
  84.5123440  53.4934590  50.9808450  85.9213940  53.7091320  51.4906920
  85.8308320  50.7504680  37.1048720  86.1110610  49.9072580  37.4608140
  85.0574050  50.9827790  37.6187470  77.1502810  53.0397070  34.5639720
  77.4528710  53.0464500  33.6558870  77.8897400  52.6894930  35.0607380
  80.3687740  51.9831690  35.5495920  80.0209740  51.3055680  34.9698370
  80.5700510  51.5221200  36.3639310  82.5336780  66.9712440  37.1682520
  83.4287570  67.3097410  37.1901280  82.5654410  66.2491850  36.5406800
  76.1732940  62.3439490  35.3969520  76.6107810  62.8869160  36.0527100
  76.6580670  61.5186440  35.4065860  73.3878740  65.1328520  42.8489780
  73.7181750  64.2649580  42.6168420  73.8169740  65.3387040  43.6794740
  77.9840660  63.4637530  40.5091750  77.6836200  63.3402500  41.4095660
  77.8778150  62.6046120  40.1007480  73.8768950  65.9999110  45.5871410
  73.4399940  66.1799910  46.4195560  74.4446630  66.7573730  45.4453130
  90.7532580  63.2433930  35.2118430  89.9225540  63.3110580  35.6825660
  90.9304410  64.1338050  34.9085290  73.7093380  58.5119340  41.9460290
  73.0542220  58.2430980  41.3019990  74.5471330  58.4023820  41.4962270
  90.2608210  60.2815780  34.8725150  90.5357050  61.1894660  34.7444370
  90.0718950  60.2178310  35.8087140  86.6583820  53.3060630  36.1678780
  87.0768700  53.1191610  35.3275440  86.3519880  52.4539680  36.4781710
  74.7469310  58.8971910  46.4863630  75.1142350  58.8099310  47.3659650
  74.1780130  58.1338460  46.3870490  74.2985310  55.8081000  50.3922050
  73.4041360  55.7747760  50.7315760  74.8382860  56.0067790  51.1573300
  72.9231460  55.7218270  37.8885620  72.0195540  55.9848470  37.7137280
  73.4072080  55.9929440  37.1085580  75.4658670  54.7783810  35.7980000
  76.1750370  54.3567030  35.3127280  74.7498610  54.8459040  35.1663350
  75.1132830  50.8323140  34.8382650  75.8360960  51.3732080  35.1563870
  75.3857350  50.5586560  33.9624190  88.9224480  55.7015610  39.1054230
  89.4183600  55.4686480  39.8903110  88.7240550  54.8627450  38.6891870
  74.8025020  50.0829330  44.7405270  75.4501210  49.5326710  44.3000430
  75.2226860  50.3372480  45.5621080  90.3511640  54.3376560  41.6391910
  90.2410920  54.1832600  42.5774180  91.1119230  53.8097500  41.3967320
  91.2401910  52.1684480  34.8798050  92.1651220  52.0365660  34.6716340
  91.2177700  52.2477300  35.8334500  91.3140400  52.9395140  37.5054760
  90.5191900  52.8740260  38.0347670  91.5183680  53.8745780  37.4940110
  74.5557020  50.2385000  47.4830590  74.2071840  50.6948820  48.2488770
  74.2244720  49.3442130  47.5653020  82.0681840  51.4296880  51.0050010
  82.0070730  52.0218710  51.7545420  83.0082220  51.3222840  50.8600270
  75.2277660  49.7661200  50.7581360  75.7760650  49.5849250  49.9947470
  75.2932970  48.9755310  51.2937670  85.4464440  49.6499080  46.9711590
  84.5724280  49.9834190  46.7684520  85.3375190  49.1772260  47.7963460
  75.6321650  63.7225230  47.7189600  74.9055710  63.1030520  47.6515550
  75.6930800  64.1165840  46.8487680  79.2366750  65.9370230  44.5039010
  79.7531770  65.3257590  43.9787270  79.8864130  66.4399010  44.9950020
  83.1939260  50.5668920  45.9104500  82.4111050  51.0414420  46.1901260
  82.9002190  49.6623750  45.8017680  87.7460330  51.2692020  43.9553590
  88.1868420  51.2137120  43.1075190  87.4767920  52.1850030  44.0263770
  89.6098900  50.9007260  41.9662410  89.5487300  49.9568480  41.8193430
  90.3890930  51.0087350  42.5115870  73.9151650  67.0399620  40.9286360
  73.7473690  66.4070300  41.6268250  73.0486160  67.2459020  40.5780550
  74.5379670  50.8716400  38.4318220  75.2959030  50.9845280  37.8582250
  74.0756840  51.7085600  38.3861650  81.0793480  52.9855670  41.4220530
  80.2667990  52.6112560  41.0816410  81.5835120  52.2300750  41.7241720
  85.5818460  49.6498120  42.6603600  86.1847830  50.2218330  43.1352120
  84.8411450  50.2137560  42.4377500  88.7253060  50.0519680  37.9343880
  88.9203690  50.9503130  38.2011310  87.9382930  49.8206760  38.4276830
  75.5214350  65.7332850  38.3736500  74.9961970  66.1140880  37.6698460
  75.4458930  66.3583620  39.0946210  76.9104820  51.3980450  36.9720190
  77.4397580  50.6110250  36.8428140  77.5433140  52.0771640  37.2055720
  79.1042660  51.1355590  40.0265580  78.4745400  50.4342900  40.1935710
  78.5647800  51.8959720  39.8098740  79.2298220  50.4139570  52.4618070
  78.9482490  50.9173170  51.6978890  79.6117920  49.6161320  52.0960200
  78.1207320  67.6815230  37.2485750  78.8526140  67.3974510  36.7009640
  78.3800990  67.4428510  38.1385130  77.2822110  63.7979960  37.2532080
  76.6530990  64.2665060  37.8017910  77.3969940  62.9529180  37.6878270
  85.8313680  49.8293150  53.0398540  85.7179130  50.1487760  53.9350060
  86.6483420  50.2305660  52.7435820  84.7371830  57.8485620  23.4033280
  84.6565880  56.9340230  23.1324990  84.3236250  58.3452690  22.6972990
  82.8689870  59.6264640  25.2842550  82.0931970  59.1465080  25.5741120
  83.5202800  58.9470290  25.1098710  76.8855700  59.9384450  26.1618310
  76.0540580  59.6833160  26.5614820  77.4936680  60.0095220  26.8976230
  86.8897300  64.0324830  24.0641680  86.4278830  63.2612070  24.3928850
  87.7022850  64.0590900  24.5694130  76.8656960  63.9724540  26.3576330
  77.1685000  63.0822280  26.1786550  77.6100550  64.5294760  26.1298580
  75.2947650  54.8986340  19.9460700  74.4064350  55.2402310  19.8440580
  75.5788840  54.6986660  19.0541530  73.2580660  57.4991990  25.8300400
  73.8296770  56.7314190  25.8304040  73.2582200  57.7980750  24.9207010
  83.1160610  66.3182840  23.6845670  82.4972050  66.7740340  23.1140110
  83.9712390  66.4734300  23.2835370  82.3098860  62.3021830  25.2912710
  82.2407140  61.3611770  25.1301840  83.0718720  62.3923240  25.8635280
  74.5005530  52.9076350  27.6169330  74.3208370  52.0102100  27.8972090
  74.0985610  53.4548220  28.2916280  83.3404030  55.1092210  25.5181640
  83.7168850  54.2364090  25.4055310  83.2423540  55.4450910  24.6272080
  77.4709040  53.4817840  20.9799080  77.5775790  54.3821570  21.2867840
  76.5601400  53.4335810  20.6893730  87.1228150  52.6042650  22.4509980
  87.9437770  52.1139220  22.4935460  87.1562230  53.1940310  23.2041820
  75.1192200  55.4036850  26.2251670  75.8002310  55.6675220  26.8439070
  74.8040250  54.5637720  26.5589680  79.3116770  56.4504210  25.3124260
  79.8194990  56.9485180  25.9529280  79.8430010  55.6739410  25.1363620
  91.4127700  54.6209400  29.0153610  90.7079870  55.0091110  28.4968720
  91.6785620  55.3159690  29.6174540  77.5952870  51.0902770  29.5787680
  77.5971310  51.6075160  28.7733580  76.7657180  50.6132950  29.5557610
  83.9823960  61.2022080  21.0777580  83.3641230  61.6671530  20.5140300
  84.4947210  61.8949560  21.4947090  78.8455720  60.7297950  27.7561180
  78.5125100  61.3566870  28.3982250  79.0222400  61.2559830  26.9762850
  87.3589630  54.5443030  25.2237520  86.6545200  54.8327920  25.8040630
  87.7201790  55.3543140  24.8637080  77.2768200  52.8012730  27.5858130
  77.6185010  53.6454780  27.2912000  76.3384010  52.9496470  27.7023470
  78.0574820  62.6978750  29.5710360  78.6748820  63.3729830  29.2894810
  77.1967940  63.1066730  29.4797860  73.3507160  61.8878610  18.4517210
  72.9735140  62.3765710  17.7202110  73.6080230  62.5603890  19.0823740
  88.9752410  64.1618160  27.4865000  88.2915930  64.8317270  27.4781670
  89.5146700  64.3598810  26.7209860  90.4276550  53.9897820  25.6146730
  89.4801460  54.0236800  25.7462160  90.7526540  54.8036770  25.9996090
  80.9596090  50.2895000  23.9102720  81.2671070  49.7341890  23.1938220
  80.0296790  50.4239460  23.7275710  86.5111150  66.0062290  26.2010180
  86.5238310  65.6024580  25.3332440  85.9586370  66.7809580  26.0971610
  87.8056570  62.7278510  21.2900350  87.6952900  61.7852840  21.4149770
  87.8024820  63.0894150  22.1763110  85.9096590  60.9092130  27.5292790
  86.3265380  60.6952240  26.6946250  86.6336410  61.1664920  28.1001410
  83.3476850  58.3543830  20.6462840  82.4206130  58.2881210  20.8751310
  83.5001670  59.2923960  20.5318080  83.3345930  54.6260830  17.6430000
  82.3949600  54.7874790  17.7282460  83.6529190  55.3446510  17.0965990
  89.8558690  59.3079350  27.6209030  89.0277320  59.3772440  27.1459160
  90.4509170  59.8933660  27.1524860  87.3774140  59.9164130  21.1498090
  86.7586560  59.5783680  20.5024390  87.3598590  59.2723890  21.8577280
  86.8200700  56.0948670  28.5663900  86.4071880  56.9202380  28.8203890
  86.0876650  55.5093710  28.3740260  78.9533490  58.8808570  23.4282570
  78.5490490  58.1685820  22.9328470  79.0396610  58.5361810  24.3170610
  79.4215190  62.5676130  25.5921780  79.1243480  61.9621600  24.9129560
  80.3715010  62.6053440  25.4811140  77.6662110  55.6551780  27.2081610
  78.2176700  55.7647120  26.4334860  78.1805620  56.0289380  27.9236840
  87.5100800  66.1408000  29.2544880  87.0331360  66.9480190  29.0617490
  86.8262590  65.4886330  29.4071090  78.5133620  62.3057820  32.2429580
  77.6162150  62.5297790  32.4902980  78.5386490  62.4292760  31.2940980
  85.5538840  59.1550940  18.1570840  85.9932120  58.3173370  18.0108660
  86.2667260  59.7880340  18.2434980  77.3404840  59.1771140  30.8186950
  77.2012610  60.0493940  31.1874350  76.4586200  58.8343950  30.6734890
  83.6634220  64.0947010  22.1252080  84.1030130  64.8371340  21.7107470
  83.6021110  64.3373580  23.0491040  79.1385190  65.1192840  33.0272100
  79.1100620  65.5235790  32.1600530  78.9750160  64.1903200  32.8643700
  89.1355980  50.4093750  16.4711880  88.8228640  50.5020580  17.3710950
  89.8968450  50.9874780  16.4209310  75.6538120  57.7753550  20.9289220
  75.5335720  58.5015640  20.3170490  75.3439010  57.0056460  20.4517130
  91.0900010  65.9019940  34.3236270  91.5659730  66.3802830  35.0025350
  91.7107170  65.8337430  33.5981770  73.2923490  60.9468690  26.7357860
  73.3703910  61.0817460  25.7913580  73.9065170  60.2384580  26.9285980
  74.5371120  62.6468880  23.1464040  74.1299200  62.7883470  22.2917640
  75.4284130  62.3629040  22.9435250  90.4933260  63.0932790  31.4836280
  90.6196320  62.8544670  30.5653460  90.5354640  62.2617330  31.9558360
  84.3550000  66.7960790  30.0531090  84.8694670  66.7068800  30.8553520
  83.5119080  67.1420490  30.3459000  86.3304400  67.0816130  19.4815090
  86.1705540  66.7919070  20.3796920  86.1651110  66.3056260  18.9460320
  78.8092780  66.8614660  21.2586710  78.6335260  65.9450200  21.0454510
  77.9548520  67.2201950  21.4984510  86.0330530  64.5903690  18.0413090
  85.3395690  64.5880980  17.3815370  86.7753390  64.1663010  17.6107260
  85.5980460  66.2166400  22.1161580  86.0537410  65.4355780  22.4300200
  85.9372980  66.9273220  22.6602760  90.3457270  55.1465250  32.4486020
  89.7301540  55.6544920  31.9201480  90.0253690  54.2463580  32.3911960
  73.3483010  61.9882860  29.2752320  73.5114050  61.5188220  28.4571690
  73.8135460  61.4806420  29.9401160  78.1201780  51.1188620  24.3112890
  77.6769930  51.8998160  23.9797410  78.6786770  51.4418510  25.0183830
  82.4071590  53.9857140  29.9148210  81.9450960  54.1940160  30.7268150
  82.0049700  53.1716490  29.6118880  87.4076100  55.2066090  31.0444870
  86.5569690  54.9071840  31.3653940  87.2477890  55.4508100  30.1328690
  84.5025810  56.7067840  33.1443660  84.8279220  55.8731590  32.8045890
  85.2906140  57.2296360  33.2921990  81.2360600  50.7399320  19.1918720
  80.6114780  50.7359190  19.9172030  81.1490720  49.8730280  18.7954690
  80.1577680  51.6635950  26.1702490  80.4550010  52.5698780  26.0894510
  80.7063240  51.1754730  25.5562060  77.9116000  56.2422190  22.0394140
  77.6856920  56.0259360  22.9440760  77.1308530  56.6750650  21.6940110
  85.1413760  56.2485560  20.6384790  84.5422650  56.9721360  20.4548410
  85.6893370  56.1862340  19.8561240  80.3515210  57.1407770  32.7054410
  80.2558810  56.2002500  32.5554810  81.1947190  57.3622840  32.3102480
  83.7478630  54.8849100  22.6688070  84.1408200  55.2021300  21.8556760
  84.1095480  54.0060980  22.7832590  75.4825750  53.5521440  30.8588190
  75.0889140  54.3996650  31.0660970  74.7944150  52.9147810  31.0496830
  82.0570800  53.6356410  33.9284930  81.3669120  53.4428610  34.5631020
  82.8003100  53.9191050  34.4609230  72.7842800  51.4749900  24.8918270
  72.4955850  52.0452760  25.6043250  73.5288560  50.9954350  25.2549500
  72.9713030  55.4170020  16.1020990  72.8887700  56.3600780  16.2435980
  72.6196090  55.2744930  15.2233340  84.3333770  57.4754850  26.7638850
  83.6014890  57.9841660  27.1128950  83.9358110  56.6584830  26.4627630
  80.7711160  54.1509050  25.1691340  80.7747220  53.7099000  24.3195880
  81.6662280  54.4726380  25.2763160  76.6213540  54.0335540  24.1285550
  76.2813590  54.5110770  24.8852600  75.8590860  53.5800660  23.7686650
  80.8331310  55.1521130  18.1598100  80.9544130  55.1107610  19.1083920
  80.4479820  56.0145280  18.0044830  84.7959680  52.9288530  26.1761790
  84.8132420  53.3797180  27.0203640  84.5475260  52.0294170  26.3895230
  79.8452810  57.4622270  17.5581400  79.2769710  57.0140520  16.9317310
  80.5541810  57.8215050  17.0246550  88.2230430  50.3420710  32.0148170
  88.5476200  49.6110370  32.5406150  88.2586940  50.0234350  31.1129160
  74.9221990  61.3634290  31.4348130  74.5376780  60.7227960  32.0331090
  75.2334180  62.0670410  32.0042860  81.0719130  58.2110830  26.9156750
  81.4389260  57.7369400  27.6618090  80.8824190  59.0852400  27.2565090
  73.9359620  52.9554520  23.0450220  73.6506540  52.5910190  23.8828840
  73.8738480  52.2234980  22.4313360  78.8618500  57.2519470  29.2340960
  78.5575570  58.1311450  29.4591320  79.8164960  57.3119260  29.2698400
  77.3900290  61.4580460  19.8307810  76.6162550  60.9178080  19.6706530
  78.1194920  60.9387070  19.4925570  88.1488270  60.4545820  25.6234200
  88.8687390  60.9501110  25.2330310  87.9470090  59.7763710  24.9788070
  83.6098210  51.8483780  19.7663590  82.7962820  51.3496950  19.6908900
  83.4160160  52.6882030  19.3499940  83.5307070  60.5254880  31.5103200
  83.4644380  59.6050550  31.2560790  82.9012210  60.6230320  32.2247840
  86.3246600  56.2203430  18.0625750  87.2126220  56.5320660  17.8877090
  86.2951690  55.3475680  17.6706330  77.4337690  61.1260840  23.4686620
  77.9516360  60.3229100  23.4143510  76.9821710  61.0639980  24.3103450
  82.3207190  62.3927120  18.7413920  82.6622890  63.1369350  18.2457240
  81.4919900  62.7058240  19.1038750  74.9182230  58.0922210  30.3812320
  74.5597170  58.7576060  30.9685660  74.6236790  57.2605760  30.7524940
  78.1195350  58.5506450  33.2651870  77.8195490  58.6963630  32.3679690
  78.8906590  57.9911740  33.1725260  83.4623800  63.3475450  31.2607000
  83.4768340  62.4156410  31.0425910  82.7548900  63.4335210  31.8996770
  88.5960870  57.5315270  17.5305610  88.5124590  57.9629490  16.6802050
  89.3155060  57.9913620  17.9632430  89.6735010  59.9882790  30.6075580
  88.9483200  60.5811570  30.4104970  90.2010470  59.9806330  29.8088950
  89.6248120  64.3857530  20.2587740  88.9824280  63.7313150  20.5331460
  89.2378780  64.7912620  19.4828410  85.2034600  61.7142960  24.1059430
  85.5558420  61.1171090  23.4460800  84.3196930  61.3887190  24.2767680
  81.2897880  62.4740650  21.5129840  81.9769010  63.0209860  21.8937430
  80.5030300  63.0181380  21.5479450  73.4290280  58.0913470  17.0046920
  74.2985130  58.3738270  17.2882840  72.9380600  58.9049340  16.8895730
  80.5925090  59.4786680  21.1255200  81.0487870  60.2891930  21.3515390
  80.2413300  59.1609820  21.9573690  82.8957700  64.9893020  28.3547500
  83.5399920  65.1952400  29.0320920  83.2587140  64.2281420  27.9018350
  76.4936870  49.8224330  21.5977720  76.3651500  49.8142230  22.5462640
  75.6698890  50.1607420  21.2468730  84.1689780  62.9925370  27.0724950
  84.8112010  62.2918530  27.1857120  84.6939130  63.7723810  26.8921840
  88.0145500  63.2773990  16.7964090  87.7883080  62.5604430  17.3888730
  87.6241700  63.0286430  15.9585840  85.9427400  63.7920270  30.2761010
  86.2783640  64.3786960  30.9538930  85.0227740  63.6612980  30.5058800
  73.7961530  67.3040850  17.5708550  74.1559170  67.9030190  16.9165820
  73.6553870  67.8500740  18.3443580  73.4930800  51.5815450  31.0584420
  72.7789320  51.7812370  31.6637030  73.9125840  50.8055020  31.4299220
  87.5961750  61.1945930  18.4578250  87.3083450  61.6558620  19.2456130
  88.3913920  60.7343700  18.7262470  73.7803390  65.5695710  32.0450950
  73.8894510  64.6290450  31.9046340  73.1283950  65.8350460  31.3964680
  81.7715980  63.8411600  33.4449070  81.4512850  63.1220840  33.9894760
  81.0974340  64.5166670  33.5185130  79.8130150  64.6872050  18.3882220
  79.8040250  65.4201740  17.7726730  78.8928510  64.4403630  18.4809180
  75.4136790  59.9086940  19.1328980  74.8064740  60.6485840  19.1424280
  75.8886140  59.9986300  18.3067180  84.9869580  54.0737760  28.8085870
  85.3550400  53.2532970  29.1365440  84.1267780  54.1339650  29.2241520
  88.3531610  53.0294700  19.6173430  87.7244770  53.1340370  18.9031660
  87.8583530  53.2491480  20.4067310  82.7989750  64.7500290  17.0507410
  82.9001730  64.5464280  16.1209390  81.8991490  64.4958570  17.2555190
  80.3215640  55.3080650  21.0331310  79.6131790  55.7766990  21.4744920
  80.6060120  54.6502660  21.6676500  81.9471570  56.7277350  29.0323840
  82.4456820  57.2023170  29.6975690  82.0894520  55.8040870  29.2393870
  84.3531070  52.0331310  22.4727100  84.2298850  52.0517440  21.5236610
  85.3015630  52.0810250  22.5925500  81.4407860  67.2686610  21.7455080
  81.6949360  67.2308000  20.8234450  80.4920340  67.1419940  21.7383330
  78.5250660  53.6165730  18.4082020  79.3741190  54.0535880  18.3422210
  78.1581930  53.9285990  19.2354080  89.1538430  52.9445310  29.8752230
  88.6512030  53.6850710  30.2146040  89.9695090  53.3329310  29.5589020
  87.4460440  58.1878490  23.3213590  86.5050580  58.2028720  23.4961280
  87.7604510  57.4014450  23.7673890  77.4242080  59.8698090  16.8817550
  78.1905350  59.7579450  17.4442980  77.5016770  59.1736060  16.2294320
  76.1188840  57.3023160  17.5650440  76.1992430  56.3550670  17.6767840
  77.0108590  57.6330040  17.6711100  89.4486020  65.3587340  24.9967850
  89.5733440  66.1818510  25.4691660  90.3151580  65.1478070  24.6492000
  76.9203550  67.4518550  24.6684980  77.6566030  66.9034010  24.9393550
  77.3044470  68.3174560  24.5290970  73.8049030  63.5192120  20.5426490
  72.8788810  63.7613260  20.5331900  74.2705460  64.3466380  20.4211240
  75.9261830  66.6364620  33.8570560  76.7274560  66.9576670  34.2705960
  75.4113650  66.2760200  34.5790470  80.0305860  66.6248860  16.4910550
  80.8234470  66.9137690  16.0392340  79.5110210  66.1941030  15.8123030
  84.7626460  62.7444490  33.8045970  84.1564620  62.7676090  33.0641720
  84.4580570  62.0127530  34.3413220  86.1926830  66.4724780  32.4155380
  87.1448580  66.3882800  32.3655620  86.0455050  67.1366490  33.0889170
  89.0836030  65.8518990  17.9147290  88.7977540  65.4384130  17.1001470
  88.8855580  66.7806700  17.7947810  73.6459640  59.1238080  32.8006610
  74.1498660  58.5445360  33.3722840  72.9067060  59.4078310  33.3382980
  80.5483260  61.8452270  16.3552900  80.4433900  61.2304620  17.0814280
  80.3807480  61.3218160  15.5715910  80.6997580  60.5309070  32.3342130
  79.9343250  61.0994070  32.2496800  80.8813540  60.2385280  31.4410360
  83.7885990  60.9072300  16.9594890  83.2396090  61.3541600  17.6037630
  84.4105250  60.4021550  17.4832560  87.8420930  62.2614400  32.8917150
  88.5830400  62.5990160  32.3884610  87.0793610  62.4306460  32.3386920
  75.6782720  57.2667670  33.6956680  75.7188060  56.9681540  34.6041910
  76.5328220  57.6675280  33.5364200  79.4561110  59.8663220  18.8560190
  79.8777530  59.7003090  19.6991580  79.5811950  59.0563450  18.3615330
  77.6188530  55.8459770  31.6631170  77.0884990  55.3550720  31.0354510
  78.2876600  56.2743970  31.1289100  81.9688750  58.8900830  16.1037290
  82.4894410  58.1749850  15.7378440  82.6157150  59.5286700  16.4037800
  86.5166590  60.3129230  31.4272360  86.9307610  60.4674310  32.2762780
  85.5817590  60.4384450  31.5898140  86.9888760  57.6525390  33.4311510
  87.5709530  56.8977710  33.3431990  87.1650530  58.1832830  32.6542990
  78.1060830  52.8122140  31.7428460  78.0117700  52.1942890  31.0179330
  77.5258220  53.5388430  31.5158370  80.8722270  51.3695380  28.7755850
  80.4239570  51.3919640  27.9301400  80.2387470  50.9714400  29.3726150
  81.2781820  60.2649710  29.3968290  81.6969930  61.1082440  29.2244530
  80.3590450  60.4021750  29.1675070  83.6145720  57.9965890  30.7806130
  83.7341930  57.4007030  31.5200970  84.4739720  58.0335580  30.3607430
  85.9533620  58.5503080  29.3568640  85.4268840  59.0745700  28.7533780
  86.2964960  59.1830470  29.9878370  78.3520010  55.9396450  15.8018350
  78.1509070  55.0763810  16.1631690  78.1812060  55.8529810  14.8639950
  79.1289240  66.5702720  30.5126020  78.5910330  67.2948780  30.1934720
  79.3823200  66.0933060  29.7223360  80.3814490  54.5387240  32.0381950
  80.9714180  54.2303090  32.7259770  79.5634730  54.0666990  32.1941850
  85.2007920  54.1553050  32.2714970  84.5123440  53.4934590  32.2064960
  85.9213940  53.7091320  32.7163430  85.8308320  50.7504680  18.3305230
  86.1110610  49.9072580  18.6864650  85.0574050  50.9827790  18.8443980
  77.1502810  53.0397070  15.7896230  77.4528710  53.0464500  14.8815380
  77.8897400  52.6894930  16.2863890  81.9851450  67.8053930  30.7712670
  81.9110150  68.7089070  31.0785040  81.0830290  67.4865830  30.7434740
  80.3687740  51.9831690  16.7752430  80.0209740  51.3055680  16.1954880
  80.5700510  51.5221200  17.5895820  82.5336780  66.9712440  18.3939030
  83.4287570  67.3097410  18.4157790  82.5654410  66.2491850  17.7663310
  76.1732940  62.3439490  16.6226030  76.6107810  62.8869160  17.2783610
  76.6580670  61.5186440  16.6322370  73.3878740  65.1328520  24.0746290
  73.7181750  64.2649580  23.8424930  73.8169740  65.3387040  24.9051250
  77.9840660  63.4637530  21.7348260  77.6836200  63.3402500  22.6352170
  77.8778150  62.6046120  21.3263990  73.8768950  65.9999110  26.8127920
  73.4399940  66.1799910  27.6452070  74.4446630  66.7573730  26.6709640
  89.5131130  65.5016110  31.1005230  88.9133120  65.5608670  30.3569150
  89.6425030  64.5621090  31.2302080  90.7532580  63.2433930  16.4374940
  89.9225540  63.3110580  16.9082170  90.9304410  64.1338050  16.1341800
  90.2089040  59.9881410  18.9409140  90.9707950  60.5578060  19.0468830
  90.2243410  59.4208610  19.7117450  73.7093380  58.5119340  23.1716800
  73.0542220  58.2430980  22.5276500  74.5471330  58.4023820  22.7218780
  91.2149010  60.8431510  23.7851070  91.5857840  60.0598830  23.3787040
  91.8550940  61.5320610  23.6068370  88.1982770  62.2268090  29.1981390
  87.3842610  62.6565250  29.4607180  88.6056970  62.8386500  28.5850440
  90.2608210  60.2815780  16.0981660  90.5357050  61.1894660  15.9700880
  90.0718950  60.2178310  17.0343650  86.6583820  53.3060630  17.3935290
  87.0768700  53.1191610  16.5531950  86.3519880  52.4539680  17.7038220
  90.1573550  58.2184770  21.0911090  89.7817150  57.4512700  20.6592380
  89.4276670  58.6007470  21.5786020  74.7469310  58.8971910  27.7120140
  75.1142350  58.8099310  28.5916160  74.1780130  58.1338460  27.6127000
  89.5473170  57.3656290  30.7250610  89.3159260  57.1369040  29.8248560
  89.8077720  58.2855840  30.6795500  74.2985310  55.8081000  31.6178560
  73.4041360  55.7747760  31.9572270  74.8382860  56.0067790  32.3829810
  87.9861240  52.5912720  33.5030310  88.8631420  52.5996120  33.8864310
  87.9982080  51.8543560  32.8922660  72.9231460  55.7218270  19.1142130
  72.0195540  55.9848470  18.9393790  73.4072080  55.9929440  18.3342090
  89.4324510  56.4442260  24.3918330  89.9561990  55.9504910  23.7608500
  90.0183930  56.5792620  25.1365900  89.6114230  56.5282130  27.9137880
  88.6616940  56.4945670  28.0282870  89.7927240  57.4382240  27.6787650
  75.4658670  54.7783810  17.0236510  76.1750370  54.3567030  16.5383790
  74.7498610  54.8459040  16.3919860  75.1132830  50.8323140  16.0639160
  75.8360960  51.3732080  16.3820380  75.3857350  50.5586560  15.1880700
  88.9224480  55.7015610  20.3310740  89.4183600  55.4686480  21.1159620
  88.7240550  54.8627450  19.9148380  74.8025020  50.0829330  25.9661780
  75.4501210  49.5326710  25.5256940  75.2226860  50.3372480  26.7877590
  90.3511640  54.3376560  22.8648420  90.2410920  54.1832600  23.8030690
  91.1119230  53.8097500  22.6223830  88.6977360  50.2770690  29.3231420
  89.3349580  50.8904830  29.6890610  88.8452250  50.3131350  28.3780650
  91.2401910  52.1684480  16.1054560  92.1651220  52.0365660  15.8972850
  91.2177700  52.2477300  17.0591010  91.3140400  52.9395140  18.7311270
  90.5191900  52.8740260  19.2604180  91.5183680  53.8745780  18.7196620
  88.2558820  66.9786690  22.7249660  88.8517890  66.6571260  22.0484080
  88.5136970  66.5058510  23.5162930  74.5557020  50.2385000  28.7087100
  74.2071840  50.6948820  29.4745280  74.2244720  49.3442130  28.7909530
  76.1621390  63.4104600  32.8740290  76.1191020  63.0397510  33.7554750
  76.2932400  64.3482170  33.0142110  79.8627420  64.9664190  28.4750010
  79.6218780  65.2338750  27.5880530  80.8030060  65.1369920  28.5300870
  82.0681840  51.4296880  32.2306520  82.0070730  52.0218710  32.9801930
  83.0082220  51.3222840  32.0856780  84.7056400  51.0866940  31.8698810
  85.3196810  51.4046230  31.2079890  85.2505960  50.6015530  32.4894670
  91.1231580  66.9858570  29.2760650  90.6289860  67.3827440  28.5587780
  90.5144870  66.3607780  29.6697930  75.2277660  49.7661200  31.9837870
  75.7760650  49.5849250  31.2203980  75.2932970  48.9755310  32.5194180
  76.0009420  66.3566850  29.9938070  75.4069740  66.2251550  30.7328110
  75.9933260  65.5204990  29.5280170  85.4464440  49.6499080  28.1968100
  84.5724280  49.9834190  27.9941030  85.3375190  49.1772260  29.0219970
  86.3536420  51.8569950  29.5809820  86.0249780  51.0421710  29.2011550
  87.3018720  51.8139760  29.4575510  88.8071030  67.6281990  26.5547390
  88.3474000  68.3797800  26.1805410  88.1783490  66.9088460  26.4962190
  75.6321650  63.7225230  28.9446110  74.9055710  63.1030520  28.8772060
  75.6930800  64.1165840  28.0744190  79.2366750  65.9370230  25.7295520
  79.7531770  65.3257590  25.2043780  79.8864130  66.4399010  26.2206530
  81.9762250  66.8278720  26.5564500  82.2640060  66.5733020  25.6797510
  82.4885470  66.2756080  27.1470070  83.1939260  50.5668920  27.1361010
  82.4111050  51.0414420  27.4157770  82.9002190  49.6623750  27.0274190
  87.7460330  51.2692020  25.1810100  88.1868420  51.2137120  24.3331700
  87.4767920  52.1850030  25.2520280  89.6098900  50.9007260  23.1918920
  89.5487300  49.9568480  23.0449940  90.3890930  51.0087350  23.7372380
  73.9151650  67.0399620  22.1542870  73.7473690  66.4070300  22.8524760
  73.0486160  67.2459020  21.8037060  74.5379670  50.8716400  19.6574730
  75.2959030  50.9845280  19.0838760  74.0756840  51.7085600  19.6118160
  81.0793480  52.9855670  22.6477040  80.2667990  52.6112560  22.3072920
  81.5835120  52.2300750  22.9498230  85.5818460  49.6498120  23.8860110
  86.1847830  50.2218330  24.3608630  84.8411450  50.2137560  23.6634010
  88.7253060  50.0519680  19.1600390  88.9203690  50.9503130  19.4267820
  87.9382930  49.8206760  19.6533340  75.5214350  65.7332850  19.5993010
  74.9961970  66.1140880  18.8954970  75.4458930  66.3583620  20.3202720
  76.9104820  51.3980450  18.1976700  77.4397580  50.6110250  18.0684650
  77.5433140  52.0771640  18.4312230  79.1042660  51.1355590  21.2522090
  78.4745400  50.4342900  21.4192220  78.5647800  51.8959720  21.0355250
  82.0434610  67.7494820  33.9232700  82.9701920  67.5139090  33.9668660
  82.0285040  68.5766820  33.4418730  90.2779670  67.2920390  20.9206950
  90.4531860  66.6058130  20.2767870  89.5801240  67.8167440  20.5283620
  79.2298220  50.4139570  33.6874580  78.9482490  50.9173170  32.9235400
  79.6117920  49.6161320  33.3216710  78.1207320  67.6815230  18.4742260
  78.8526140  67.3974510  17.9266150  78.3800990  67.4428510  19.3641640
  77.2822110  63.7979960  18.4788590  76.6530990  64.2665060  19.0274420
  77.3969940  62.9529180  18.9134780  85.8313680  49.8293150  34.2655050
  85.7179130  50.1487760  35.1606570  86.6483420  50.2305660  33.9692330
  88.6112170  66.9764680  33.7473740  89.4037490  66.4813910  33.5399700
  88.9045320  67.6554820  34.3549350  84.7371830  57.8485620   4.6289790
  84.6565880  56.9340230   4.3581500  84.3236250  58.3452690   3.9229500
  82.8689870  59.6264640   6.5099060  82.0931970  59.1465080   6.7997630
  83.5202800  58.9470290   6.3355220  76.8855700  59.9384450   7.3874820
  76.0540580  59.6833160   7.7871330  77.4936680  60.0095220   8.1232740
  86.8897300  64.0324830   5.2898190  86.4278830  63.2612070   5.6185360
  87.7022850  64.0590900   5.7950640  76.8656960  63.9724540   7.5832840
  77.1685000  63.0822280   7.4043060  77.6100550  64.5294760   7.3555090
  73.2580660  57.4991990   7.0556910  73.8296770  56.7314190   7.0560550
  73.2582200  57.7980750   6.1463520  83.1160610  66.3182840   4.9102180
  82.4972050  66.7740340   4.3396620  83.9712390  66.4734300   4.5091880
  82.3098860  62.3021830   6.5169220  82.2407140  61.3611770   6.3558350
  83.0718720  62.3923240   7.0891790  74.5005530  52.9076350   8.8425840
  74.3208370  52.0102100   9.1228600  74.0985610  53.4548220   9.5172790
  83.3404030  55.1092210   6.7438150  83.7168850  54.2364090   6.6311820
  83.2423540  55.4450910   5.8528590  77.4709040  53.4817840   2.2055590
  77.5775790  54.3821570   2.5124350  76.5601400  53.4335810   1.9150240
  87.1228150  52.6042650   3.6766490  87.9437770  52.1139220   3.7191970
  87.1562230  53.1940310   4.4298330  75.1192200  55.4036850   7.4508180
  75.8002310  55.6675220   8.0695580  74.8040250  54.5637720   7.7846190
  79.3116770  56.4504210   6.5380770  79.8194990  56.9485180   7.1785790
  79.8430010  55.6739410   6.3620130  91.4127700  54.6209400  10.2410120
  90.7079870  55.0091110   9.7225230  91.6785620  55.3159690  10.8431050
  77.5952870  51.0902770  10.8044190  77.5971310  51.6075160   9.9990090
  76.7657180  50.6132950  10.7814120  83.9823960  61.2022080   2.3034090
  83.3641230  61.6671530   1.7396810  84.4947210  61.8949560   2.7203600
  78.8455720  60.7297950   8.9817690  78.5125100  61.3566870   9.6238760
  79.0222400  61.2559830   8.2019360  87.3589630  54.5443030   6.4494030
  86.6545200  54.8327920   7.0297140  87.7201790  55.3543140   6.0893590
  77.2768200  52.8012730   8.8114640  77.6185010  53.6454780   8.5168510
  76.3384010  52.9496470   8.9279980  78.0574820  62.6978750  10.7966870
  78.6748820  63.3729830  10.5151320  77.1967940  63.1066730  10.7054370
  88.9752410  64.1618160   8.7121510  88.2915930  64.8317270   8.7038180
  89.5146700  64.3598810   7.9466370  90.4276550  53.9897820   6.8403240
  89.4801460  54.0236800   6.9718670  90.7526540  54.8036770   7.2252600
  80.9596090  50.2895000   5.1359230  81.2671070  49.7341890   4.4194730
  80.0296790  50.4239460   4.9532220  86.5111150  66.0062290   7.4266690
  86.5238310  65.6024580   6.5588950  85.9586370  66.7809580   7.3228120
  87.8056570  62.7278510   2.5156860  87.6952900  61.7852840   2.6406280
  87.8024820  63.0894150   3.4019620  85.9096590  60.9092130   8.7549300
  86.3265380  60.6952240   7.9202760  86.6336410  61.1664920   9.3257920
  83.3476850  58.3543830   1.8719350  82.4206130  58.2881210   2.1007820
  83.5001670  59.2923960   1.7574590  89.8558690  59.3079350   8.8465540
  89.0277320  59.3772440   8.3715670  90.4509170  59.8933660   8.3781370
  87.3774140  59.9164130   2.3754600  86.7586560  59.5783680   1.7280900
  87.3598590  59.2723890   3.0833790  86.8200700  56.0948670   9.7920410
  86.4071880  56.9202380  10.0460400  86.0876650  55.5093710   9.5996770
  78.9533490  58.8808570   4.6539080  78.5490490  58.1685820   4.1584980
  79.0396610  58.5361810   5.5427120  79.4215190  62.5676130   6.8178290
  79.1243480  61.9621600   6.1386070  80.3715010  62.6053440   6.7067650
  77.6662110  55.6551780   8.4338120  78.2176700  55.7647120   7.6591370
  78.1805620  56.0289380   9.1493350  87.5100800  66.1408000  10.4801390
  87.0331360  66.9480190  10.2874000  86.8262590  65.4886330  10.6327600
  78.5133620  62.3057820  13.4686090  77.6162150  62.5297790  13.7159490
  78.5386490  62.4292760  12.5197490  77.3404840  59.1771140  12.0443460
  77.2012610  60.0493940  12.4130860  76.4586200  58.8343950  11.8991400
  83.6634220  64.0947010   3.3508590  84.1030130  64.8371340   2.9363980
  83.6021110  64.3373580   4.2747550  79.1385190  65.1192840  14.2528610
  79.1100620  65.5235790  13.3857040  78.9750160  64.1903200  14.0900210
  75.6538120  57.7753550   2.1545730  75.5335720  58.5015640   1.5427000
  75.3439010  57.0056460   1.6773640  91.0900010  65.9019940  15.5492780
  91.5659730  66.3802830  16.2281860  91.7107170  65.8337430  14.8238280
  73.2923490  60.9468690   7.9614370  73.3703910  61.0817460   7.0170090
  73.9065170  60.2384580   8.1542490  74.5371120  62.6468880   4.3720550
  74.1299200  62.7883470   3.5174150  75.4284130  62.3629040   4.1691760
  90.4933260  63.0932790  12.7092790  90.6196320  62.8544670  11.7909970
  90.5354640  62.2617330  13.1814870  84.3550000  66.7960790  11.2787600
  84.8694670  66.7068800  12.0810030  83.5119080  67.1420490  11.5715510
  78.8092780  66.8614660   2.4843220  78.6335260  65.9450200   2.2711020
  77.9548520  67.2201950   2.7241020  85.5980460  66.2166400   3.3418090
  86.0537410  65.4355780   3.6556710  85.9372980  66.9273220   3.8859270
  90.3457270  55.1465250  13.6742530  89.7301540  55.6544920  13.1457990
  90.0253690  54.2463580  13.6168470  73.3483010  61.9882860  10.5008830
  73.5114050  61.5188220   9.6828200  73.8135460  61.4806420  11.1657670
  78.1201780  51.1188620   5.5369400  77.6769930  51.8998160   5.2053920
  78.6786770  51.4418510   6.2440340  82.4071590  53.9857140  11.1404720
  81.9450960  54.1940160  11.9524660  82.0049700  53.1716490  10.8375390
  87.4076100  55.2066090  12.2701380  86.5569690  54.9071840  12.5910450
  87.2477890  55.4508100  11.3585200  84.5025810  56.7067840  14.3700170
  84.8279220  55.8731590  14.0302400  85.2906140  57.2296360  14.5178500
  80.1577680  51.6635950   7.3959000  80.4550010  52.5698780   7.3151020
  80.7063240  51.1754730   6.7818570  77.9116000  56.2422190   3.2650650
  77.6856920  56.0259360   4.1697270  77.1308530  56.6750650   2.9196620
  80.3515210  57.1407770  13.9310920  80.2558810  56.2002500  13.7811320
  81.1947190  57.3622840  13.5358990  83.7478630  54.8849100   3.8944580
  84.1408200  55.2021300   3.0813270  84.1095480  54.0060980   4.0089100
  75.4825750  53.5521440  12.0844700  75.0889140  54.3996650  12.2917480
  74.7944150  52.9147810  12.2753340  82.0570800  53.6356410  15.1541440
  81.3669120  53.4428610  15.7887530  82.8003100  53.9191050  15.6865740
  72.7842800  51.4749900   6.1174780  72.4955850  52.0452760   6.8299760
  73.5288560  50.9954350   6.4806010  84.3333770  57.4754850   7.9895360
  83.6014890  57.9841660   8.3385460  83.9358110  56.6584830   7.6884140
  80.7711160  54.1509050   6.3947850  80.7747220  53.7099000   5.5452390
  81.6662280  54.4726380   6.5019670  76.6213540  54.0335540   5.3542060
  76.2813590  54.5110770   6.1109110  75.8590860  53.5800660   4.9943160
  84.7959680  52.9288530   7.4018300  84.8132420  53.3797180   8.2460150
  84.5475260  52.0294170   7.6151740  88.2230430  50.3420710  13.2404680
  88.5476200  49.6110370  13.7662660  88.2586940  50.0234350  12.3385670
  74.9221990  61.3634290  12.6604640  74.5376780  60.7227960  13.2587600
  75.2334180  62.0670410  13.2299370  81.0719130  58.2110830   8.1413260
  81.4389260  57.7369400   8.8874600  80.8824190  59.0852400   8.4821600
  73.9359620  52.9554520   4.2706730  73.6506540  52.5910190   5.1085350
  73.8738480  52.2234980   3.6569870  78.8618500  57.2519470  10.4597470
  78.5575570  58.1311450  10.6847830  79.8164960  57.3119260  10.4954910
  88.1488270  60.4545820   6.8490710  88.8687390  60.9501110   6.4586820
  87.9470090  59.7763710   6.2044580  83.5307070  60.5254880  12.7359710
  83.4644380  59.6050550  12.4817300  82.9012210  60.6230320  13.4504350
  77.4337690  61.1260840   4.6943130  77.9516360  60.3229100   4.6400020
  76.9821710  61.0639980   5.5359960  74.9182230  58.0922210  11.6068830
  74.5597170  58.7576060  12.1942170  74.6236790  57.2605760  11.9781450
  78.1195350  58.5506450  14.4908380  77.8195490  58.6963630  13.5936200
  78.8906590  57.9911740  14.3981770  83.4623800  63.3475450  12.4863510
  83.4768340  62.4156410  12.2682420  82.7548900  63.4335210  13.1253280
  89.6735010  59.9882790  11.8332090  88.9483200  60.5811570  11.6361480
  90.2010470  59.9806330  11.0345460  85.2034600  61.7142960   5.3315940
  85.5558420  61.1171090   4.6717310  84.3196930  61.3887190   5.5024190
  81.2897880  62.4740650   2.7386350  81.9769010  63.0209860   3.1193940
  80.5030300  63.0181380   2.7735960  80.5925090  59.4786680   2.3511710
  81.0487870  60.2891930   2.5771900  80.2413300  59.1609820   3.1830200
  82.8957700  64.9893020   9.5804010  83.5399920  65.1952400  10.2577430
  83.2587140  64.2281420   9.1274860  76.4936870  49.8224330   2.8234230
  76.3651500  49.8142230   3.7719150  75.6698890  50.1607420   2.4725240
  84.1689780  62.9925370   8.2981460  84.8112010  62.2918530   8.4113630
  84.6939130  63.7723810   8.1178350  85.9427400  63.7920270  11.5017520
  86.2783640  64.3786960  12.1795440  85.0227740  63.6612980  11.7315310
  73.4930800  51.5815450  12.2840930  72.7789320  51.7812370  12.8893540
  73.9125840  50.8055020  12.6555730  73.7803390  65.5695710  13.2707460
  73.8894510  64.6290450  13.1302850  73.1283950  65.8350460  12.6221190
  81.7715980  63.8411600  14.6705580  81.4512850  63.1220840  15.2151270
  81.0974340  64.5166670  14.7441640  84.9869580  54.0737760  10.0342380
  85.3550400  53.2532970  10.3621950  84.1267780  54.1339650  10.4498030
  80.3215640  55.3080650   2.2587820  79.6131790  55.7766990   2.7001430
  80.6060120  54.6502660   2.8933010  81.9471570  56.7277350  10.2580350
  82.4456820  57.2023170  10.9232200  82.0894520  55.8040870  10.4650380
  84.3531070  52.0331310   3.6983610  84.2298850  52.0517440   2.7493120
  85.3015630  52.0810250   3.8182010  81.4407860  67.2686610   2.9711590
  81.6949360  67.2308000   2.0490960  80.4920340  67.1419940   2.9639840
  89.1538430  52.9445310  11.1008740  88.6512030  53.6850710  11.4402550
  89.9695090  53.3329310  10.7845530  87.4460440  58.1878490   4.5470100
  86.5050580  58.2028720   4.7217790  87.7604510  57.4014450   4.9930400
  89.4486020  65.3587340   6.2224360  89.5733440  66.1818510   6.6948170
  90.3151580  65.1478070   5.8748510  76.9203550  67.4518550   5.8941490
  77.6566030  66.9034010   6.1650060  77.3044470  68.3174560   5.7547480
  73.8049030  63.5192120   1.7683000  72.8788810  63.7613260   1.7588410
  74.2705460  64.3466380   1.6467750  75.9261830  66.6364620  15.0827070
  76.7274560  66.9576670  15.4962470  75.4113650  66.2760200  15.8046980
  84.7626460  62.7444490  15.0302480  84.1564620  62.7676090  14.2898230
  84.4580570  62.0127530  15.5669730  86.1926830  66.4724780  13.6411890
  87.1448580  66.3882800  13.5912130  86.0455050  67.1366490  14.3145680
  73.6459640  59.1238080  14.0263120  74.1498660  58.5445360  14.5979350
  72.9067060  59.4078310  14.5639490  80.6997580  60.5309070  13.5598640
  79.9343250  61.0994070  13.4753310  80.8813540  60.2385280  12.6666870
  87.8420930  62.2614400  14.1173660  88.5830400  62.5990160  13.6141120
  87.0793610  62.4306460  13.5643430  75.6782720  57.2667670  14.9213190
  75.7188060  56.9681540  15.8298420  76.5328220  57.6675280  14.7620710
  77.6188530  55.8459770  12.8887680  77.0884990  55.3550720  12.2611020
  78.2876600  56.2743970  12.3545610  86.5166590  60.3129230  12.6528870
  86.9307610  60.4674310  13.5019290  85.5817590  60.4384450  12.8154650
  86.9888760  57.6525390  14.6568020  87.5709530  56.8977710  14.5688500
  87.1650530  58.1832830  13.8799500  78.1060830  52.8122140  12.9684970
  78.0117700  52.1942890  12.2435840  77.5258220  53.5388430  12.7414880
  80.8722270  51.3695380  10.0012360  80.4239570  51.3919640   9.1557910
  80.2387470  50.9714400  10.5982660  81.2781820  60.2649710  10.6224800
  81.6969930  61.1082440  10.4501040  80.3590450  60.4021750  10.3931580
  83.6145720  57.9965890  12.0062640  83.7341930  57.4007030  12.7457480
  84.4739720  58.0335580  11.5863940  85.9533620  58.5503080  10.5825150
  85.4268840  59.0745700   9.9790290  86.2964960  59.1830470  11.2134880
  79.1289240  66.5702720  11.7382530  78.5910330  67.2948780  11.4191230
  79.3823200  66.0933060  10.9479870  80.3814490  54.5387240  13.2638460
  80.9714180  54.2303090  13.9516280  79.5634730  54.0666990  13.4198360
  85.2007920  54.1553050  13.4971480  84.5123440  53.4934590  13.4321470
  85.9213940  53.7091320  13.9419940  81.9851450  67.8053930  11.9969180
  81.9110150  68.7089070  12.3041550  81.0830290  67.4865830  11.9691250
  73.3878740  65.1328520   5.3002800  73.7181750  64.2649580   5.0681440
  73.8169740  65.3387040   6.1307760  77.9840660  63.4637530   2.9604770
  77.6836200  63.3402500   3.8608680  77.8778150  62.6046120   2.5520500
  73.8768950  65.9999110   8.0384430  73.4399940  66.1799910   8.8708580
  74.4446630  66.7573730   7.8966150  89.5131130  65.5016110  12.3261740
  88.9133120  65.5608670  11.5825660  89.6425030  64.5621090  12.4558590
  73.7093380  58.5119340   4.3973310  73.0542220  58.2430980   3.7533010
  74.5471330  58.4023820   3.9475290  91.2149010  60.8431510   5.0107580
  91.5857840  60.0598830   4.6043550  91.8550940  61.5320610   4.8324880
  88.1982770  62.2268090  10.4237900  87.3842610  62.6565250  10.6863690
  88.6056970  62.8386500   9.8106950  90.1573550  58.2184770   2.3167600
  89.7817150  57.4512700   1.8848890  89.4276670  58.6007470   2.8042530
  74.7469310  58.8971910   8.9376650  75.1142350  58.8099310   9.8172670
  74.1780130  58.1338460   8.8383510  89.5473170  57.3656290  11.9507120
  89.3159260  57.1369040  11.0505070  89.8077720  58.2855840  11.9052010
  74.2985310  55.8081000  12.8435070  73.4041360  55.7747760  13.1828780
  74.8382860  56.0067790  13.6086320  87.9861240  52.5912720  14.7286820
  88.8631420  52.5996120  15.1120820  87.9982080  51.8543560  14.1179170
  89.4324510  56.4442260   5.6174840  89.9561990  55.9504910   4.9865010
  90.0183930  56.5792620   6.3622410  89.6114230  56.5282130   9.1394390
  88.6616940  56.4945670   9.2539380  89.7927240  57.4382240   8.9044160
  74.8025020  50.0829330   7.1918290  75.4501210  49.5326710   6.7513450
  75.2226860  50.3372480   8.0134100  90.3511640  54.3376560   4.0904930
  90.2410920  54.1832600   5.0287200  91.1119230  53.8097500   3.8480340
  88.6977360  50.2770690  10.5487930  89.3349580  50.8904830  10.9147120
  88.8452250  50.3131350   9.6037160  88.2558820  66.9786690   3.9506170
  88.8517890  66.6571260   3.2740590  88.5136970  66.5058510   4.7419440
  74.5557020  50.2385000   9.9343610  74.2071840  50.6948820  10.7001790
  74.2244720  49.3442130  10.0166040  76.1621390  63.4104600  14.0996800
  76.1191020  63.0397510  14.9811260  76.2932400  64.3482170  14.2398620
  79.8627420  64.9664190   9.7006520  79.6218780  65.2338750   8.8137040
  80.8030060  65.1369920   9.7557380  82.0681840  51.4296880  13.4563030
  82.0070730  52.0218710  14.2058440  83.0082220  51.3222840  13.3113290
  84.7056400  51.0866940  13.0955320  85.3196810  51.4046230  12.4336400
  85.2505960  50.6015530  13.7151180  91.1231580  66.9858570  10.5017160
  90.6289860  67.3827440   9.7844290  90.5144870  66.3607780  10.8954440
  75.2277660  49.7661200  13.2094380  75.7760650  49.5849250  12.4460490
  75.2932970  48.9755310  13.7450690  76.0009420  66.3566850  11.2194580
  75.4069740  66.2251550  11.9584620  75.9933260  65.5204990  10.7536680
  85.4464440  49.6499080   9.4224610  84.5724280  49.9834190   9.2197540
  85.3375190  49.1772260  10.2476480  86.3536420  51.8569950  10.8066330
  86.0249780  51.0421710  10.4268060  87.3018720  51.8139760  10.6832020
  88.8071030  67.6281990   7.7803900  88.3474000  68.3797800   7.4061920
  88.1783490  66.9088460   7.7218700  75.6321650  63.7225230  10.1702620
  74.9055710  63.1030520  10.1028570  75.6930800  64.1165840   9.3000700
  79.2366750  65.9370230   6.9552030  79.7531770  65.3257590   6.4300290
  79.8864130  66.4399010   7.4463040  81.9762250  66.8278720   7.7821010
  82.2640060  66.5733020   6.9054020  82.4885470  66.2756080   8.3726580
  83.1939260  50.5668920   8.3617520  82.4111050  51.0414420   8.6414280
  82.9002190  49.6623750   8.2530700  87.7460330  51.2692020   6.4066610
  88.1868420  51.2137120   5.5588210  87.4767920  52.1850030   6.4776790
  89.6098900  50.9007260   4.4175430  89.5487300  49.9568480   4.2706450
  90.3890930  51.0087350   4.9628890  73.9151650  67.0399620   3.3799380
  73.7473690  66.4070300   4.0781270  73.0486160  67.2459020   3.0293570
  81.0793480  52.9855670   3.8733550  80.2667990  52.6112560   3.5329430
  81.5835120  52.2300750   4.1754740  85.5818460  49.6498120   5.1116620
  86.1847830  50.2218330   5.5865140  84.8411450  50.2137560   4.8890520
  79.1042660  51.1355590   2.4778600  78.4745400  50.4342900   2.6448730
  78.5647800  51.8959720   2.2611760  82.0434610  67.7494820  15.1489210
  82.9701920  67.5139090  15.1925170  82.0285040  68.5766820  14.6675240
  90.2779670  67.2920390   2.1463460  90.4531860  66.6058130   1.5024380
  89.5801240  67.8167440   1.7540130  79.2298220  50.4139570  14.9131090
  78.9482490  50.9173170  14.1491910  79.6117920  49.6161320  14.5473220
  85.8313680  49.8293150  15.4911560  85.7179130  50.1487760  16.3863080
  86.6483420  50.2305660  15.1948840  88.6112170  66.9764680  14.9730250
  89.4037490  66.4813910  14.7656210  88.9045320  67.6554820  15.5805860
  84.7371830  39.0742130  98.5007240  84.6565880  38.1596740  98.2298950
  84.3236250  39.5709200  97.7946950  82.8689870  40.8521150 100.3816510
  82.0931970  40.3721590 100.6715080  83.5202800  40.1726800 100.2072670
  76.8855700  41.1640960 101.2592270  76.0540580  40.9089670 101.6588780
  77.4936680  41.2351730 101.9950190  86.8897300  45.2581340  99.1615640
  86.4278830  44.4868580  99.4902810  87.7022850  45.2847410  99.6668090
  76.8656960  45.1981050 101.4550290  77.1685000  44.3078790 101.2760510
  77.6100550  45.7551270 101.2272540  75.2947650  36.1242850  95.0434660
  74.4064350  36.4658820  94.9414540  75.5788840  35.9243170  94.1515490
  73.2580660  38.7248500 100.9274360  73.8296770  37.9570700 100.9278000
  73.2582200  39.0237260 100.0180970  83.1160610  47.5439350  98.7819630
  82.4972050  47.9996850  98.2114070  83.9712390  47.6990810  98.3809330
  82.3098860  43.5278340 100.3886670  82.2407140  42.5868280 100.2275800
  83.0718720  43.6179750 100.9609240  74.5005530  34.1332860 102.7143290
  74.3208370  33.2358610 102.9946050  74.0985610  34.6804730 103.3890240
  83.3404030  36.3348720 100.6155600  83.7168850  35.4620600 100.5029270
  83.2423540  36.6707420  99.7246040  77.4709040  34.7074350  96.0773040
  77.5775790  35.6078080  96.3841800  76.5601400  34.6592320  95.7867690
  87.1228150  33.8299160  97.5483940  87.9437770  33.3395730  97.5909420
  87.1562230  34.4196820  98.3015780  75.1192200  36.6293360 101.3225630
  75.8002310  36.8931730 101.9413030  74.8040250  35.7894230 101.6563640
  79.3116770  37.6760720 100.4098220  79.8194990  38.1741690 101.0503240
  79.8430010  36.8995920 100.2337580  91.4127700  35.8465910 104.1127570
  90.7079870  36.2347620 103.5942680  91.6785620  36.5416200 104.7148500
  77.5952870  32.3159280 104.6761640  77.5971310  32.8331670 103.8707540
  76.7657180  31.8389460 104.6531570  83.9823960  42.4278590  96.1751540
  83.3641230  42.8928040  95.6114260  84.4947210  43.1206070  96.5921050
  78.8455720  41.9554460 102.8535140  78.5125100  42.5823380 103.4956210
  79.0222400  42.4816340 102.0736810  87.3589630  35.7699540 100.3211480
  86.6545200  36.0584430 100.9014590  87.7201790  36.5799650  99.9611040
  77.2768200  34.0269240 102.6832090  77.6185010  34.8711290 102.3885960
  76.3384010  34.1752980 102.7997430  78.0574820  43.9235260 104.6684320
  78.6748820  44.5986340 104.3868770  77.1967940  44.3323240 104.5771820
  73.3507160  43.1135120  93.5491170  72.9735140  43.6022220  92.8176070
  73.6080230  43.7860400  94.1797700  88.9752410  45.3874670 102.5838960
  88.2915930  46.0573780 102.5755630  89.5146700  45.5855320 101.8183820
  90.4276550  35.2154330 100.7120690  89.4801460  35.2493310 100.8436120
  90.7526540  36.0293280 101.0970050  80.9596090  31.5151510  99.0076680
  81.2671070  30.9598400  98.2912180  80.0296790  31.6495970  98.8249670
  86.5111150  47.2318800 101.2984140  86.5238310  46.8281090 100.4306400
  85.9586370  48.0066090 101.1945570  87.8056570  43.9535020  96.3874310
  87.6952900  43.0109350  96.5123730  87.8024820  44.3150660  97.2737070
  85.9096590  42.1348640 102.6266750  86.3265380  41.9208750 101.7920210
  86.6336410  42.3921430 103.1975370  83.3476850  39.5800340  95.7436800
  82.4206130  39.5137720  95.9725270  83.5001670  40.5180470  95.6292040
  83.3345930  35.8517340  92.7403960  82.3949600  36.0131300  92.8256420
  83.6529190  36.5703020  92.1939950  89.8558690  40.5335860 102.7182990
  89.0277320  40.6028950 102.2433120  90.4509170  41.1190170 102.2498820
  87.3774140  41.1420640  96.2472050  86.7586560  40.8040190  95.5998350
  87.3598590  40.4980400  96.9551240  86.8200700  37.3205180 103.6637860
  86.4071880  38.1458890 103.9177850  86.0876650  36.7350220 103.4714220
  78.9533490  40.1065080  98.5256530  78.5490490  39.3942330  98.0302430
  79.0396610  39.7618320  99.4144570  79.4215190  43.7932640 100.6895740
  79.1243480  43.1878110 100.0103520  80.3715010  43.8309950 100.5785100
  77.6662110  36.8808290 102.3055570  78.2176700  36.9903630 101.5308820
  78.1805620  37.2545890 103.0210800  87.5100800  47.3664510 104.3518840
  87.0331360  48.1736700 104.1591450  86.8262590  46.7142840 104.5045050
  85.5538840  40.3807450  93.2544800  85.9932120  39.5429880  93.1082620
  86.2667260  41.0136850  93.3408940  83.6634220  45.3203520  97.2226040
  84.1030130  46.0627850  96.8081430  83.6021110  45.5630090  98.1465000
  89.1355980  31.6350260  91.5685840  88.8228640  31.7277090  92.4684910
  89.8968450  32.2131290  91.5183270  75.6538120  39.0010060  96.0263180
  75.5335720  39.7272150  95.4144450  75.3439010  38.2312970  95.5491090
  73.2923490  42.1725200 101.8331820  73.3703910  42.3073970 100.8887540
  73.9065170  41.4641090 102.0259940  74.5371120  43.8725390  98.2438000
  74.1299200  44.0139980  97.3891600  75.4284130  43.5885550  98.0409210
  86.3304400  48.3072640  94.5789050  86.1705540  48.0175580  95.4770880
  86.1651110  47.5312770  94.0434280  78.8092780  48.0871170  96.3560670
  78.6335260  47.1706710  96.1428470  77.9548520  48.4458460  96.5958470
  86.0330530  45.8160200  93.1387050  85.3395690  45.8137490  92.4789330
  86.7753390  45.3919520  92.7081220  85.5980460  47.4422910  97.2135540
  86.0537410  46.6612290  97.5274160  85.9372980  48.1529730  97.7576720
  78.1201780  32.3445130  99.4086850  77.6769930  33.1254670  99.0771370
  78.6786770  32.6675020 100.1157790  81.2360600  31.9655830  94.2892680
  80.6114780  31.9615700  95.0145990  81.1490720  31.0986790  93.8928650
  80.1577680  32.8892460 101.2676450  80.4550010  33.7955290 101.1868470
  80.7063240  32.4011240 100.6536020  77.9116000  37.4678700  97.1368100
  77.6856920  37.2515870  98.0414720  77.1308530  37.9007160  96.7914070
  85.1413760  37.4742070  95.7358750  84.5422650  38.1977870  95.5522370
  85.6893370  37.4118850  94.9535200  83.7478630  36.1105610  97.7662030
  84.1408200  36.4277810  96.9530720  84.1095480  35.2317490  97.8806550
  72.7842800  32.7006410  99.9892230  72.4955850  33.2709270 100.7017210
  73.5288560  32.2210860 100.3523460  72.9713030  36.6426530  91.1994950
  72.8887700  37.5857290  91.3409940  72.6196090  36.5001440  90.3207300
  84.3333770  38.7011360 101.8612810  83.6014890  39.2098170 102.2102910
  83.9358110  37.8841340 101.5601590  80.7711160  35.3765560 100.2665300
  80.7747220  34.9355510  99.4169840  81.6662280  35.6982890 100.3737120
  76.6213540  35.2592050  99.2259510  76.2813590  35.7367280  99.9826560
  75.8590860  34.8057170  98.8660610  80.8331310  36.3777640  93.2572060
  80.9544130  36.3364120  94.2057880  80.4479820  37.2401790  93.1018790
  84.7959680  34.1545040 101.2735750  84.8132420  34.6053690 102.1177600
  84.5475260  33.2550680 101.4869190  79.8452810  38.6878780  92.6555360
  79.2769710  38.2397030  92.0291270  80.5541810  39.0471560  92.1220510
  81.0719130  39.4367340 102.0130710  81.4389260  38.9625910 102.7592050
  80.8824190  40.3108910 102.3539050  73.9359620  34.1811030  98.1424180
  73.6506540  33.8166700  98.9802800  73.8738480  33.4491490  97.5287320
  78.8618500  38.4775980 104.3314920  78.5575570  39.3567960 104.5565280
  79.8164960  38.5375770 104.3672360  77.3900290  42.6836970  94.9281770
  76.6162550  42.1434590  94.7680490  78.1194920  42.1643580  94.5899530
  88.1488270  41.6802330 100.7208160  88.8687390  42.1757620 100.3304270
  87.9470090  41.0020220 100.0762030  83.6098210  33.0740290  94.8637550
  82.7962820  32.5753460  94.7882860  83.4160160  33.9138540  94.4473900
  86.3246600  37.4459940  93.1599710  87.2126220  37.7577170  92.9851050
  86.2951690  36.5732190  92.7680290  77.4337690  42.3517350  98.5660580
  77.9516360  41.5485610  98.5117470  76.9821710  42.2896490  99.4077410
  82.3207190  43.6183630  93.8387880  82.6622890  44.3625860  93.3431200
  81.4919900  43.9314750  94.2012710  88.5960870  38.7571780  92.6279570
  88.5124590  39.1886000  91.7776010  89.3155060  39.2170130  93.0606390
  89.6248120  45.6114040  95.3561700  88.9824280  44.9569660  95.6305420
  89.2378780  46.0169130  94.5802370  85.2034600  42.9399470  99.2033390
  85.5558420  42.3427600  98.5434760  84.3196930  42.6143700  99.3741640
  81.2897880  43.6997160  96.6103800  81.9769010  44.2466370  96.9911390
  80.5030300  44.2437890  96.6453410  73.4290280  39.3169980  92.1020880
  74.2985130  39.5994780  92.3856800  72.9380600  40.1305850  91.9869690
  80.5925090  40.7043190  96.2229160  81.0487870  41.5148440  96.4489350
  80.2413300  40.3866330  97.0547650  82.8957700  46.2149530 103.4521460
  83.5399920  46.4208910 104.1294880  83.2587140  45.4537930 102.9992310
  76.4936870  31.0480840  96.6951680  76.3651500  31.0398740  97.6436600
  75.6698890  31.3863930  96.3442690  84.1689780  44.2181880 102.1698910
  84.8112010  43.5175040 102.2831080  84.6939130  44.9980320 101.9895800
  88.0145500  44.5030500  91.8938050  87.7883080  43.7860940  92.4862690
  87.6241700  44.2542940  91.0559800  73.7961530  48.5297360  92.6682510
  74.1559170  49.1286700  92.0139780  73.6553870  49.0757250  93.4417540
  87.5961750  42.4202440  93.5552210  87.3083450  42.8815130  94.3430090
  88.3913920  41.9600210  93.8236430  79.8130150  45.9128560  93.4856180
  79.8040250  46.6458250  92.8700690  78.8928510  45.6660140  93.5783140
  75.4136790  41.1343450  94.2302940  74.8064740  41.8742350  94.2398240
  75.8886140  41.2242810  93.4041140  84.9869580  35.2994270 103.9059830
  85.3550400  34.4789480 104.2339400  84.1267780  35.3596160 104.3215480
  88.3531610  34.2551210  94.7147390  87.7244770  34.3596880  94.0005620
  87.8583530  34.4747990  95.5041270  82.7989750  45.9756800  92.1481370
  82.9001730  45.7720790  91.2183350  81.8991490  45.7215080  92.3529150
  80.3215640  36.5337160  96.1305270  79.6131790  37.0023500  96.5718880
  80.6060120  35.8759170  96.7650460  81.9471570  37.9533860 104.1297800
  82.4456820  38.4279680 104.7949650  82.0894520  37.0297380 104.3367830
  84.3531070  33.2587820  97.5701060  84.2298850  33.2773950  96.6210570
  85.3015630  33.3066760  97.6899460  81.4407860  48.4943120  96.8429040
  81.6949360  48.4564510  95.9208410  80.4920340  48.3676450  96.8357290
  78.5250660  34.8422240  93.5055980  79.3741190  35.2792390  93.4396170
  78.1581930  35.1542500  94.3328040  87.4460440  39.4135000  98.4187550
  86.5050580  39.4285230  98.5935240  87.7604510  38.6270960  98.8647850
  77.4242080  41.0954600  91.9791510  78.1905350  40.9835960  92.5416940
  77.5016770  40.3992570  91.3268280  76.1188840  38.5279670  92.6624400
  76.1992430  37.5807180  92.7741800  77.0108590  38.8586550  92.7685060
  89.4486020  46.5843850 100.0941810  89.5733440  47.4075020 100.5665620
  90.3151580  46.3734580  99.7465960  76.9203550  48.6775060  99.7658940
  77.6566030  48.1290520 100.0367510  77.3044470  49.5431070  99.6264930
  73.8049030  44.7448630  95.6400450  72.8788810  44.9869770  95.6305860
  74.2705460  45.5722890  95.5185200  89.0836030  47.0775500  93.0121250
  88.7977540  46.6640640  92.1975430  88.8855580  48.0063210  92.8921770
  80.5483260  43.0708780  91.4526860  80.4433900  42.4561130  92.1788240
  80.3807480  42.5474670  90.6689870  83.7885990  42.1328810  92.0568850
  83.2396090  42.5798110  92.7011590  84.4105250  41.6278060  92.5806520
  79.4561110  41.0919730  93.9534150  79.8777530  40.9259600  94.7965540
  79.5811950  40.2819960  93.4589290  81.9688750  40.1157340  91.2011250
  82.4894410  39.4006360  90.8352400  82.6157150  40.7543210  91.5011760
  80.8722270  32.5951890 103.8729810  80.4239570  32.6176150 103.0275360
  80.2387470  32.1970910 104.4700110  81.2781820  41.4906220 104.4942250
  81.6969930  42.3338950 104.3218490  80.3590450  41.6278260 104.2649030
  78.3520010  37.1652960  90.8992310  78.1509070  36.3020320  91.2605650
  78.1812060  37.0786320  89.9613910  85.8308320  31.9761190  93.4279190
  86.1110610  31.1329090  93.7838610  85.0574050  32.2084300  93.9417940
  77.1502810  34.2653580  90.8870190  77.4528710  34.2721010  89.9789340
  77.8897400  33.9151440  91.3837850  80.3687740  33.2088200  91.8726390
  80.0209740  32.5312190  91.2928840  80.5700510  32.7477710  92.6869780
  82.5336780  48.1968950  93.4912990  83.4287570  48.5353920  93.5131750
  82.5654410  47.4748360  92.8637270  76.1732940  43.5696000  91.7199990
  76.6107810  44.1125670  92.3757570  76.6580670  42.7442950  91.7296330
  73.3878740  46.3585030  99.1720250  73.7181750  45.4906090  98.9398890
  73.8169740  46.5643550 100.0025210  77.9840660  44.6894040  96.8322220
  77.6836200  44.5659010  97.7326130  77.8778150  43.8302630  96.4237950
  73.8768950  47.2255620 101.9101880  73.4399940  47.4056420 102.7426030
  74.4446630  47.9830240 101.7683600  90.7532580  44.4690440  91.5348900
  89.9225540  44.5367090  92.0056130  90.9304410  45.3594560  91.2315760
  90.2089040  41.2137920  94.0383100  90.9707950  41.7834570  94.1442790
  90.2243410  40.6465120  94.8091410  73.7093380  39.7375850  98.2690760
  73.0542220  39.4687490  97.6250460  74.5471330  39.6280330  97.8192740
  91.2149010  42.0688020  98.8825030  91.5857840  41.2855340  98.4761000
  91.8550940  42.7577120  98.7042330  88.1982770  43.4524600 104.2955350
  87.3842610  43.8821760 104.5581140  88.6056970  44.0643010 103.6824400
  90.2608210  41.5072290  91.1955620  90.5357050  42.4151170  91.0674840
  90.0718950  41.4434820  92.1317610  86.6583820  34.5317140  92.4909250
  87.0768700  34.3448120  91.6505910  86.3519880  33.6796190  92.8012180
  90.1573550  39.4441280  96.1885050  89.7817150  38.6769210  95.7566340
  89.4276670  39.8263980  96.6759980  74.7469310  40.1228420 102.8094100
  75.1142350  40.0355820 103.6890120  74.1780130  39.3594970 102.7100960
  72.9231460  36.9474780  94.2116090  72.0195540  37.2104980  94.0367750
  73.4072080  37.2185950  93.4316050  89.4324510  37.6698770  99.4892290
  89.9561990  37.1761420  98.8582460  90.0183930  37.8049130 100.2339860
  89.6114230  37.7538640 103.0111840  88.6616940  37.7202180 103.1256830
  89.7927240  38.6638750 102.7761610  75.4658670  36.0040320  92.1210470
  76.1750370  35.5823540  91.6357750  74.7498610  36.0715550  91.4893820
  75.1132830  32.0579650  91.1613120  75.8360960  32.5988590  91.4794340
  75.3857350  31.7843070  90.2854660  88.9224480  36.9272120  95.4284700
  89.4183600  36.6942990  96.2133580  88.7240550  36.0883960  95.0122340
  74.8025020  31.3085840 101.0635740  75.4501210  30.7583220 100.6230900
  75.2226860  31.5628990 101.8851550  90.3511640  35.5633070  97.9622380
  90.2410920  35.4089110  98.9004650  91.1119230  35.0354010  97.7197790
  88.6977360  31.5027200 104.4205380  89.3349580  32.1161340 104.7864570
  88.8452250  31.5387860 103.4754610  91.2401910  33.3940990  91.2028520
  92.1651220  33.2622170  90.9946810  91.2177700  33.4733810  92.1564970
  91.3140400  34.1651650  93.8285230  90.5191900  34.0996770  94.3578140
  91.5183680  35.1002290  93.8170580  88.2558820  48.2043200  97.8223620
  88.8517890  47.8827770  97.1458040  88.5136970  47.7315020  98.6136890
  74.5557020  31.4641510 103.8061060  74.2071840  31.9205330 104.5719240
  74.2244720  30.5698640 103.8883490  79.8627420  46.1920700 103.5723970
  79.6218780  46.4595260 102.6854490  80.8030060  46.3626430 103.6274830
  91.1231580  48.2115080 104.3734610  90.6289860  48.6083950 103.6561740
  90.5144870  47.5864290 104.7671890  85.4464440  30.8755590 103.2942060
  84.5724280  31.2090700 103.0914990  85.3375190  30.4028770 104.1193930
  86.3536420  33.0826460 104.6783780  86.0249780  32.2678220 104.2985510
  87.3018720  33.0396270 104.5549470  88.8071030  48.8538500 101.6521350
  88.3474000  49.6054310 101.2779370  88.1783490  48.1344970 101.5936150
  75.6321650  44.9481740 104.0420070  74.9055710  44.3287030 103.9746020
  75.6930800  45.3422350 103.1718150  79.2366750  47.1626740 100.8269480
  79.7531770  46.5514100 100.3017740  79.8864130  47.6655520 101.3180490
  81.9762250  48.0535230 101.6538460  82.2640060  47.7989530 100.7771470
  82.4885470  47.5012590 102.2444030  83.1939260  31.7925430 102.2334970
  82.4111050  32.2670930 102.5131730  82.9002190  30.8880260 102.1248150
  87.7460330  32.4948530 100.2784060  88.1868420  32.4393630  99.4305660
  87.4767920  33.4106540 100.3494240  89.6098900  32.1263770  98.2892880
  89.5487300  31.1824990  98.1423900  90.3890930  32.2343860  98.8346340
  73.9151650  48.2656130  97.2516830  73.7473690  47.6326810  97.9498720
  73.0486160  48.4715530  96.9011020  74.5379670  32.0972910  94.7548690
  75.2959030  32.2101790  94.1812720  74.0756840  32.9342110  94.7092120
  81.0793480  34.2112180  97.7451000  80.2667990  33.8369070  97.4046880
  81.5835120  33.4557260  98.0472190  85.5818460  30.8754630  98.9834070
  86.1847830  31.4474840  99.4582590  84.8411450  31.4394070  98.7607970
  88.7253060  31.2776190  94.2574350  88.9203690  32.1759640  94.5241780
  87.9382930  31.0463270  94.7507300  75.5214350  46.9589360  94.6966970
  74.9961970  47.3397390  93.9928930  75.4458930  47.5840130  95.4176680
  76.9104820  32.6236960  93.2950660  77.4397580  31.8366760  93.1658610
  77.5433140  33.3028150  93.5286190  79.1042660  32.3612100  96.3496050
  78.4745400  31.6599410  96.5166180  78.5647800  33.1216230  96.1329210
  90.2779670  48.5176900  96.0180910  90.4531860  47.8314640  95.3741830
  89.5801240  49.0423950  95.6257580  78.1207320  48.9071740  93.5716220
  78.8526140  48.6231020  93.0240110  78.3800990  48.6685020  94.4615600
  77.2822110  45.0236470  93.5762550  76.6530990  45.4921570  94.1248380
  77.3969940  44.1785690  94.0108740  84.7371830  39.0742130  79.7263750
  84.6565880  38.1596740  79.4555460  84.3236250  39.5709200  79.0203460
  75.2947650  36.1242850  76.2691170  74.4064350  36.4658820  76.1671050
  75.5788840  35.9243170  75.3772000  73.2580660  38.7248500  82.1530870
  73.8296770  37.9570700  82.1534510  73.2582200  39.0237260  81.2437480
  74.5005530  34.1332860  83.9399800  74.3208370  33.2358610  84.2202560
  74.0985610  34.6804730  84.6146750  83.3404030  36.3348720  81.8412110
  83.7168850  35.4620600  81.7285780  83.2423540  36.6707420  80.9502550
  77.4709040  34.7074350  77.3029550  77.5775790  35.6078080  77.6098310
  76.5601400  34.6592320  77.0124200  87.1228150  33.8299160  78.7740450
  87.9437770  33.3395730  78.8165930  87.1562230  34.4196820  79.5272290
  75.1192200  36.6293360  82.5482140  75.8002310  36.8931730  83.1669540
  74.8040250  35.7894230  82.8820150  79.3116770  37.6760720  81.6354730
  79.8194990  38.1741690  82.2759750  79.8430010  36.8995920  81.4594090
  91.4127700  35.8465910  85.3384080  90.7079870  36.2347620  84.8199190
  91.6785620  36.5416200  85.9405010  77.5952870  32.3159280  85.9018150
  77.5971310  32.8331670  85.0964050  76.7657180  31.8389460  85.8788080
  87.3589630  35.7699540  81.5467990  86.6545200  36.0584430  82.1271100
  87.7201790  36.5799650  81.1867550  77.2768200  34.0269240  83.9088600
  77.6185010  34.8711290  83.6142470  76.3384010  34.1752980  84.0253940
  90.4276550  35.2154330  81.9377200  89.4801460  35.2493310  82.0692630
  90.7526540  36.0293280  82.3226560  80.9596090  31.5151510  80.2333190
  81.2671070  30.9598400  79.5168690  80.0296790  31.6495970  80.0506180
  83.3345930  35.8517340  73.9660470  82.3949600  36.0131300  74.0512930
  83.6529190  36.5703020  73.4196460  89.8558690  40.5335860  83.9439500
  89.0277320  40.6028950  83.4689630  90.4509170  41.1190170  83.4755330
  86.8200700  37.3205180  84.8894370  86.4071880  38.1458890  85.1434360
  86.0876650  36.7350220  84.6970730  78.9533490  40.1065080  79.7513040
  78.5490490  39.3942330  79.2558940  79.0396610  39.7618320  80.6401080
  77.6662110  36.8808290  83.5312080  78.2176700  36.9903630  82.7565330
  78.1805620  37.2545890  84.2467310  85.5538840  40.3807450  74.4801310
  85.9932120  39.5429880  74.3339130  86.2667260  41.0136850  74.5665450
  89.1355980  31.6350260  72.7942350  88.8228640  31.7277090  73.6941420
  89.8968450  32.2131290  72.7439780  91.0900010  47.1276450  90.6466740
  91.5659730  47.6059340  91.3255820  91.7107170  47.0593940  89.9212240
  73.2923490  42.1725200  83.0588330  73.3703910  42.3073970  82.1144050
  73.9065170  41.4641090  83.2516450  90.3457270  36.3721760  88.7716490
  89.7301540  36.8801430  88.2431950  90.0253690  35.4720090  88.7142430
  73.3483010  43.2139370  85.5982790  73.5114050  42.7444730  84.7802160
  73.8135460  42.7062930  86.2631630  78.1201780  32.3445130  80.6343360
  77.6769930  33.1254670  80.3027880  78.6786770  32.6675020  81.3414300
  82.4071590  35.2113650  86.2378680  81.9450960  35.4196670  87.0498620
  82.0049700  34.3973000  85.9349350  87.4076100  36.4322600  87.3675340
  86.5569690  36.1328350  87.6884410  87.2477890  36.6764610  86.4559160
  84.5025810  37.9324350  89.4674130  84.8279220  37.0988100  89.1276360
  85.2906140  38.4552870  89.6152460  81.2360600  31.9655830  75.5149190
  80.6114780  31.9615700  76.2402500  81.1490720  31.0986790  75.1185160
  80.1577680  32.8892460  82.4932960  80.4550010  33.7955290  82.4124980
  80.7063240  32.4011240  81.8792530  85.1413760  37.4742070  76.9615260
  84.5422650  38.1977870  76.7778880  85.6893370  37.4118850  76.1791710
  80.3515210  38.3664280  89.0284880  80.2558810  37.4259010  88.8785280
  81.1947190  38.5879350  88.6332950  83.7478630  36.1105610  78.9918540
  84.1408200  36.4277810  78.1787230  84.1095480  35.2317490  79.1063060
  75.4825750  34.7777950  87.1818660  75.0889140  35.6253160  87.3891440
  74.7944150  34.1404320  87.3727300  82.0570800  34.8612920  90.2515400
  81.3669120  34.6685120  90.8861490  82.8003100  35.1447560  90.7839700
  72.7842800  32.7006410  81.2148740  72.4955850  33.2709270  81.9273720
  73.5288560  32.2210860  81.5779970  72.9713030  36.6426530  72.4251460
  72.8887700  37.5857290  72.5666450  72.6196090  36.5001440  71.5463810
  84.3333770  38.7011360  83.0869320  83.6014890  39.2098170  83.4359420
  83.9358110  37.8841340  82.7858100  80.7711160  35.3765560  81.4921810
  80.7747220  34.9355510  80.6426350  81.6662280  35.6982890  81.5993630
  76.6213540  35.2592050  80.4516020  76.2813590  35.7367280  81.2083070
  75.8590860  34.8057170  80.0917120  80.8331310  36.3777640  74.4828570
  80.9544130  36.3364120  75.4314390  80.4479820  37.2401790  74.3275300
  84.7959680  34.1545040  82.4992260  84.8132420  34.6053690  83.3434110
  84.5475260  33.2550680  82.7125700  79.8452810  38.6878780  73.8811870
  79.2769710  38.2397030  73.2547780  80.5541810  39.0471560  73.3477020
  88.2230430  31.5677220  88.3378640  88.5476200  30.8366880  88.8636620
  88.2586940  31.2490860  87.4359630  81.0719130  39.4367340  83.2387220
  81.4389260  38.9625910  83.9848560  80.8824190  40.3108910  83.5795560
  73.9359620  34.1811030  79.3680690  73.6506540  33.8166700  80.2059310
  73.8738480  33.4491490  78.7543830  78.8618500  38.4775980  85.5571430
  78.5575570  39.3567960  85.7821790  79.8164960  38.5375770  85.5928870
  83.6098210  33.0740290  76.0894060  82.7962820  32.5753460  76.0139370
  83.4160160  33.9138540  75.6730410  86.3246600  37.4459940  74.3856220
  87.2126220  37.7577170  74.2107560  86.2951690  36.5732190  73.9936800
  74.9182230  39.3178720  86.7042790  74.5597170  39.9832570  87.2916130
  74.6236790  38.4862270  87.0755410  78.1195350  39.7762960  89.5882340
  77.8195490  39.9220140  88.6910160  78.8906590  39.2168250  89.4955730
  88.5960870  38.7571780  73.8536080  88.5124590  39.1886000  73.0032520
  89.3155060  39.2170130  74.2862900  73.4290280  39.3169980  73.3277390
  74.2985130  39.5994780  73.6113310  72.9380600  40.1305850  73.2126200
  76.4936870  31.0480840  77.9208190  76.3651500  31.0398740  78.8693110
  75.6698890  31.3863930  77.5699200  73.4930800  32.8071960  87.3814890
  72.7789320  33.0068880  87.9867500  73.9125840  32.0311530  87.7529690
  73.7803390  46.7952220  88.3681420  73.8894510  45.8546960  88.2276810
  73.1283950  47.0606970  87.7195150  84.9869580  35.2994270  85.1316340
  85.3550400  34.4789480  85.4595910  84.1267780  35.3596160  85.5471990
  88.3531610  34.2551210  75.9403900  87.7244770  34.3596880  75.2262130
  87.8583530  34.4747990  76.7297780  80.3215640  36.5337160  77.3561780
  79.6131790  37.0023500  77.7975390  80.6060120  35.8759170  77.9906970
  81.9471570  37.9533860  85.3554310  82.4456820  38.4279680  86.0206160
  82.0894520  37.0297380  85.5624340  84.3531070  33.2587820  78.7957570
  84.2298850  33.2773950  77.8467080  85.3015630  33.3066760  78.9155970
  78.5250660  34.8422240  74.7312490  79.3741190  35.2792390  74.6652680
  78.1581930  35.1542500  75.5584550  89.1538430  34.1701820  86.1982700
  88.6512030  34.9107220  86.5376510  89.9695090  34.5585820  85.8819490
  77.4242080  41.0954600  73.2048020  78.1905350  40.9835960  73.7673450
  77.5016770  40.3992570  72.5524790  76.1188840  38.5279670  73.8880910
  76.1992430  37.5807180  73.9998310  77.0108590  38.8586550  73.9941570
  75.9261830  47.8621130  90.1801030  76.7274560  48.1833180  90.5936430
  75.4113650  47.5016710  90.9020940  84.7626460  43.9701000  90.1276440
  84.1564620  43.9932600  89.3872190  84.4580570  43.2384040  90.6643690
  86.1926830  47.6981290  88.7385850  87.1448580  47.6139310  88.6886090
  86.0455050  48.3623000  89.4119640  73.6459640  40.3494590  89.1237080
  74.1498660  39.7701870  89.6953310  72.9067060  40.6334820  89.6613450
  75.6782720  38.4924180  90.0187150  75.7188060  38.1938050  90.9272380
  76.5328220  38.8931790  89.8594670  77.6188530  37.0716280  87.9861640
  77.0884990  36.5807230  87.3584980  78.2876600  37.5000480  87.4519570
  81.9688750  40.1157340  72.4267760  82.4894410  39.4006360  72.0608910
  82.6157150  40.7543210  72.7268270  86.9888760  38.8781900  89.7541980
  87.5709530  38.1234220  89.6662460  87.1650530  39.4089340  88.9773460
  78.1060830  34.0378650  88.0658930  78.0117700  33.4199400  87.3409800
  77.5258220  34.7644940  87.8388840  80.8722270  32.5951890  85.0986320
  80.4239570  32.6176150  84.2531870  80.2387470  32.1970910  85.6956620
  83.6145720  39.2222400  87.1036600  83.7341930  38.6263540  87.8431440
  84.4739720  39.2592090  86.6837900  85.9533620  39.7759590  85.6799110
  85.4268840  40.3002210  85.0764250  86.2964960  40.4086980  86.3108840
  78.3520010  37.1652960  72.1248820  78.1509070  36.3020320  72.4862160
  78.1812060  37.0786320  71.1870420  80.3814490  35.7643750  88.3612420
  80.9714180  35.4559600  89.0490240  79.5634730  35.2923500  88.5172320
  85.2007920  35.3809560  88.5945440  84.5123440  34.7191100  88.5295430
  85.9213940  34.9347830  89.0393900  85.8308320  31.9761190  74.6535700
  86.1110610  31.1329090  75.0095120  85.0574050  32.2084300  75.1674450
  77.1502810  34.2653580  72.1126700  77.4528710  34.2721010  71.2045850
  77.8897400  33.9151440  72.6094360  80.3687740  33.2088200  73.0982900
  80.0209740  32.5312190  72.5185350  80.5700510  32.7477710  73.9126290
  73.8768950  47.2255620  83.1358390  73.4399940  47.4056420  83.9682540
  74.4446630  47.9830240  82.9940110  89.5131130  46.7272620  87.4235700
  88.9133120  46.7865180  86.6799620  89.6425030  45.7877600  87.5532550
  86.6583820  34.5317140  73.7165760  87.0768700  34.3448120  72.8762420
  86.3519880  33.6796190  74.0268690  74.7469310  40.1228420  84.0350610
  75.1142350  40.0355820  84.9146630  74.1780130  39.3594970  83.9357470
  89.5473170  38.5912800  87.0481080  89.3159260  38.3625550  86.1479030
  89.8077720  39.5112350  87.0025970  74.2985310  37.0337510  87.9409030
  73.4041360  37.0004270  88.2802740  74.8382860  37.2324300  88.7060280
  87.9861240  33.8169230  89.8260780  88.8631420  33.8252630  90.2094780
  87.9982080  33.0800070  89.2153130  72.9231460  36.9474780  75.4372600
  72.0195540  37.2104980  75.2624260  73.4072080  37.2185950  74.6572560
  89.4324510  37.6698770  80.7148800  89.9561990  37.1761420  80.0838970
  90.0183930  37.8049130  81.4596370  89.6114230  37.7538640  84.2368350
  88.6616940  37.7202180  84.3513340  89.7927240  38.6638750  84.0018120
  75.4658670  36.0040320  73.3466980  76.1750370  35.5823540  72.8614260
  74.7498610  36.0715550  72.7150330  75.1132830  32.0579650  72.3869630
  75.8360960  32.5988590  72.7050850  75.3857350  31.7843070  71.5111170
  88.9224480  36.9272120  76.6541210  89.4183600  36.6942990  77.4390090
  88.7240550  36.0883960  76.2378850  74.8025020  31.3085840  82.2892250
  75.4501210  30.7583220  81.8487410  75.2226860  31.5628990  83.1108060
  90.3511640  35.5633070  79.1878890  90.2410920  35.4089110  80.1261160
  91.1119230  35.0354010  78.9454300  88.6977360  31.5027200  85.6461890
  89.3349580  32.1161340  86.0121080  88.8452250  31.5387860  84.7011120
  91.2401910  33.3940990  72.4285030  92.1651220  33.2622170  72.2203320
  91.2177700  33.4733810  73.3821480  91.3140400  34.1651650  75.0541740
  90.5191900  34.0996770  75.5834650  91.5183680  35.1002290  75.0427090
  74.5557020  31.4641510  85.0317570  74.2071840  31.9205330  85.7975750
  74.2244720  30.5698640  85.1140000  82.0681840  32.6553390  88.5536990
  82.0070730  33.2475220  89.3032400  83.0082220  32.5479350  88.4087250
  84.7056400  32.3123450  88.1929280  85.3196810  32.6302740  87.5310360
  85.2505960  31.8272040  88.8125140  75.2277660  30.9917710  88.3068340
  75.7760650  30.8105760  87.5434450  75.2932970  30.2011820  88.8424650
  85.4464440  30.8755590  84.5198570  84.5724280  31.2090700  84.3171500
  85.3375190  30.4028770  85.3450440  86.3536420  33.0826460  85.9040290
  86.0249780  32.2678220  85.5242020  87.3018720  33.0396270  85.7805980
  83.1939260  31.7925430  83.4591480  82.4111050  32.2670930  83.7388240
  82.9002190  30.8880260  83.3504660  87.7460330  32.4948530  81.5040570
  88.1868420  32.4393630  80.6562170  87.4767920  33.4106540  81.5750750
  89.6098900  32.1263770  79.5149390  89.5487300  31.1824990  79.3680410
  90.3890930  32.2343860  80.0602850  74.5379670  32.0972910  75.9805200
  75.2959030  32.2101790  75.4069230  74.0756840  32.9342110  75.9348630
  81.0793480  34.2112180  78.9707510  80.2667990  33.8369070  78.6303390
  81.5835120  33.4557260  79.2728700  85.5818460  30.8754630  80.2090580
  86.1847830  31.4474840  80.6839100  84.8411450  31.4394070  79.9864480
  88.7253060  31.2776190  75.4830860  88.9203690  32.1759640  75.7498290
  87.9382930  31.0463270  75.9763810  76.9104820  32.6236960  74.5207170
  77.4397580  31.8366760  74.3915120  77.5433140  33.3028150  74.7542700
  79.1042660  32.3612100  77.5752560  78.4745400  31.6599410  77.7422690
  78.5647800  33.1216230  77.3585720  82.0434610  48.9751330  90.2463170
  82.9701920  48.7395600  90.2899130  82.0285040  49.8023330  89.7649200
  79.2298220  31.6396080  90.0105050  78.9482490  32.1429680  89.2465870
  79.6117920  30.8417830  89.6447180  85.8313680  31.0549660  90.5885520
  85.7179130  31.3744270  91.4837040  86.6483420  31.4562170  90.2922800
  88.6112170  48.2021190  90.0704210  89.4037490  47.7070420  89.8630170
  88.9045320  48.8811330  90.6779820  84.7371830  39.0742130  60.9520260
  84.6565880  38.1596740  60.6811970  84.3236250  39.5709200  60.2459970
  82.8689870  40.8521150  62.8329530  82.0931970  40.3721590  63.1228100
  83.5202800  40.1726800  62.6585690  76.8855700  41.1640960  63.7105290
  76.0540580  40.9089670  64.1101800  77.4936680  41.2351730  64.4463210
  86.8897300  45.2581340  61.6128660  86.4278830  44.4868580  61.9415830
  87.7022850  45.2847410  62.1181110  76.8656960  45.1981050  63.9063310
  77.1685000  44.3078790  63.7273530  77.6100550  45.7551270  63.6785560
  75.2947650  36.1242850  57.4947680  74.4064350  36.4658820  57.3927560
  75.5788840  35.9243170  56.6028510  73.2580660  38.7248500  63.3787380
  73.8296770  37.9570700  63.3791020  73.2582200  39.0237260  62.4693990
  74.5005530  34.1332860  65.1656310  74.3208370  33.2358610  65.4459070
  74.0985610  34.6804730  65.8403260  83.3404030  36.3348720  63.0668620
  83.7168850  35.4620600  62.9542290  83.2423540  36.6707420  62.1759060
  77.4709040  34.7074350  58.5286060  77.5775790  35.6078080  58.8354820
  76.5601400  34.6592320  58.2380710  87.1228150  33.8299160  59.9996960
  87.9437770  33.3395730  60.0422440  87.1562230  34.4196820  60.7528800
  75.1192200  36.6293360  63.7738650  75.8002310  36.8931730  64.3926050
  74.8040250  35.7894230  64.1076660  79.3116770  37.6760720  62.8611240
  79.8194990  38.1741690  63.5016260  79.8430010  36.8995920  62.6850600
  91.4127700  35.8465910  66.5640590  90.7079870  36.2347620  66.0455700
  91.6785620  36.5416200  67.1661520  77.5952870  32.3159280  67.1274660
  77.5971310  32.8331670  66.3220560  76.7657180  31.8389460  67.1044590
  83.9823960  42.4278590  58.6264560  83.3641230  42.8928040  58.0627280
  84.4947210  43.1206070  59.0434070  78.8455720  41.9554460  65.3048160
  78.5125100  42.5823380  65.9469230  79.0222400  42.4816340  64.5249830
  87.3589630  35.7699540  62.7724500  86.6545200  36.0584430  63.3527610
  87.7201790  36.5799650  62.4124060  77.2768200  34.0269240  65.1345110
  77.6185010  34.8711290  64.8398980  76.3384010  34.1752980  65.2510450
  78.0574820  43.9235260  67.1197340  78.6748820  44.5986340  66.8381790
  77.1967940  44.3323240  67.0284840  73.3507160  43.1135120  56.0004190
  72.9735140  43.6022220  55.2689090  73.6080230  43.7860400  56.6310720
  88.9752410  45.3874670  65.0351980  88.2915930  46.0573780  65.0268650
  89.5146700  45.5855320  64.2696840  90.4276550  35.2154330  63.1633710
  89.4801460  35.2493310  63.2949140  90.7526540  36.0293280  63.5483070
  80.9596090  31.5151510  61.4589700  81.2671070  30.9598400  60.7425200
  80.0296790  31.6495970  61.2762690  87.8056570  43.9535020  58.8387330
  87.6952900  43.0109350  58.9636750  87.8024820  44.3150660  59.7250090
  85.9096590  42.1348640  65.0779770  86.3265380  41.9208750  64.2433230
  86.6336410  42.3921430  65.6488390  83.3476850  39.5800340  58.1949820
  82.4206130  39.5137720  58.4238290  83.5001670  40.5180470  58.0805060
  83.3345930  35.8517340  55.1916980  82.3949600  36.0131300  55.2769440
  83.6529190  36.5703020  54.6452970  89.8558690  40.5335860  65.1696010
  89.0277320  40.6028950  64.6946140  90.4509170  41.1190170  64.7011840
  87.3774140  41.1420640  58.6985070  86.7586560  40.8040190  58.0511370
  87.3598590  40.4980400  59.4064260  86.8200700  37.3205180  66.1150880
  86.4071880  38.1458890  66.3690870  86.0876650  36.7350220  65.9227240
  78.9533490  40.1065080  60.9769550  78.5490490  39.3942330  60.4815450
  79.0396610  39.7618320  61.8657590  79.4215190  43.7932640  63.1408760
  79.1243480  43.1878110  62.4616540  80.3715010  43.8309950  63.0298120
  77.6662110  36.8808290  64.7568590  78.2176700  36.9903630  63.9821840
  78.1805620  37.2545890  65.4723820  78.5133620  43.5314330  69.7916560
  77.6162150  43.7554300  70.0389960  78.5386490  43.6549270  68.8427960
  85.5538840  40.3807450  55.7057820  85.9932120  39.5429880  55.5595640
  86.2667260  41.0136850  55.7921960  77.3404840  40.4027650  68.3673930
  77.2012610  41.2750450  68.7361330  76.4586200  40.0600460  68.2221870
  89.1355980  31.6350260  54.0198860  88.8228640  31.7277090  54.9197930
  89.8968450  32.2131290  53.9696290  75.6538120  39.0010060  58.4776200
  75.5335720  39.7272150  57.8657470  75.3439010  38.2312970  58.0004110
  73.2923490  42.1725200  64.2844840  73.3703910  42.3073970  63.3400560
  73.9065170  41.4641090  64.4772960  74.5371120  43.8725390  60.6951020
  74.1299200  44.0139980  59.8404620  75.4284130  43.5885550  60.4922230
  90.4933260  44.3189300  69.0323260  90.6196320  44.0801180  68.1140440
  90.5354640  43.4873840  69.5045340  86.3304400  48.3072640  57.0302070
  86.1705540  48.0175580  57.9283900  86.1651110  47.5312770  56.4947300
  78.8092780  48.0871170  58.8073690  78.6335260  47.1706710  58.5941490
  77.9548520  48.4458460  59.0471490  86.0330530  45.8160200  55.5900070
  85.3395690  45.8137490  54.9302350  86.7753390  45.3919520  55.1594240
  73.3483010  43.2139370  66.8239300  73.5114050  42.7444730  66.0058670
  73.8135460  42.7062930  67.4888140  78.1201780  32.3445130  61.8599870
  77.6769930  33.1254670  61.5284390  78.6786770  32.6675020  62.5670810
  82.4071590  35.2113650  67.4635190  81.9450960  35.4196670  68.2755130
  82.0049700  34.3973000  67.1605860  87.4076100  36.4322600  68.5931850
  86.5569690  36.1328350  68.9140920  87.2477890  36.6764610  67.6815670
  84.5025810  37.9324350  70.6930640  84.8279220  37.0988100  70.3532870
  85.2906140  38.4552870  70.8408970  81.2360600  31.9655830  56.7405700
  80.6114780  31.9615700  57.4659010  81.1490720  31.0986790  56.3441670
  80.1577680  32.8892460  63.7189470  80.4550010  33.7955290  63.6381490
  80.7063240  32.4011240  63.1049040  77.9116000  37.4678700  59.5881120
  77.6856920  37.2515870  60.4927740  77.1308530  37.9007160  59.2427090
  85.1413760  37.4742070  58.1871770  84.5422650  38.1977870  58.0035390
  85.6893370  37.4118850  57.4048220  80.3515210  38.3664280  70.2541390
  80.2558810  37.4259010  70.1041790  81.1947190  38.5879350  69.8589460
  83.7478630  36.1105610  60.2175050  84.1408200  36.4277810  59.4043740
  84.1095480  35.2317490  60.3319570  75.4825750  34.7777950  68.4075170
  75.0889140  35.6253160  68.6147950  74.7944150  34.1404320  68.5983810
  82.0570800  34.8612920  71.4771910  81.3669120  34.6685120  72.1118000
  82.8003100  35.1447560  72.0096210  72.7842800  32.7006410  62.4405250
  72.4955850  33.2709270  63.1530230  73.5288560  32.2210860  62.8036480
  72.9713030  36.6426530  53.6507970  72.8887700  37.5857290  53.7922960
  72.6196090  36.5001440  52.7720320  84.3333770  38.7011360  64.3125830
  83.6014890  39.2098170  64.6615930  83.9358110  37.8841340  64.0114610
  80.7711160  35.3765560  62.7178320  80.7747220  34.9355510  61.8682860
  81.6662280  35.6982890  62.8250140  76.6213540  35.2592050  61.6772530
  76.2813590  35.7367280  62.4339580  75.8590860  34.8057170  61.3173630
  80.8331310  36.3777640  55.7085080  80.9544130  36.3364120  56.6570900
  80.4479820  37.2401790  55.5531810  84.7959680  34.1545040  63.7248770
  84.8132420  34.6053690  64.5690620  84.5475260  33.2550680  63.9382210
  79.8452810  38.6878780  55.1068380  79.2769710  38.2397030  54.4804290
  80.5541810  39.0471560  54.5733530  88.2230430  31.5677220  69.5635150
  88.5476200  30.8366880  70.0893130  88.2586940  31.2490860  68.6616140
  74.9221990  42.5890800  68.9835110  74.5376780  41.9484470  69.5818070
  75.2334180  43.2926920  69.5529840  81.0719130  39.4367340  64.4643730
  81.4389260  38.9625910  65.2105070  80.8824190  40.3108910  64.8052070
  73.9359620  34.1811030  60.5937200  73.6506540  33.8166700  61.4315820
  73.8738480  33.4491490  59.9800340  78.8618500  38.4775980  66.7827940
  78.5575570  39.3567960  67.0078300  79.8164960  38.5375770  66.8185380
  77.3900290  42.6836970  57.3794790  76.6162550  42.1434590  57.2193510
  78.1194920  42.1643580  57.0412550  88.1488270  41.6802330  63.1721180
  88.8687390  42.1757620  62.7817290  87.9470090  41.0020220  62.5275050
  83.6098210  33.0740290  57.3150570  82.7962820  32.5753460  57.2395880
  83.4160160  33.9138540  56.8986920  83.5307070  41.7511390  69.0590180
  83.4644380  40.8307060  68.8047770  82.9012210  41.8486830  69.7734820
  86.3246600  37.4459940  55.6112730  87.2126220  37.7577170  55.4364070
  86.2951690  36.5732190  55.2193310  77.4337690  42.3517350  61.0173600
  77.9516360  41.5485610  60.9630490  76.9821710  42.2896490  61.8590430
  82.3207190  43.6183630  56.2900900  82.6622890  44.3625860  55.7944220
  81.4919900  43.9314750  56.6525730  74.9182230  39.3178720  67.9299300
  74.5597170  39.9832570  68.5172640  74.6236790  38.4862270  68.3011920
  78.1195350  39.7762960  70.8138850  77.8195490  39.9220140  69.9166670
  78.8906590  39.2168250  70.7212240  88.5960870  38.7571780  55.0792590
  88.5124590  39.1886000  54.2289030  89.3155060  39.2170130  55.5119410
  89.6248120  45.6114040  57.8074720  88.9824280  44.9569660  58.0818440
  89.2378780  46.0169130  57.0315390  85.2034600  42.9399470  61.6546410
  85.5558420  42.3427600  60.9947780  84.3196930  42.6143700  61.8254660
  81.2897880  43.6997160  59.0616820  81.9769010  44.2466370  59.4424410
  80.5030300  44.2437890  59.0966430  73.4290280  39.3169980  54.5533900
  74.2985130  39.5994780  54.8369820  72.9380600  40.1305850  54.4382710
  80.5925090  40.7043190  58.6742180  81.0487870  41.5148440  58.9002370
  80.2413300  40.3866330  59.5060670  76.4936870  31.0480840  59.1464700
  76.3651500  31.0398740  60.0949620  75.6698890  31.3863930  58.7955710
  88.0145500  44.5030500  54.3451070  87.7883080  43.7860940  54.9375710
  87.6241700  44.2542940  53.5072820  73.7961530  48.5297360  55.1195530
  74.1559170  49.1286700  54.4652800  73.6553870  49.0757250  55.8930560
  73.4930800  32.8071960  68.6071400  72.7789320  33.0068880  69.2124010
  73.9125840  32.0311530  68.9786200  87.5961750  42.4202440  56.0065230
  87.3083450  42.8815130  56.7943110  88.3913920  41.9600210  56.2749450
  79.8130150  45.9128560  55.9369200  79.8040250  46.6458250  55.3213710
  78.8928510  45.6660140  56.0296160  75.4136790  41.1343450  56.6815960
  74.8064740  41.8742350  56.6911260  75.8886140  41.2242810  55.8554160
  84.9869580  35.2994270  66.3572850  85.3550400  34.4789480  66.6852420
  84.1267780  35.3596160  66.7728500  88.3531610  34.2551210  57.1660410
  87.7244770  34.3596880  56.4518640  87.8583530  34.4747990  57.9554290
  82.7989750  45.9756800  54.5994390  82.9001730  45.7720790  53.6696370
  81.8991490  45.7215080  54.8042170  80.3215640  36.5337160  58.5818290
  79.6131790  37.0023500  59.0231900  80.6060120  35.8759170  59.2163480
  81.9471570  37.9533860  66.5810820  82.4456820  38.4279680  67.2462670
  82.0894520  37.0297380  66.7880850  84.3531070  33.2587820  60.0214080
  84.2298850  33.2773950  59.0723590  85.3015630  33.3066760  60.1412480
  78.5250660  34.8422240  55.9569000  79.3741190  35.2792390  55.8909190
  78.1581930  35.1542500  56.7841060  89.1538430  34.1701820  67.4239210
  88.6512030  34.9107220  67.7633020  89.9695090  34.5585820  67.1076000
  87.4460440  39.4135000  60.8700570  86.5050580  39.4285230  61.0448260
  87.7604510  38.6270960  61.3160870  77.4242080  41.0954600  54.4304530
  78.1905350  40.9835960  54.9929960  77.5016770  40.3992570  53.7781300
  76.1188840  38.5279670  55.1137420  76.1992430  37.5807180  55.2254820
  77.0108590  38.8586550  55.2198080  89.4486020  46.5843850  62.5454830
  89.5733440  47.4075020  63.0178640  90.3151580  46.3734580  62.1978980
  76.9203550  48.6775060  62.2171960  77.6566030  48.1290520  62.4880530
  77.3044470  49.5431070  62.0777950  73.8049030  44.7448630  58.0913470
  72.8788810  44.9869770  58.0818880  74.2705460  45.5722890  57.9698220
  80.0305860  47.8505370  54.0397530  80.8234470  48.1394200  53.5879320
  79.5110210  47.4197540  53.3610010  89.0836030  47.0775500  55.4634270
  88.7977540  46.6640640  54.6488450  88.8855580  48.0063210  55.3434790
  73.6459640  40.3494590  70.3493590  74.1498660  39.7701870  70.9209820
  72.9067060  40.6334820  70.8869960  80.5483260  43.0708780  53.9039880
  80.4433900  42.4561130  54.6301260  80.3807480  42.5474670  53.1202890
  80.6997580  41.7565580  69.8829110  79.9343250  42.3250580  69.7983780
  80.8813540  41.4641790  68.9897340  83.7885990  42.1328810  54.5081870
  83.2396090  42.5798110  55.1524610  84.4105250  41.6278060  55.0319540
  75.6782720  38.4924180  71.2443660  75.7188060  38.1938050  72.1528890
  76.5328220  38.8931790  71.0851180  79.4561110  41.0919730  56.4047170
  79.8777530  40.9259600  57.2478560  79.5811950  40.2819960  55.9102310
  77.6188530  37.0716280  69.2118150  77.0884990  36.5807230  68.5841490
  78.2876600  37.5000480  68.6776080  81.9688750  40.1157340  53.6524270
  82.4894410  39.4006360  53.2865420  82.6157150  40.7543210  53.9524780
  86.5166590  41.5385740  68.9759340  86.9307610  41.6930820  69.8249760
  85.5817590  41.6640960  69.1385120  86.9888760  38.8781900  70.9798490
  87.5709530  38.1234220  70.8918970  87.1650530  39.4089340  70.2029970
  78.1060830  34.0378650  69.2915440  78.0117700  33.4199400  68.5666310
  77.5258220  34.7644940  69.0645350  80.8722270  32.5951890  66.3242830
  80.4239570  32.6176150  65.4788380  80.2387470  32.1970910  66.9213130
  81.2781820  41.4906220  66.9455270  81.6969930  42.3338950  66.7731510
  80.3590450  41.6278260  66.7162050  83.6145720  39.2222400  68.3293110
  83.7341930  38.6263540  69.0687950  84.4739720  39.2592090  67.9094410
  85.9533620  39.7759590  66.9055620  85.4268840  40.3002210  66.3020760
  86.2964960  40.4086980  67.5365350  78.3520010  37.1652960  53.3505330
  78.1509070  36.3020320  53.7118670  78.1812060  37.0786320  52.4126930
  80.3814490  35.7643750  69.5868930  80.9714180  35.4559600  70.2746750
  79.5634730  35.2923500  69.7428830  85.2007920  35.3809560  69.8201950
  84.5123440  34.7191100  69.7551940  85.9213940  34.9347830  70.2650410
  85.8308320  31.9761190  55.8792210  86.1110610  31.1329090  56.2351630
  85.0574050  32.2084300  56.3930960  77.1502810  34.2653580  53.3383210
  77.4528710  34.2721010  52.4302360  77.8897400  33.9151440  53.8350870
  80.3687740  33.2088200  54.3239410  80.0209740  32.5312190  53.7441860
  80.5700510  32.7477710  55.1382800  82.5336780  48.1968950  55.9426010
  83.4287570  48.5353920  55.9644770  82.5654410  47.4748360  55.3150290
  76.1732940  43.5696000  54.1713010  76.6107810  44.1125670  54.8270590
  76.6580670  42.7442950  54.1809350  73.3878740  46.3585030  61.6233270
  73.7181750  45.4906090  61.3911910  73.8169740  46.5643550  62.4538230
  77.9840660  44.6894040  59.2835240  77.6836200  44.5659010  60.1839150
  77.8778150  43.8302630  58.8750970  73.8768950  47.2255620  64.3614900
  73.4399940  47.4056420  65.1939050  74.4446630  47.9830240  64.2196620
  89.5131130  46.7272620  68.6492210  88.9133120  46.7865180  67.9056130
  89.6425030  45.7877600  68.7789060  90.7532580  44.4690440  53.9861920
  89.9225540  44.5367090  54.4569150  90.9304410  45.3594560  53.6828780
  90.2089040  41.2137920  56.4896120  90.9707950  41.7834570  56.5955810
  90.2243410  40.6465120  57.2604430  73.7093380  39.7375850  60.7203780
  73.0542220  39.4687490  60.0763480  74.5471330  39.6280330  60.2705760
  91.2149010  42.0688020  61.3338050  91.5857840  41.2855340  60.9274020
  91.8550940  42.7577120  61.1555350  88.1982770  43.4524600  66.7468370
  87.3842610  43.8821760  67.0094160  88.6056970  44.0643010  66.1337420
  90.2608210  41.5072290  53.6468640  90.5357050  42.4151170  53.5187860
  90.0718950  41.4434820  54.5830630  86.6583820  34.5317140  54.9422270
  87.0768700  34.3448120  54.1018930  86.3519880  33.6796190  55.2525200
  90.1573550  39.4441280  58.6398070  89.7817150  38.6769210  58.2079360
  89.4276670  39.8263980  59.1273000  74.7469310  40.1228420  65.2607120
  75.1142350  40.0355820  66.1403140  74.1780130  39.3594970  65.1613980
  74.2985310  37.0337510  69.1665540  73.4041360  37.0004270  69.5059250
  74.8382860  37.2324300  69.9316790  87.9861240  33.8169230  71.0517290
  88.8631420  33.8252630  71.4351290  87.9982080  33.0800070  70.4409640
  72.9231460  36.9474780  56.6629110  72.0195540  37.2104980  56.4880770
  73.4072080  37.2185950  55.8829070  89.4324510  37.6698770  61.9405310
  89.9561990  37.1761420  61.3095480  90.0183930  37.8049130  62.6852880
  89.6114230  37.7538640  65.4624860  88.6616940  37.7202180  65.5769850
  89.7927240  38.6638750  65.2274630  75.4658670  36.0040320  54.5723490
  76.1750370  35.5823540  54.0870770  74.7498610  36.0715550  53.9406840
  75.1132830  32.0579650  53.6126140  75.8360960  32.5988590  53.9307360
  75.3857350  31.7843070  52.7367680  88.9224480  36.9272120  57.8797720
  89.4183600  36.6942990  58.6646600  88.7240550  36.0883960  57.4635360
  74.8025020  31.3085840  63.5148760  75.4501210  30.7583220  63.0743920
  75.2226860  31.5628990  64.3364570  90.3511640  35.5633070  60.4135400
  90.2410920  35.4089110  61.3517670  91.1119230  35.0354010  60.1710810
  88.6977360  31.5027200  66.8718400  89.3349580  32.1161340  67.2377590
  88.8452250  31.5387860  65.9267630  91.2401910  33.3940990  53.6541540
  92.1651220  33.2622170  53.4459830  91.2177700  33.4733810  54.6077990
  91.3140400  34.1651650  56.2798250  90.5191900  34.0996770  56.8091160
  91.5183680  35.1002290  56.2683600  88.2558820  48.2043200  60.2736640
  88.8517890  47.8827770  59.5971060  88.5136970  47.7315020  61.0649910
  74.5557020  31.4641510  66.2574080  74.2071840  31.9205330  67.0232260
  74.2244720  30.5698640  66.3396510  82.0681840  32.6553390  69.7793500
  82.0070730  33.2475220  70.5288910  83.0082220  32.5479350  69.6343760
  84.7056400  32.3123450  69.4185790  85.3196810  32.6302740  68.7566870
  85.2505960  31.8272040  70.0381650  91.1231580  48.2115080  66.8247630
  90.6289860  48.6083950  66.1074760  90.5144870  47.5864290  67.2184910
  75.2277660  30.9917710  69.5324850  75.7760650  30.8105760  68.7690960
  75.2932970  30.2011820  70.0681160  85.4464440  30.8755590  65.7455080
  84.5724280  31.2090700  65.5428010  85.3375190  30.4028770  66.5706950
  86.3536420  33.0826460  67.1296800  86.0249780  32.2678220  66.7498530
  87.3018720  33.0396270  67.0062490  88.8071030  48.8538500  64.1034370
  88.3474000  49.6054310  63.7292390  88.1783490  48.1344970  64.0449170
  79.2366750  47.1626740  63.2782500  79.7531770  46.5514100  62.7530760
  79.8864130  47.6655520  63.7693510  83.1939260  31.7925430  64.6847990
  82.4111050  32.2670930  64.9644750  82.9002190  30.8880260  64.5761170
  87.7460330  32.4948530  62.7297080  88.1868420  32.4393630  61.8818680
  87.4767920  33.4106540  62.8007260  89.6098900  32.1263770  60.7405900
  89.5487300  31.1824990  60.5936920  90.3890930  32.2343860  61.2859360
  73.9151650  48.2656130  59.7029850  73.7473690  47.6326810  60.4011740
  73.0486160  48.4715530  59.3524040  74.5379670  32.0972910  57.2061710
  75.2959030  32.2101790  56.6325740  74.0756840  32.9342110  57.1605140
  81.0793480  34.2112180  60.1964020  80.2667990  33.8369070  59.8559900
  81.5835120  33.4557260  60.4985210  85.5818460  30.8754630  61.4347090
  86.1847830  31.4474840  61.9095610  84.8411450  31.4394070  61.2120990
  88.7253060  31.2776190  56.7087370  88.9203690  32.1759640  56.9754800
  87.9382930  31.0463270  57.2020320  75.5214350  46.9589360  57.1479990
  74.9961970  47.3397390  56.4441950  75.4458930  47.5840130  57.8689700
  76.9104820  32.6236960  55.7463680  77.4397580  31.8366760  55.6171630
  77.5433140  33.3028150  55.9799210  79.1042660  32.3612100  58.8009070
  78.4745400  31.6599410  58.9679200  78.5647800  33.1216230  58.5842230
  90.2779670  48.5176900  58.4693930  90.4531860  47.8314640  57.8254850
  89.5801240  49.0423950  58.0770600  79.2298220  31.6396080  71.2361560
  78.9482490  32.1429680  70.4722380  79.6117920  30.8417830  70.8703690
  78.1207320  48.9071740  56.0229240  78.8526140  48.6231020  55.4753130
  78.3800990  48.6685020  56.9128620  77.2822110  45.0236470  56.0275570
  76.6530990  45.4921570  56.5761400  77.3969940  44.1785690  56.4621760
  85.8313680  31.0549660  71.8142030  85.7179130  31.3744270  72.7093550
  86.6483420  31.4562170  71.5179310  88.6112170  48.2021190  71.2960720
  89.4037490  47.7070420  71.0886680  88.9045320  48.8811330  71.9036330
  84.7371830  39.0742130  42.1776770  84.6565880  38.1596740  41.9068480
  84.3236250  39.5709200  41.4716480  82.8689870  40.8521150  44.0586040
  82.0931970  40.3721590  44.3484610  83.5202800  40.1726800  43.8842200
  76.8855700  41.1640960  44.9361800  76.0540580  40.9089670  45.3358310
  77.4936680  41.2351730  45.6719720  86.8897300  45.2581340  42.8385170
  86.4278830  44.4868580  43.1672340  87.7022850  45.2847410  43.3437620
  76.8656960  45.1981050  45.1319820  77.1685000  44.3078790  44.9530040
  77.6100550  45.7551270  44.9042070  75.2947650  36.1242850  38.7204190
  74.4064350  36.4658820  38.6184070  75.5788840  35.9243170  37.8285020
  83.1160610  47.5439350  42.4589160  82.4972050  47.9996850  41.8883600
  83.9712390  47.6990810  42.0578860  82.3098860  43.5278340  44.0656200
  82.2407140  42.5868280  43.9045330  83.0718720  43.6179750  44.6378770
  74.5005530  34.1332860  46.3912820  74.3208370  33.2358610  46.6715580
  74.0985610  34.6804730  47.0659770  83.3404030  36.3348720  44.2925130
  83.7168850  35.4620600  44.1798800  83.2423540  36.6707420  43.4015570
  77.4709040  34.7074350  39.7542570  77.5775790  35.6078080  40.0611330
  76.5601400  34.6592320  39.4637220  87.1228150  33.8299160  41.2253470
  87.9437770  33.3395730  41.2678950  87.1562230  34.4196820  41.9785310
  75.1192200  36.6293360  44.9995160  75.8002310  36.8931730  45.6182560
  74.8040250  35.7894230  45.3333170  79.3116770  37.6760720  44.0867750
  79.8194990  38.1741690  44.7272770  79.8430010  36.8995920  43.9107110
  91.4127700  35.8465910  47.7897100  90.7079870  36.2347620  47.2712210
  91.6785620  36.5416200  48.3918030  77.5952870  32.3159280  48.3531170
  77.5971310  32.8331670  47.5477070  76.7657180  31.8389460  48.3301100
  83.9823960  42.4278590  39.8521070  83.3641230  42.8928040  39.2883790
  84.4947210  43.1206070  40.2690580  78.8455720  41.9554460  46.5304670
  78.5125100  42.5823380  47.1725740  79.0222400  42.4816340  45.7506340
  87.3589630  35.7699540  43.9981010  86.6545200  36.0584430  44.5784120
  87.7201790  36.5799650  43.6380570  77.2768200  34.0269240  46.3601620
  77.6185010  34.8711290  46.0655490  76.3384010  34.1752980  46.4766960
  78.0574820  43.9235260  48.3453850  78.6748820  44.5986340  48.0638300
  77.1967940  44.3323240  48.2541350  73.3507160  43.1135120  37.2260700
  72.9735140  43.6022220  36.4945600  73.6080230  43.7860400  37.8567230
  88.9752410  45.3874670  46.2608490  88.2915930  46.0573780  46.2525160
  89.5146700  45.5855320  45.4953350  90.4276550  35.2154330  44.3890220
  89.4801460  35.2493310  44.5205650  90.7526540  36.0293280  44.7739580
  80.9596090  31.5151510  42.6846210  81.2671070  30.9598400  41.9681710
  80.0296790  31.6495970  42.5019200  86.5111150  47.2318800  44.9753670
  86.5238310  46.8281090  44.1075930  85.9586370  48.0066090  44.8715100
  87.8056570  43.9535020  40.0643840  87.6952900  43.0109350  40.1893260
  87.8024820  44.3150660  40.9506600  85.9096590  42.1348640  46.3036280
  86.3265380  41.9208750  45.4689740  86.6336410  42.3921430  46.8744900
  83.3476850  39.5800340  39.4206330  82.4206130  39.5137720  39.6494800
  83.5001670  40.5180470  39.3061570  83.3345930  35.8517340  36.4173490
  82.3949600  36.0131300  36.5025950  83.6529190  36.5703020  35.8709480
  89.8558690  40.5335860  46.3952520  89.0277320  40.6028950  45.9202650
  90.4509170  41.1190170  45.9268350  87.3774140  41.1420640  39.9241580
  86.7586560  40.8040190  39.2767880  87.3598590  40.4980400  40.6320770
  86.8200700  37.3205180  47.3407390  86.4071880  38.1458890  47.5947380
  86.0876650  36.7350220  47.1483750  78.9533490  40.1065080  42.2026060
  78.5490490  39.3942330  41.7071960  79.0396610  39.7618320  43.0914100
  79.4215190  43.7932640  44.3665270  79.1243480  43.1878110  43.6873050
  80.3715010  43.8309950  44.2554630  77.6662110  36.8808290  45.9825100
  78.2176700  36.9903630  45.2078350  78.1805620  37.2545890  46.6980330
  87.5100800  47.3664510  48.0288370  87.0331360  48.1736700  47.8360980
  86.8262590  46.7142840  48.1814580  78.5133620  43.5314330  51.0173070
  77.6162150  43.7554300  51.2646470  78.5386490  43.6549270  50.0684470
  85.5538840  40.3807450  36.9314330  85.9932120  39.5429880  36.7852150
  86.2667260  41.0136850  37.0178470  77.3404840  40.4027650  49.5930440
  77.2012610  41.2750450  49.9617840  76.4586200  40.0600460  49.4478380
  83.6634220  45.3203520  40.8995570  84.1030130  46.0627850  40.4850960
  83.6021110  45.5630090  41.8234530  79.1385190  46.3449350  51.8015590
  79.1100620  46.7492300  50.9344020  78.9750160  45.4159710  51.6387190
  89.1355980  31.6350260  35.2455370  88.8228640  31.7277090  36.1454440
  89.8968450  32.2131290  35.1952800  75.6538120  39.0010060  39.7032710
  75.5335720  39.7272150  39.0913980  75.3439010  38.2312970  39.2260620
  91.0900010  47.1276450  53.0979760  91.5659730  47.6059340  53.7768840
  91.7107170  47.0593940  52.3725260  73.2923490  42.1725200  45.5101350
  73.3703910  42.3073970  44.5657070  73.9065170  41.4641090  45.7029470
  74.5371120  43.8725390  41.9207530  74.1299200  44.0139980  41.0661130
  75.4284130  43.5885550  41.7178740  90.4933260  44.3189300  50.2579770
  90.6196320  44.0801180  49.3396950  90.5354640  43.4873840  50.7301850
  84.3550000  48.0217300  48.8274580  84.8694670  47.9325310  49.6297010
  83.5119080  48.3677000  49.1202490  86.3304400  48.3072640  38.2558580
  86.1705540  48.0175580  39.1540410  86.1651110  47.5312770  37.7203810
  78.8092780  48.0871170  40.0330200  78.6335260  47.1706710  39.8198000
  77.9548520  48.4458460  40.2728000  86.0330530  45.8160200  36.8156580
  85.3395690  45.8137490  36.1558860  86.7753390  45.3919520  36.3850750
  85.5980460  47.4422910  40.8905070  86.0537410  46.6612290  41.2043690
  85.9372980  48.1529730  41.4346250  90.3457270  36.3721760  51.2229510
  89.7301540  36.8801430  50.6944970  90.0253690  35.4720090  51.1655450
  73.3483010  43.2139370  48.0495810  73.5114050  42.7444730  47.2315180
  73.8135460  42.7062930  48.7144650  78.1201780  32.3445130  43.0856380
  77.6769930  33.1254670  42.7540900  78.6786770  32.6675020  43.7927320
  82.4071590  35.2113650  48.6891700  81.9450960  35.4196670  49.5011640
  82.0049700  34.3973000  48.3862370  87.4076100  36.4322600  49.8188360
  86.5569690  36.1328350  50.1397430  87.2477890  36.6764610  48.9072180
  84.5025810  37.9324350  51.9187150  84.8279220  37.0988100  51.5789380
  85.2906140  38.4552870  52.0665480  81.2360600  31.9655830  37.9662210
  80.6114780  31.9615700  38.6915520  81.1490720  31.0986790  37.5698180
  80.1577680  32.8892460  44.9445980  80.4550010  33.7955290  44.8638000
  80.7063240  32.4011240  44.3305550  77.9116000  37.4678700  40.8137630
  77.6856920  37.2515870  41.7184250  77.1308530  37.9007160  40.4683600
  85.1413760  37.4742070  39.4128280  84.5422650  38.1977870  39.2291900
  85.6893370  37.4118850  38.6304730  80.3515210  38.3664280  51.4797900
  80.2558810  37.4259010  51.3298300  81.1947190  38.5879350  51.0845970
  83.7478630  36.1105610  41.4431560  84.1408200  36.4277810  40.6300250
  84.1095480  35.2317490  41.5576080  75.4825750  34.7777950  49.6331680
  75.0889140  35.6253160  49.8404460  74.7944150  34.1404320  49.8240320
  82.0570800  34.8612920  52.7028420  81.3669120  34.6685120  53.3374510
  82.8003100  35.1447560  53.2352720  72.9713030  36.6426530  34.8764480
  72.8887700  37.5857290  35.0179470  72.6196090  36.5001440  33.9976830
  84.3333770  38.7011360  45.5382340  83.6014890  39.2098170  45.8872440
  83.9358110  37.8841340  45.2371120  80.7711160  35.3765560  43.9434830
  80.7747220  34.9355510  43.0939370  81.6662280  35.6982890  44.0506650
  76.6213540  35.2592050  42.9029040  76.2813590  35.7367280  43.6596090
  75.8590860  34.8057170  42.5430140  80.8331310  36.3777640  36.9341590
  80.9544130  36.3364120  37.8827410  80.4479820  37.2401790  36.7788320
  84.7959680  34.1545040  44.9505280  84.8132420  34.6053690  45.7947130
  84.5475260  33.2550680  45.1638720  79.8452810  38.6878780  36.3324890
  79.2769710  38.2397030  35.7060800  80.5541810  39.0471560  35.7990040
  88.2230430  31.5677220  50.7891660  88.5476200  30.8366880  51.3149640
  88.2586940  31.2490860  49.8872650  74.9221990  42.5890800  50.2091620
  74.5376780  41.9484470  50.8074580  75.2334180  43.2926920  50.7786350
  81.0719130  39.4367340  45.6900240  81.4389260  38.9625910  46.4361580
  80.8824190  40.3108910  46.0308580  78.8618500  38.4775980  48.0084450
  78.5575570  39.3567960  48.2334810  79.8164960  38.5375770  48.0441890
  77.3900290  42.6836970  38.6051300  76.6162550  42.1434590  38.4450020
  78.1194920  42.1643580  38.2669060  88.1488270  41.6802330  44.3977690
  88.8687390  42.1757620  44.0073800  87.9470090  41.0020220  43.7531560
  83.6098210  33.0740290  38.5407080  82.7962820  32.5753460  38.4652390
  83.4160160  33.9138540  38.1243430  83.5307070  41.7511390  50.2846690
  83.4644380  40.8307060  50.0304280  82.9012210  41.8486830  50.9991330
  86.3246600  37.4459940  36.8369240  87.2126220  37.7577170  36.6620580
  86.2951690  36.5732190  36.4449820  77.4337690  42.3517350  42.2430110
  77.9516360  41.5485610  42.1887000  76.9821710  42.2896490  43.0846940
  82.3207190  43.6183630  37.5157410  82.6622890  44.3625860  37.0200730
  81.4919900  43.9314750  37.8782240  74.9182230  39.3178720  49.1555810
  74.5597170  39.9832570  49.7429150  74.6236790  38.4862270  49.5268430
  78.1195350  39.7762960  52.0395360  77.8195490  39.9220140  51.1423180
  78.8906590  39.2168250  51.9468750  83.4623800  44.5731960  50.0350490
  83.4768340  43.6412920  49.8169400  82.7548900  44.6591720  50.6740260
  88.5960870  38.7571780  36.3049100  88.5124590  39.1886000  35.4545540
  89.3155060  39.2170130  36.7375920  89.6735010  41.2139300  49.3819070
  88.9483200  41.8068080  49.1848460  90.2010470  41.2062840  48.5832440
  89.6248120  45.6114040  39.0331230  88.9824280  44.9569660  39.3074950
  89.2378780  46.0169130  38.2571900  85.2034600  42.9399470  42.8802920
  85.5558420  42.3427600  42.2204290  84.3196930  42.6143700  43.0511170
  81.2897880  43.6997160  40.2873330  81.9769010  44.2466370  40.6680920
  80.5030300  44.2437890  40.3222940  73.4290280  39.3169980  35.7790410
  74.2985130  39.5994780  36.0626330  72.9380600  40.1305850  35.6639220
  80.5925090  40.7043190  39.8998690  81.0487870  41.5148440  40.1258880
  80.2413300  40.3866330  40.7317180  82.8957700  46.2149530  47.1290990
  83.5399920  46.4208910  47.8064410  83.2587140  45.4537930  46.6761840
  76.4936870  31.0480840  40.3721210  76.3651500  31.0398740  41.3206130
  75.6698890  31.3863930  40.0212220  84.1689780  44.2181880  45.8468440
  84.8112010  43.5175040  45.9600610  84.6939130  44.9980320  45.6665330
  88.0145500  44.5030500  35.5707580  87.7883080  43.7860940  36.1632220
  87.6241700  44.2542940  34.7329330  85.9427400  45.0176780  49.0504500
  86.2783640  45.6043470  49.7282420  85.0227740  44.8869490  49.2802290
  73.7961530  48.5297360  36.3452040  74.1559170  49.1286700  35.6909310
  73.6553870  49.0757250  37.1187070  87.5961750  42.4202440  37.2321740
  87.3083450  42.8815130  38.0199620  88.3913920  41.9600210  37.5005960
  73.7803390  46.7952220  50.8194440  73.8894510  45.8546960  50.6789830
  73.1283950  47.0606970  50.1708170  81.7715980  45.0668110  52.2192560
  81.4512850  44.3477350  52.7638250  81.0974340  45.7423180  52.2928620
  79.8130150  45.9128560  37.1625710  79.8040250  46.6458250  36.5470220
  78.8928510  45.6660140  37.2552670  75.4136790  41.1343450  37.9072470
  74.8064740  41.8742350  37.9167770  75.8886140  41.2242810  37.0810670
  84.9869580  35.2994270  47.5829360  85.3550400  34.4789480  47.9108930
  84.1267780  35.3596160  47.9985010  88.3531610  34.2551210  38.3916920
  87.7244770  34.3596880  37.6775150  87.8583530  34.4747990  39.1810800
  82.7989750  45.9756800  35.8250900  82.9001730  45.7720790  34.8952880
  81.8991490  45.7215080  36.0298680  80.3215640  36.5337160  39.8074800
  79.6131790  37.0023500  40.2488410  80.6060120  35.8759170  40.4419990
  81.9471570  37.9533860  47.8067330  82.4456820  38.4279680  48.4719180
  82.0894520  37.0297380  48.0137360  84.3531070  33.2587820  41.2470590
  84.2298850  33.2773950  40.2980100  85.3015630  33.3066760  41.3668990
  81.4407860  48.4943120  40.5198570  81.6949360  48.4564510  39.5977940
  80.4920340  48.3676450  40.5126820  78.5250660  34.8422240  37.1825510
  79.3741190  35.2792390  37.1165700  78.1581930  35.1542500  38.0097570
  89.1538430  34.1701820  48.6495720  88.6512030  34.9107220  48.9889530
  89.9695090  34.5585820  48.3332510  87.4460440  39.4135000  42.0957080
  86.5050580  39.4285230  42.2704770  87.7604510  38.6270960  42.5417380
  77.4242080  41.0954600  35.6561040  78.1905350  40.9835960  36.2186470
  77.5016770  40.3992570  35.0037810  76.1188840  38.5279670  36.3393930
  76.1992430  37.5807180  36.4511330  77.0108590  38.8586550  36.4454590
  89.4486020  46.5843850  43.7711340  89.5733440  47.4075020  44.2435150
  90.3151580  46.3734580  43.4235490  76.9203550  48.6775060  43.4428470
  77.6566030  48.1290520  43.7137040  77.3044470  49.5431070  43.3034460
  73.8049030  44.7448630  39.3169980  72.8788810  44.9869770  39.3075390
  74.2705460  45.5722890  39.1954730  75.9261830  47.8621130  52.6314050
  76.7274560  48.1833180  53.0449450  75.4113650  47.5016710  53.3533960
  80.0305860  47.8505370  35.2654040  80.8234470  48.1394200  34.8135830
  79.5110210  47.4197540  34.5866520  84.7626460  43.9701000  52.5789460
  84.1564620  43.9932600  51.8385210  84.4580570  43.2384040  53.1156710
  86.1926830  47.6981290  51.1898870  87.1448580  47.6139310  51.1399110
  86.0455050  48.3623000  51.8632660  89.0836030  47.0775500  36.6890780
  88.7977540  46.6640640  35.8744960  88.8855580  48.0063210  36.5691300
  73.6459640  40.3494590  51.5750100  74.1498660  39.7701870  52.1466330
  72.9067060  40.6334820  52.1126470  80.5483260  43.0708780  35.1296390
  80.4433900  42.4561130  35.8557770  80.3807480  42.5474670  34.3459400
  80.6997580  41.7565580  51.1085620  79.9343250  42.3250580  51.0240290
  80.8813540  41.4641790  50.2153850  83.7885990  42.1328810  35.7338380
  83.2396090  42.5798110  36.3781120  84.4105250  41.6278060  36.2576050
  87.8420930  43.4870910  51.6660640  88.5830400  43.8246670  51.1628100
  87.0793610  43.6562970  51.1130410  75.6782720  38.4924180  52.4700170
  75.7188060  38.1938050  53.3785400  76.5328220  38.8931790  52.3107690
  79.4561110  41.0919730  37.6303680  79.8777530  40.9259600  38.4735070
  79.5811950  40.2819960  37.1358820  77.6188530  37.0716280  50.4374660
  77.0884990  36.5807230  49.8098000  78.2876600  37.5000480  49.9032590
  81.9688750  40.1157340  34.8780780  82.4894410  39.4006360  34.5121930
  82.6157150  40.7543210  35.1781290  86.5166590  41.5385740  50.2015850
  86.9307610  41.6930820  51.0506270  85.5817590  41.6640960  50.3641630
  86.9888760  38.8781900  52.2055000  87.5709530  38.1234220  52.1175480
  87.1650530  39.4089340  51.4286480  78.1060830  34.0378650  50.5171950
  78.0117700  33.4199400  49.7922820  77.5258220  34.7644940  50.2901860
  80.8722270  32.5951890  47.5499340  80.4239570  32.6176150  46.7044890
  80.2387470  32.1970910  48.1469640  81.2781820  41.4906220  48.1711780
  81.6969930  42.3338950  47.9988020  80.3590450  41.6278260  47.9418560
  83.6145720  39.2222400  49.5549620  83.7341930  38.6263540  50.2944460
  84.4739720  39.2592090  49.1350920  85.9533620  39.7759590  48.1312130
  85.4268840  40.3002210  47.5277270  86.2964960  40.4086980  48.7621860
  78.3520010  37.1652960  34.5761840  78.1509070  36.3020320  34.9375180
  78.1812060  37.0786320  33.6383440  79.1289240  47.7959230  49.2869510
  78.5910330  48.5205290  48.9678210  79.3823200  47.3189570  48.4966850
  80.3814490  35.7643750  50.8125440  80.9714180  35.4559600  51.5003260
  79.5634730  35.2923500  50.9685340  85.2007920  35.3809560  51.0458460
  84.5123440  34.7191100  50.9808450  85.9213940  34.9347830  51.4906920
  85.8308320  31.9761190  37.1048720  86.1110610  31.1329090  37.4608140
  85.0574050  32.2084300  37.6187470  77.1502810  34.2653580  34.5639720
  77.4528710  34.2721010  33.6558870  77.8897400  33.9151440  35.0607380
  81.9851450  49.0310440  49.5456160  81.9110150  49.9345580  49.8528530
  81.0830290  48.7122340  49.5178230  80.3687740  33.2088200  35.5495920
  80.0209740  32.5312190  34.9698370  80.5700510  32.7477710  36.3639310
  82.5336780  48.1968950  37.1682520  83.4287570  48.5353920  37.1901280
  82.5654410  47.4748360  36.5406800  76.1732940  43.5696000  35.3969520
  76.6107810  44.1125670  36.0527100  76.6580670  42.7442950  35.4065860
  73.3878740  46.3585030  42.8489780  73.7181750  45.4906090  42.6168420
  73.8169740  46.5643550  43.6794740  77.9840660  44.6894040  40.5091750
  77.6836200  44.5659010  41.4095660  77.8778150  43.8302630  40.1007480
  73.8768950  47.2255620  45.5871410  73.4399940  47.4056420  46.4195560
  74.4446630  47.9830240  45.4453130  89.5131130  46.7272620  49.8748720
  88.9133120  46.7865180  49.1312640  89.6425030  45.7877600  50.0045570
  90.7532580  44.4690440  35.2118430  89.9225540  44.5367090  35.6825660
  90.9304410  45.3594560  34.9085290  90.2089040  41.2137920  37.7152630
  90.9707950  41.7834570  37.8212320  90.2243410  40.6465120  38.4860940
  73.7093380  39.7375850  41.9460290  73.0542220  39.4687490  41.3019990
  74.5471330  39.6280330  41.4962270  91.2149010  42.0688020  42.5594560
  91.5857840  41.2855340  42.1530530  91.8550940  42.7577120  42.3811860
  88.1982770  43.4524600  47.9724880  87.3842610  43.8821760  48.2350670
  88.6056970  44.0643010  47.3593930  90.2608210  41.5072290  34.8725150
  90.5357050  42.4151170  34.7444370  90.0718950  41.4434820  35.8087140
  86.6583820  34.5317140  36.1678780  87.0768700  34.3448120  35.3275440
  86.3519880  33.6796190  36.4781710  90.1573550  39.4441280  39.8654580
  89.7817150  38.6769210  39.4335870  89.4276670  39.8263980  40.3529510
  74.7469310  40.1228420  46.4863630  75.1142350  40.0355820  47.3659650
  74.1780130  39.3594970  46.3870490  89.5473170  38.5912800  49.4994100
  89.3159260  38.3625550  48.5992050  89.8077720  39.5112350  49.4538990
  74.2985310  37.0337510  50.3922050  73.4041360  37.0004270  50.7315760
  74.8382860  37.2324300  51.1573300  87.9861240  33.8169230  52.2773800
  88.8631420  33.8252630  52.6607800  87.9982080  33.0800070  51.6666150
  72.9231460  36.9474780  37.8885620  72.0195540  37.2104980  37.7137280
  73.4072080  37.2185950  37.1085580  89.4324510  37.6698770  43.1661820
  89.9561990  37.1761420  42.5351990  90.0183930  37.8049130  43.9109390
  89.6114230  37.7538640  46.6881370  88.6616940  37.7202180  46.8026360
  89.7927240  38.6638750  46.4531140  75.4658670  36.0040320  35.7980000
  76.1750370  35.5823540  35.3127280  74.7498610  36.0715550  35.1663350
  75.1132830  32.0579650  34.8382650  75.8360960  32.5988590  35.1563870
  75.3857350  31.7843070  33.9624190  88.9224480  36.9272120  39.1054230
  89.4183600  36.6942990  39.8903110  88.7240550  36.0883960  38.6891870
  90.3511640  35.5633070  41.6391910  90.2410920  35.4089110  42.5774180
  91.1119230  35.0354010  41.3967320  88.6977360  31.5027200  48.0974910
  89.3349580  32.1161340  48.4634100  88.8452250  31.5387860  47.1524140
  91.2401910  33.3940990  34.8798050  92.1651220  33.2622170  34.6716340
  91.2177700  33.4733810  35.8334500  91.3140400  34.1651650  37.5054760
  90.5191900  34.0996770  38.0347670  91.5183680  35.1002290  37.4940110
  88.2558820  48.2043200  41.4993150  88.8517890  47.8827770  40.8227570
  88.5136970  47.7315020  42.2906420  74.5557020  31.4641510  47.4830590
  74.2071840  31.9205330  48.2488770  74.2244720  30.5698640  47.5653020
  76.1621390  44.6361110  51.6483780  76.1191020  44.2654020  52.5298240
  76.2932400  45.5738680  51.7885600  79.8627420  46.1920700  47.2493500
  79.6218780  46.4595260  46.3624020  80.8030060  46.3626430  47.3044360
  82.0681840  32.6553390  51.0050010  82.0070730  33.2475220  51.7545420
  83.0082220  32.5479350  50.8600270  84.7056400  32.3123450  50.6442300
  85.3196810  32.6302740  49.9823380  85.2505960  31.8272040  51.2638160
  91.1231580  48.2115080  48.0504140  90.6289860  48.6083950  47.3331270
  90.5144870  47.5864290  48.4441420  75.2277660  30.9917710  50.7581360
  75.7760650  30.8105760  49.9947470  75.2932970  30.2011820  51.2937670
  76.0009420  47.5823360  48.7681560  75.4069740  47.4508060  49.5071600
  75.9933260  46.7461500  48.3023660  85.4464440  30.8755590  46.9711590
  84.5724280  31.2090700  46.7684520  85.3375190  30.4028770  47.7963460
  86.3536420  33.0826460  48.3553310  86.0249780  32.2678220  47.9755040
  87.3018720  33.0396270  48.2319000  88.8071030  48.8538500  45.3290880
  88.3474000  49.6054310  44.9548900  88.1783490  48.1344970  45.2705680
  75.6321650  44.9481740  47.7189600  74.9055710  44.3287030  47.6515550
  75.6930800  45.3422350  46.8487680  79.2366750  47.1626740  44.5039010
  79.7531770  46.5514100  43.9787270  79.8864130  47.6655520  44.9950020
  81.9762250  48.0535230  45.3307990  82.2640060  47.7989530  44.4541000
  82.4885470  47.5012590  45.9213560  83.1939260  31.7925430  45.9104500
  82.4111050  32.2670930  46.1901260  82.9002190  30.8880260  45.8017680
  87.7460330  32.4948530  43.9553590  88.1868420  32.4393630  43.1075190
  87.4767920  33.4106540  44.0263770  89.6098900  32.1263770  41.9662410
  89.5487300  31.1824990  41.8193430  90.3890930  32.2343860  42.5115870
  73.9151650  48.2656130  40.9286360  73.7473690  47.6326810  41.6268250
  73.0486160  48.4715530  40.5780550  74.5379670  32.0972910  38.4318220
  75.2959030  32.2101790  37.8582250  74.0756840  32.9342110  38.3861650
  81.0793480  34.2112180  41.4220530  80.2667990  33.8369070  41.0816410
  81.5835120  33.4557260  41.7241720  85.5818460  30.8754630  42.6603600
  86.1847830  31.4474840  43.1352120  84.8411450  31.4394070  42.4377500
  88.7253060  31.2776190  37.9343880  88.9203690  32.1759640  38.2011310
  87.9382930  31.0463270  38.4276830  75.5214350  46.9589360  38.3736500
  74.9961970  47.3397390  37.6698460  75.4458930  47.5840130  39.0946210
  76.9104820  32.6236960  36.9720190  77.4397580  31.8366760  36.8428140
  77.5433140  33.3028150  37.2055720  79.1042660  32.3612100  40.0265580
  78.4745400  31.6599410  40.1935710  78.5647800  33.1216230  39.8098740
  82.0434610  48.9751330  52.6976190  82.9701920  48.7395600  52.7412150
  82.0285040  49.8023330  52.2162220  90.2779670  48.5176900  39.6950440
  90.4531860  47.8314640  39.0511360  89.5801240  49.0423950  39.3027110
  79.2298220  31.6396080  52.4618070  78.9482490  32.1429680  51.6978890
  79.6117920  30.8417830  52.0960200  78.1207320  48.9071740  37.2485750
  78.8526140  48.6231020  36.7009640  78.3800990  48.6685020  38.1385130
  77.2822110  45.0236470  37.2532080  76.6530990  45.4921570  37.8017910
  77.3969940  44.1785690  37.6878270  85.8313680  31.0549660  53.0398540
  85.7179130  31.3744270  53.9350060  86.6483420  31.4562170  52.7435820
  88.6112170  48.2021190  52.5217230  89.4037490  47.7070420  52.3143190
  88.9045320  48.8811330  53.1292840  84.7371830  39.0742130  23.4033280
  84.6565880  38.1596740  23.1324990  84.3236250  39.5709200  22.6972990
  82.8689870  40.8521150  25.2842550  82.0931970  40.3721590  25.5741120
  83.5202800  40.1726800  25.1098710  76.8855700  41.1640960  26.1618310
  76.0540580  40.9089670  26.5614820  77.4936680  41.2351730  26.8976230
  86.8897300  45.2581340  24.0641680  86.4278830  44.4868580  24.3928850
  87.7022850  45.2847410  24.5694130  76.8656960  45.1981050  26.3576330
  77.1685000  44.3078790  26.1786550  77.6100550  45.7551270  26.1298580
  75.2947650  36.1242850  19.9460700  74.4064350  36.4658820  19.8440580
  75.5788840  35.9243170  19.0541530  73.2580660  38.7248500  25.8300400
  73.8296770  37.9570700  25.8304040  73.2582200  39.0237260  24.9207010
  83.1160610  47.5439350  23.6845670  82.4972050  47.9996850  23.1140110
  83.9712390  47.6990810  23.2835370  82.3098860  43.5278340  25.2912710
  82.2407140  42.5868280  25.1301840  83.0718720  43.6179750  25.8635280
  74.5005530  34.1332860  27.6169330  74.3208370  33.2358610  27.8972090
  74.0985610  34.6804730  28.2916280  83.3404030  36.3348720  25.5181640
  83.7168850  35.4620600  25.4055310  83.2423540  36.6707420  24.6272080
  77.4709040  34.7074350  20.9799080  77.5775790  35.6078080  21.2867840
  76.5601400  34.6592320  20.6893730  87.1228150  33.8299160  22.4509980
  87.9437770  33.3395730  22.4935460  87.1562230  34.4196820  23.2041820
  75.1192200  36.6293360  26.2251670  75.8002310  36.8931730  26.8439070
  74.8040250  35.7894230  26.5589680  79.3116770  37.6760720  25.3124260
  79.8194990  38.1741690  25.9529280  79.8430010  36.8995920  25.1363620
  91.4127700  35.8465910  29.0153610  90.7079870  36.2347620  28.4968720
  91.6785620  36.5416200  29.6174540  77.5952870  32.3159280  29.5787680
  77.5971310  32.8331670  28.7733580  76.7657180  31.8389460  29.5557610
  83.9823960  42.4278590  21.0777580  83.3641230  42.8928040  20.5140300
  84.4947210  43.1206070  21.4947090  78.8455720  41.9554460  27.7561180
  78.5125100  42.5823380  28.3982250  79.0222400  42.4816340  26.9762850
  87.3589630  35.7699540  25.2237520  86.6545200  36.0584430  25.8040630
  87.7201790  36.5799650  24.8637080  77.2768200  34.0269240  27.5858130
  77.6185010  34.8711290  27.2912000  76.3384010  34.1752980  27.7023470
  78.0574820  43.9235260  29.5710360  78.6748820  44.5986340  29.2894810
  77.1967940  44.3323240  29.4797860  73.3507160  43.1135120  18.4517210
  72.9735140  43.6022220  17.7202110  73.6080230  43.7860400  19.0823740
  88.9752410  45.3874670  27.4865000  88.2915930  46.0573780  27.4781670
  89.5146700  45.5855320  26.7209860  90.4276550  35.2154330  25.6146730
  89.4801460  35.2493310  25.7462160  90.7526540  36.0293280  25.9996090
  80.9596090  31.5151510  23.9102720  81.2671070  30.9598400  23.1938220
  80.0296790  31.6495970  23.7275710  86.5111150  47.2318800  26.2010180
  86.5238310  46.8281090  25.3332440  85.9586370  48.0066090  26.0971610
  87.8056570  43.9535020  21.2900350  87.6952900  43.0109350  21.4149770
  87.8024820  44.3150660  22.1763110  85.9096590  42.1348640  27.5292790
  86.3265380  41.9208750  26.6946250  86.6336410  42.3921430  28.1001410
  83.3476850  39.5800340  20.6462840  82.4206130  39.5137720  20.8751310
  83.5001670  40.5180470  20.5318080  83.3345930  35.8517340  17.6430000
  82.3949600  36.0131300  17.7282460  83.6529190  36.5703020  17.0965990
  89.8558690  40.5335860  27.6209030  89.0277320  40.6028950  27.1459160
  90.4509170  41.1190170  27.1524860  87.3774140  41.1420640  21.1498090
  86.7586560  40.8040190  20.5024390  87.3598590  40.4980400  21.8577280
  86.8200700  37.3205180  28.5663900  86.4071880  38.1458890  28.8203890
  86.0876650  36.7350220  28.3740260  78.9533490  40.1065080  23.4282570
  78.5490490  39.3942330  22.9328470  79.0396610  39.7618320  24.3170610
  79.4215190  43.7932640  25.5921780  79.1243480  43.1878110  24.9129560
  80.3715010  43.8309950  25.4811140  77.6662110  36.8808290  27.2081610
  78.2176700  36.9903630  26.4334860  78.1805620  37.2545890  27.9236840
  87.5100800  47.3664510  29.2544880  87.0331360  48.1736700  29.0617490
  86.8262590  46.7142840  29.4071090  78.5133620  43.5314330  32.2429580
  77.6162150  43.7554300  32.4902980  78.5386490  43.6549270  31.2940980
  85.5538840  40.3807450  18.1570840  85.9932120  39.5429880  18.0108660
  86.2667260  41.0136850  18.2434980  77.3404840  40.4027650  30.8186950
  77.2012610  41.2750450  31.1874350  76.4586200  40.0600460  30.6734890
  83.6634220  45.3203520  22.1252080  84.1030130  46.0627850  21.7107470
  83.6021110  45.5630090  23.0491040  79.1385190  46.3449350  33.0272100
  79.1100620  46.7492300  32.1600530  78.9750160  45.4159710  32.8643700
  89.1355980  31.6350260  16.4711880  88.8228640  31.7277090  17.3710950
  89.8968450  32.2131290  16.4209310  75.6538120  39.0010060  20.9289220
  75.5335720  39.7272150  20.3170490  75.3439010  38.2312970  20.4517130
  91.0900010  47.1276450  34.3236270  91.5659730  47.6059340  35.0025350
  91.7107170  47.0593940  33.5981770  73.2923490  42.1725200  26.7357860
  73.3703910  42.3073970  25.7913580  73.9065170  41.4641090  26.9285980
  74.5371120  43.8725390  23.1464040  74.1299200  44.0139980  22.2917640
  75.4284130  43.5885550  22.9435250  90.4933260  44.3189300  31.4836280
  90.6196320  44.0801180  30.5653460  90.5354640  43.4873840  31.9558360
  84.3550000  48.0217300  30.0531090  84.8694670  47.9325310  30.8553520
  83.5119080  48.3677000  30.3459000  86.3304400  48.3072640  19.4815090
  86.1705540  48.0175580  20.3796920  86.1651110  47.5312770  18.9460320
  78.8092780  48.0871170  21.2586710  78.6335260  47.1706710  21.0454510
  77.9548520  48.4458460  21.4984510  86.0330530  45.8160200  18.0413090
  85.3395690  45.8137490  17.3815370  86.7753390  45.3919520  17.6107260
  85.5980460  47.4422910  22.1161580  86.0537410  46.6612290  22.4300200
  85.9372980  48.1529730  22.6602760  90.3457270  36.3721760  32.4486020
  89.7301540  36.8801430  31.9201480  90.0253690  35.4720090  32.3911960
  73.3483010  43.2139370  29.2752320  73.5114050  42.7444730  28.4571690
  73.8135460  42.7062930  29.9401160  78.1201780  32.3445130  24.3112890
  77.6769930  33.1254670  23.9797410  78.6786770  32.6675020  25.0183830
  82.4071590  35.2113650  29.9148210  81.9450960  35.4196670  30.7268150
  82.0049700  34.3973000  29.6118880  87.4076100  36.4322600  31.0444870
  86.5569690  36.1328350  31.3653940  87.2477890  36.6764610  30.1328690
  84.5025810  37.9324350  33.1443660  84.8279220  37.0988100  32.8045890
  85.2906140  38.4552870  33.2921990  81.2360600  31.9655830  19.1918720
  80.6114780  31.9615700  19.9172030  81.1490720  31.0986790  18.7954690
  80.1577680  32.8892460  26.1702490  80.4550010  33.7955290  26.0894510
  80.7063240  32.4011240  25.5562060  77.9116000  37.4678700  22.0394140
  77.6856920  37.2515870  22.9440760  77.1308530  37.9007160  21.6940110
  85.1413760  37.4742070  20.6384790  84.5422650  38.1977870  20.4548410
  85.6893370  37.4118850  19.8561240  80.3515210  38.3664280  32.7054410
  80.2558810  37.4259010  32.5554810  81.1947190  38.5879350  32.3102480
  83.7478630  36.1105610  22.6688070  84.1408200  36.4277810  21.8556760
  84.1095480  35.2317490  22.7832590  75.4825750  34.7777950  30.8588190
  75.0889140  35.6253160  31.0660970  74.7944150  34.1404320  31.0496830
  82.0570800  34.8612920  33.9284930  81.3669120  34.6685120  34.5631020
  82.8003100  35.1447560  34.4609230  72.7842800  32.7006410  24.8918270
  72.4955850  33.2709270  25.6043250  73.5288560  32.2210860  25.2549500
  72.9713030  36.6426530  16.1020990  72.8887700  37.5857290  16.2435980
  72.6196090  36.5001440  15.2233340  84.3333770  38.7011360  26.7638850
  83.6014890  39.2098170  27.1128950  83.9358110  37.8841340  26.4627630
  80.7711160  35.3765560  25.1691340  80.7747220  34.9355510  24.3195880
  81.6662280  35.6982890  25.2763160  76.6213540  35.2592050  24.1285550
  76.2813590  35.7367280  24.8852600  75.8590860  34.8057170  23.7686650
  80.8331310  36.3777640  18.1598100  80.9544130  36.3364120  19.1083920
  80.4479820  37.2401790  18.0044830  84.7959680  34.1545040  26.1761790
  84.8132420  34.6053690  27.0203640  84.5475260  33.2550680  26.3895230
  79.8452810  38.6878780  17.5581400  79.2769710  38.2397030  16.9317310
  80.5541810  39.0471560  17.0246550  88.2230430  31.5677220  32.0148170
  88.5476200  30.8366880  32.5406150  88.2586940  31.2490860  31.1129160
  74.9221990  42.5890800  31.4348130  74.5376780  41.9484470  32.0331090
  75.2334180  43.2926920  32.0042860  81.0719130  39.4367340  26.9156750
  81.4389260  38.9625910  27.6618090  80.8824190  40.3108910  27.2565090
  73.9359620  34.1811030  23.0450220  73.6506540  33.8166700  23.8828840
  73.8738480  33.4491490  22.4313360  78.8618500  38.4775980  29.2340960
  78.5575570  39.3567960  29.4591320  79.8164960  38.5375770  29.2698400
  77.3900290  42.6836970  19.8307810  76.6162550  42.1434590  19.6706530
  78.1194920  42.1643580  19.4925570  88.1488270  41.6802330  25.6234200
  88.8687390  42.1757620  25.2330310  87.9470090  41.0020220  24.9788070
  83.6098210  33.0740290  19.7663590  82.7962820  32.5753460  19.6908900
  83.4160160  33.9138540  19.3499940  83.5307070  41.7511390  31.5103200
  83.4644380  40.8307060  31.2560790  82.9012210  41.8486830  32.2247840
  86.3246600  37.4459940  18.0625750  87.2126220  37.7577170  17.8877090
  86.2951690  36.5732190  17.6706330  77.4337690  42.3517350  23.4686620
  77.9516360  41.5485610  23.4143510  76.9821710  42.2896490  24.3103450
  82.3207190  43.6183630  18.7413920  82.6622890  44.3625860  18.2457240
  81.4919900  43.9314750  19.1038750  74.9182230  39.3178720  30.3812320
  74.5597170  39.9832570  30.9685660  74.6236790  38.4862270  30.7524940
  78.1195350  39.7762960  33.2651870  77.8195490  39.9220140  32.3679690
  78.8906590  39.2168250  33.1725260  83.4623800  44.5731960  31.2607000
  83.4768340  43.6412920  31.0425910  82.7548900  44.6591720  31.8996770
  88.5960870  38.7571780  17.5305610  88.5124590  39.1886000  16.6802050
  89.3155060  39.2170130  17.9632430  89.6735010  41.2139300  30.6075580
  88.9483200  41.8068080  30.4104970  90.2010470  41.2062840  29.8088950
  89.6248120  45.6114040  20.2587740  88.9824280  44.9569660  20.5331460
  89.2378780  46.0169130  19.4828410  85.2034600  42.9399470  24.1059430
  85.5558420  42.3427600  23.4460800  84.3196930  42.6143700  24.2767680
  81.2897880  43.6997160  21.5129840  81.9769010  44.2466370  21.8937430
  80.5030300  44.2437890  21.5479450  73.4290280  39.3169980  17.0046920
  74.2985130  39.5994780  17.2882840  72.9380600  40.1305850  16.8895730
  80.5925090  40.7043190  21.1255200  81.0487870  41.5148440  21.3515390
  80.2413300  40.3866330  21.9573690  82.8957700  46.2149530  28.3547500
  83.5399920  46.4208910  29.0320920  83.2587140  45.4537930  27.9018350
  76.4936870  31.0480840  21.5977720  76.3651500  31.0398740  22.5462640
  75.6698890  31.3863930  21.2468730  84.1689780  44.2181880  27.0724950
  84.8112010  43.5175040  27.1857120  84.6939130  44.9980320  26.8921840
  88.0145500  44.5030500  16.7964090  87.7883080  43.7860940  17.3888730
  87.6241700  44.2542940  15.9585840  85.9427400  45.0176780  30.2761010
  86.2783640  45.6043470  30.9538930  85.0227740  44.8869490  30.5058800
  73.7961530  48.5297360  17.5708550  74.1559170  49.1286700  16.9165820
  73.6553870  49.0757250  18.3443580  73.4930800  32.8071960  31.0584420
  72.7789320  33.0068880  31.6637030  73.9125840  32.0311530  31.4299220
  87.5961750  42.4202440  18.4578250  87.3083450  42.8815130  19.2456130
  88.3913920  41.9600210  18.7262470  73.7803390  46.7952220  32.0450950
  73.8894510  45.8546960  31.9046340  73.1283950  47.0606970  31.3964680
  81.7715980  45.0668110  33.4449070  81.4512850  44.3477350  33.9894760
  81.0974340  45.7423180  33.5185130  79.8130150  45.9128560  18.3882220
  79.8040250  46.6458250  17.7726730  78.8928510  45.6660140  18.4809180
  75.4136790  41.1343450  19.1328980  74.8064740  41.8742350  19.1424280
  75.8886140  41.2242810  18.3067180  84.9869580  35.2994270  28.8085870
  85.3550400  34.4789480  29.1365440  84.1267780  35.3596160  29.2241520
  88.3531610  34.2551210  19.6173430  87.7244770  34.3596880  18.9031660
  87.8583530  34.4747990  20.4067310  82.7989750  45.9756800  17.0507410
  82.9001730  45.7720790  16.1209390  81.8991490  45.7215080  17.2555190
  80.3215640  36.5337160  21.0331310  79.6131790  37.0023500  21.4744920
  80.6060120  35.8759170  21.6676500  81.9471570  37.9533860  29.0323840
  82.4456820  38.4279680  29.6975690  82.0894520  37.0297380  29.2393870
  84.3531070  33.2587820  22.4727100  84.2298850  33.2773950  21.5236610
  85.3015630  33.3066760  22.5925500  81.4407860  48.4943120  21.7455080
  81.6949360  48.4564510  20.8234450  80.4920340  48.3676450  21.7383330
  78.5250660  34.8422240  18.4082020  79.3741190  35.2792390  18.3422210
  78.1581930  35.1542500  19.2354080  89.1538430  34.1701820  29.8752230
  88.6512030  34.9107220  30.2146040  89.9695090  34.5585820  29.5589020
  87.4460440  39.4135000  23.3213590  86.5050580  39.4285230  23.4961280
  87.7604510  38.6270960  23.7673890  77.4242080  41.0954600  16.8817550
  78.1905350  40.9835960  17.4442980  77.5016770  40.3992570  16.2294320
  76.1188840  38.5279670  17.5650440  76.1992430  37.5807180  17.6767840
  77.0108590  38.8586550  17.6711100  89.4486020  46.5843850  24.9967850
  89.5733440  47.4075020  25.4691660  90.3151580  46.3734580  24.6492000
  76.9203550  48.6775060  24.6684980  77.6566030  48.1290520  24.9393550
  77.3044470  49.5431070  24.5290970  73.8049030  44.7448630  20.5426490
  72.8788810  44.9869770  20.5331900  74.2705460  45.5722890  20.4211240
  75.9261830  47.8621130  33.8570560  76.7274560  48.1833180  34.2705960
  75.4113650  47.5016710  34.5790470  80.0305860  47.8505370  16.4910550
  80.8234470  48.1394200  16.0392340  79.5110210  47.4197540  15.8123030
  84.7626460  43.9701000  33.8045970  84.1564620  43.9932600  33.0641720
  84.4580570  43.2384040  34.3413220  86.1926830  47.6981290  32.4155380
  87.1448580  47.6139310  32.3655620  86.0455050  48.3623000  33.0889170
  89.0836030  47.0775500  17.9147290  88.7977540  46.6640640  17.1001470
  88.8855580  48.0063210  17.7947810  73.6459640  40.3494590  32.8006610
  74.1498660  39.7701870  33.3722840  72.9067060  40.6334820  33.3382980
  80.5483260  43.0708780  16.3552900  80.4433900  42.4561130  17.0814280
  80.3807480  42.5474670  15.5715910  80.6997580  41.7565580  32.3342130
  79.9343250  42.3250580  32.2496800  80.8813540  41.4641790  31.4410360
  83.7885990  42.1328810  16.9594890  83.2396090  42.5798110  17.6037630
  84.4105250  41.6278060  17.4832560  87.8420930  43.4870910  32.8917150
  88.5830400  43.8246670  32.3884610  87.0793610  43.6562970  32.3386920
  75.6782720  38.4924180  33.6956680  75.7188060  38.1938050  34.6041910
  76.5328220  38.8931790  33.5364200  79.4561110  41.0919730  18.8560190
  79.8777530  40.9259600  19.6991580  79.5811950  40.2819960  18.3615330
  77.6188530  37.0716280  31.6631170  77.0884990  36.5807230  31.0354510
  78.2876600  37.5000480  31.1289100  81.9688750  40.1157340  16.1037290
  82.4894410  39.4006360  15.7378440  82.6157150  40.7543210  16.4037800
  86.5166590  41.5385740  31.4272360  86.9307610  41.6930820  32.2762780
  85.5817590  41.6640960  31.5898140  86.9888760  38.8781900  33.4311510
  87.5709530  38.1234220  33.3431990  87.1650530  39.4089340  32.6542990
  78.1060830  34.0378650  31.7428460  78.0117700  33.4199400  31.0179330
  77.5258220  34.7644940  31.5158370  80.8722270  32.5951890  28.7755850
  80.4239570  32.6176150  27.9301400  80.2387470  32.1970910  29.3726150
  81.2781820  41.4906220  29.3968290  81.6969930  42.3338950  29.2244530
  80.3590450  41.6278260  29.1675070  83.6145720  39.2222400  30.7806130
  83.7341930  38.6263540  31.5200970  84.4739720  39.2592090  30.3607430
  85.9533620  39.7759590  29.3568640  85.4268840  40.3002210  28.7533780
  86.2964960  40.4086980  29.9878370  78.3520010  37.1652960  15.8018350
  78.1509070  36.3020320  16.1631690  78.1812060  37.0786320  14.8639950
  79.1289240  47.7959230  30.5126020  78.5910330  48.5205290  30.1934720
  79.3823200  47.3189570  29.7223360  80.3814490  35.7643750  32.0381950
  80.9714180  35.4559600  32.7259770  79.5634730  35.2923500  32.1941850
  85.2007920  35.3809560  32.2714970  84.5123440  34.7191100  32.2064960
  85.9213940  34.9347830  32.7163430  85.8308320  31.9761190  18.3305230
  86.1110610  31.1329090  18.6864650  85.0574050  32.2084300  18.8443980
  77.1502810  34.2653580  15.7896230  77.4528710  34.2721010  14.8815380
  77.8897400  33.9151440  16.2863890  81.9851450  49.0310440  30.7712670
  81.9110150  49.9345580  31.0785040  81.0830290  48.7122340  30.7434740
  80.3687740  33.2088200  16.7752430  80.0209740  32.5312190  16.1954880
  80.5700510  32.7477710  17.5895820  82.5336780  48.1968950  18.3939030
  83.4287570  48.5353920  18.4157790  82.5654410  47.4748360  17.7663310
  76.1732940  43.5696000  16.6226030  76.6107810  44.1125670  17.2783610
  76.6580670  42.7442950  16.6322370  73.3878740  46.3585030  24.0746290
  73.7181750  45.4906090  23.8424930  73.8169740  46.5643550  24.9051250
  77.9840660  44.6894040  21.7348260  77.6836200  44.5659010  22.6352170
  77.8778150  43.8302630  21.3263990  73.8768950  47.2255620  26.8127920
  73.4399940  47.4056420  27.6452070  74.4446630  47.9830240  26.6709640
  89.5131130  46.7272620  31.1005230  88.9133120  46.7865180  30.3569150
  89.6425030  45.7877600  31.2302080  90.7532580  44.4690440  16.4374940
  89.9225540  44.5367090  16.9082170  90.9304410  45.3594560  16.1341800
  90.2089040  41.2137920  18.9409140  90.9707950  41.7834570  19.0468830
  90.2243410  40.6465120  19.7117450  73.7093380  39.7375850  23.1716800
  73.0542220  39.4687490  22.5276500  74.5471330  39.6280330  22.7218780
  91.2149010  42.0688020  23.7851070  91.5857840  41.2855340  23.3787040
  91.8550940  42.7577120  23.6068370  88.1982770  43.4524600  29.1981390
  87.3842610  43.8821760  29.4607180  88.6056970  44.0643010  28.5850440
  90.2608210  41.5072290  16.0981660  90.5357050  42.4151170  15.9700880
  90.0718950  41.4434820  17.0343650  86.6583820  34.5317140  17.3935290
  87.0768700  34.3448120  16.5531950  86.3519880  33.6796190  17.7038220
  90.1573550  39.4441280  21.0911090  89.7817150  38.6769210  20.6592380
  89.4276670  39.8263980  21.5786020  74.7469310  40.1228420  27.7120140
  75.1142350  40.0355820  28.5916160  74.1780130  39.3594970  27.6127000
  89.5473170  38.5912800  30.7250610  89.3159260  38.3625550  29.8248560
  89.8077720  39.5112350  30.6795500  74.2985310  37.0337510  31.6178560
  73.4041360  37.0004270  31.9572270  74.8382860  37.2324300  32.3829810
  87.9861240  33.8169230  33.5030310  88.8631420  33.8252630  33.8864310
  87.9982080  33.0800070  32.8922660  72.9231460  36.9474780  19.1142130
  72.0195540  37.2104980  18.9393790  73.4072080  37.2185950  18.3342090
  89.4324510  37.6698770  24.3918330  89.9561990  37.1761420  23.7608500
  90.0183930  37.8049130  25.1365900  89.6114230  37.7538640  27.9137880
  88.6616940  37.7202180  28.0282870  89.7927240  38.6638750  27.6787650
  75.4658670  36.0040320  17.0236510  76.1750370  35.5823540  16.5383790
  74.7498610  36.0715550  16.3919860  75.1132830  32.0579650  16.0639160
  75.8360960  32.5988590  16.3820380  75.3857350  31.7843070  15.1880700
  88.9224480  36.9272120  20.3310740  89.4183600  36.6942990  21.1159620
  88.7240550  36.0883960  19.9148380  74.8025020  31.3085840  25.9661780
  75.4501210  30.7583220  25.5256940  75.2226860  31.5628990  26.7877590
  90.3511640  35.5633070  22.8648420  90.2410920  35.4089110  23.8030690
  91.1119230  35.0354010  22.6223830  88.6977360  31.5027200  29.3231420
  89.3349580  32.1161340  29.6890610  88.8452250  31.5387860  28.3780650
  91.2401910  33.3940990  16.1054560  92.1651220  33.2622170  15.8972850
  91.2177700  33.4733810  17.0591010  91.3140400  34.1651650  18.7311270
  90.5191900  34.0996770  19.2604180  91.5183680  35.1002290  18.7196620
  88.2558820  48.2043200  22.7249660  88.8517890  47.8827770  22.0484080
  88.5136970  47.7315020  23.5162930  74.5557020  31.4641510  28.7087100
  74.2071840  31.9205330  29.4745280  74.2244720  30.5698640  28.7909530
  76.1621390  44.6361110  32.8740290  76.1191020  44.2654020  33.7554750
  76.2932400  45.5738680  33.0142110  79.8627420  46.1920700  28.4750010
  79.6218780  46.4595260  27.5880530  80.8030060  46.3626430  28.5300870
  82.0681840  32.6553390  32.2306520  82.0070730  33.2475220  32.9801930
  83.0082220  32.5479350  32.0856780  84.7056400  32.3123450  31.8698810
  85.3196810  32.6302740  31.2079890  85.2505960  31.8272040  32.4894670
  91.1231580  48.2115080  29.2760650  90.6289860  48.6083950  28.5587780
  90.5144870  47.5864290  29.6697930  75.2277660  30.9917710  31.9837870
  75.7760650  30.8105760  31.2203980  75.2932970  30.2011820  32.5194180
  76.0009420  47.5823360  29.9938070  75.4069740  47.4508060  30.7328110
  75.9933260  46.7461500  29.5280170  85.4464440  30.8755590  28.1968100
  84.5724280  31.2090700  27.9941030  85.3375190  30.4028770  29.0219970
  86.3536420  33.0826460  29.5809820  86.0249780  32.2678220  29.2011550
  87.3018720  33.0396270  29.4575510  88.8071030  48.8538500  26.5547390
  88.3474000  49.6054310  26.1805410  88.1783490  48.1344970  26.4962190
  75.6321650  44.9481740  28.9446110  74.9055710  44.3287030  28.8772060
  75.6930800  45.3422350  28.0744190  79.2366750  47.1626740  25.7295520
  79.7531770  46.5514100  25.2043780  79.8864130  47.6655520  26.2206530
  81.9762250  48.0535230  26.5564500  82.2640060  47.7989530  25.6797510
  82.4885470  47.5012590  27.1470070  83.1939260  31.7925430  27.1361010
  82.4111050  32.2670930  27.4157770  82.9002190  30.8880260  27.0274190
  87.7460330  32.4948530  25.1810100  88.1868420  32.4393630  24.3331700
  87.4767920  33.4106540  25.2520280  89.6098900  32.1263770  23.1918920
  89.5487300  31.1824990  23.0449940  90.3890930  32.2343860  23.7372380
  73.9151650  48.2656130  22.1542870  73.7473690  47.6326810  22.8524760
  73.0486160  48.4715530  21.8037060  74.5379670  32.0972910  19.6574730
  75.2959030  32.2101790  19.0838760  74.0756840  32.9342110  19.6118160
  81.0793480  34.2112180  22.6477040  80.2667990  33.8369070  22.3072920
  81.5835120  33.4557260  22.9498230  85.5818460  30.8754630  23.8860110
  86.1847830  31.4474840  24.3608630  84.8411450  31.4394070  23.6634010
  88.7253060  31.2776190  19.1600390  88.9203690  32.1759640  19.4267820
  87.9382930  31.0463270  19.6533340  75.5214350  46.9589360  19.5993010
  74.9961970  47.3397390  18.8954970  75.4458930  47.5840130  20.3202720
  76.9104820  32.6236960  18.1976700  77.4397580  31.8366760  18.0684650
  77.5433140  33.3028150  18.4312230  79.1042660  32.3612100  21.2522090
  78.4745400  31.6599410  21.4192220  78.5647800  33.1216230  21.0355250
  82.0434610  48.9751330  33.9232700  82.9701920  48.7395600  33.9668660
  82.0285040  49.8023330  33.4418730  90.2779670  48.5176900  20.9206950
  90.4531860  47.8314640  20.2767870  89.5801240  49.0423950  20.5283620
  79.2298220  31.6396080  33.6874580  78.9482490  32.1429680  32.9235400
  79.6117920  30.8417830  33.3216710  78.1207320  48.9071740  18.4742260
  78.8526140  48.6231020  17.9266150  78.3800990  48.6685020  19.3641640
  77.2822110  45.0236470  18.4788590  76.6530990  45.4921570  19.0274420
  77.3969940  44.1785690  18.9134780  85.8313680  31.0549660  34.2655050
  85.7179130  31.3744270  35.1606570  86.6483420  31.4562170  33.9692330
  88.6112170  48.2021190  33.7473740  89.4037490  47.7070420  33.5399700
  88.9045320  48.8811330  34.3549350  84.7371830  39.0742130   4.6289790
  84.6565880  38.1596740   4.3581500  84.3236250  39.5709200   3.9229500
  82.8689870  40.8521150   6.5099060  82.0931970  40.3721590   6.7997630
  83.5202800  40.1726800   6.3355220  76.8855700  41.1640960   7.3874820
  76.0540580  40.9089670   7.7871330  77.4936680  41.2351730   8.1232740
  86.8897300  45.2581340   5.2898190  86.4278830  44.4868580   5.6185360
  87.7022850  45.2847410   5.7950640  76.8656960  45.1981050   7.5832840
  77.1685000  44.3078790   7.4043060  77.6100550  45.7551270   7.3555090
  73.2580660  38.7248500   7.0556910  73.8296770  37.9570700   7.0560550
  73.2582200  39.0237260   6.1463520  83.1160610  47.5439350   4.9102180
  82.4972050  47.9996850   4.3396620  83.9712390  47.6990810   4.5091880
  82.3098860  43.5278340   6.5169220  82.2407140  42.5868280   6.3558350
  83.0718720  43.6179750   7.0891790  74.5005530  34.1332860   8.8425840
  74.3208370  33.2358610   9.1228600  74.0985610  34.6804730   9.5172790
  83.3404030  36.3348720   6.7438150  83.7168850  35.4620600   6.6311820
  83.2423540  36.6707420   5.8528590  77.4709040  34.7074350   2.2055590
  77.5775790  35.6078080   2.5124350  76.5601400  34.6592320   1.9150240
  87.1228150  33.8299160   3.6766490  87.9437770  33.3395730   3.7191970
  87.1562230  34.4196820   4.4298330  75.1192200  36.6293360   7.4508180
  75.8002310  36.8931730   8.0695580  74.8040250  35.7894230   7.7846190
  79.3116770  37.6760720   6.5380770  79.8194990  38.1741690   7.1785790
  79.8430010  36.8995920   6.3620130  91.4127700  35.8465910  10.2410120
  90.7079870  36.2347620   9.7225230  91.6785620  36.5416200  10.8431050
  77.5952870  32.3159280  10.8044190  77.5971310  32.8331670   9.9990090
  76.7657180  31.8389460  10.7814120  83.9823960  42.4278590   2.3034090
  83.3641230  42.8928040   1.7396810  84.4947210  43.1206070   2.7203600
  78.8455720  41.9554460   8.9817690  78.5125100  42.5823380   9.6238760
  79.0222400  42.4816340   8.2019360  87.3589630  35.7699540   6.4494030
  86.6545200  36.0584430   7.0297140  87.7201790  36.5799650   6.0893590
  77.2768200  34.0269240   8.8114640  77.6185010  34.8711290   8.5168510
  76.3384010  34.1752980   8.9279980  78.0574820  43.9235260  10.7966870
  78.6748820  44.5986340  10.5151320  77.1967940  44.3323240  10.7054370
  88.9752410  45.3874670   8.7121510  88.2915930  46.0573780   8.7038180
  89.5146700  45.5855320   7.9466370  90.4276550  35.2154330   6.8403240
  89.4801460  35.2493310   6.9718670  90.7526540  36.0293280   7.2252600
  80.9596090  31.5151510   5.1359230  81.2671070  30.9598400   4.4194730
  80.0296790  31.6495970   4.9532220  86.5111150  47.2318800   7.4266690
  86.5238310  46.8281090   6.5588950  85.9586370  48.0066090   7.3228120
  87.8056570  43.9535020   2.5156860  87.6952900  43.0109350   2.6406280
  87.8024820  44.3150660   3.4019620  85.9096590  42.1348640   8.7549300
  86.3265380  41.9208750   7.9202760  86.6336410  42.3921430   9.3257920
  83.3476850  39.5800340   1.8719350  82.4206130  39.5137720   2.1007820
  83.5001670  40.5180470   1.7574590  89.8558690  40.5335860   8.8465540
  89.0277320  40.6028950   8.3715670  90.4509170  41.1190170   8.3781370
  87.3774140  41.1420640   2.3754600  86.7586560  40.8040190   1.7280900
  87.3598590  40.4980400   3.0833790  86.8200700  37.3205180   9.7920410
  86.4071880  38.1458890  10.0460400  86.0876650  36.7350220   9.5996770
  78.9533490  40.1065080   4.6539080  78.5490490  39.3942330   4.1584980
  79.0396610  39.7618320   5.5427120  79.4215190  43.7932640   6.8178290
  79.1243480  43.1878110   6.1386070  80.3715010  43.8309950   6.7067650
  77.6662110  36.8808290   8.4338120  78.2176700  36.9903630   7.6591370
  78.1805620  37.2545890   9.1493350  87.5100800  47.3664510  10.4801390
  87.0331360  48.1736700  10.2874000  86.8262590  46.7142840  10.6327600
  78.5133620  43.5314330  13.4686090  77.6162150  43.7554300  13.7159490
  78.5386490  43.6549270  12.5197490  77.3404840  40.4027650  12.0443460
  77.2012610  41.2750450  12.4130860  76.4586200  40.0600460  11.8991400
  83.6634220  45.3203520   3.3508590  84.1030130  46.0627850   2.9363980
  83.6021110  45.5630090   4.2747550  79.1385190  46.3449350  14.2528610
  79.1100620  46.7492300  13.3857040  78.9750160  45.4159710  14.0900210
  75.6538120  39.0010060   2.1545730  75.5335720  39.7272150   1.5427000
  75.3439010  38.2312970   1.6773640  91.0900010  47.1276450  15.5492780
  91.5659730  47.6059340  16.2281860  91.7107170  47.0593940  14.8238280
  73.2923490  42.1725200   7.9614370  73.3703910  42.3073970   7.0170090
  73.9065170  41.4641090   8.1542490  74.5371120  43.8725390   4.3720550
  74.1299200  44.0139980   3.5174150  75.4284130  43.5885550   4.1691760
  90.4933260  44.3189300  12.7092790  90.6196320  44.0801180  11.7909970
  90.5354640  43.4873840  13.1814870  84.3550000  48.0217300  11.2787600
  84.8694670  47.9325310  12.0810030  83.5119080  48.3677000  11.5715510
  78.8092780  48.0871170   2.4843220  78.6335260  47.1706710   2.2711020
  77.9548520  48.4458460   2.7241020  85.5980460  47.4422910   3.3418090
  86.0537410  46.6612290   3.6556710  85.9372980  48.1529730   3.8859270
  90.3457270  36.3721760  13.6742530  89.7301540  36.8801430  13.1457990
  90.0253690  35.4720090  13.6168470  73.3483010  43.2139370  10.5008830
  73.5114050  42.7444730   9.6828200  73.8135460  42.7062930  11.1657670
  78.1201780  32.3445130   5.5369400  77.6769930  33.1254670   5.2053920
  78.6786770  32.6675020   6.2440340  82.4071590  35.2113650  11.1404720
  81.9450960  35.4196670  11.9524660  82.0049700  34.3973000  10.8375390
  87.4076100  36.4322600  12.2701380  86.5569690  36.1328350  12.5910450
  87.2477890  36.6764610  11.3585200  84.5025810  37.9324350  14.3700170
  84.8279220  37.0988100  14.0302400  85.2906140  38.4552870  14.5178500
  80.1577680  32.8892460   7.3959000  80.4550010  33.7955290   7.3151020
  80.7063240  32.4011240   6.7818570  77.9116000  37.4678700   3.2650650
  77.6856920  37.2515870   4.1697270  77.1308530  37.9007160   2.9196620
  80.3515210  38.3664280  13.9310920  80.2558810  37.4259010  13.7811320
  81.1947190  38.5879350  13.5358990  83.7478630  36.1105610   3.8944580
  84.1408200  36.4277810   3.0813270  84.1095480  35.2317490   4.0089100
  75.4825750  34.7777950  12.0844700  75.0889140  35.6253160  12.2917480
  74.7944150  34.1404320  12.2753340  82.0570800  34.8612920  15.1541440
  81.3669120  34.6685120  15.7887530  82.8003100  35.1447560  15.6865740
  72.7842800  32.7006410   6.1174780  72.4955850  33.2709270   6.8299760
  73.5288560  32.2210860   6.4806010  84.3333770  38.7011360   7.9895360
  83.6014890  39.2098170   8.3385460  83.9358110  37.8841340   7.6884140
  80.7711160  35.3765560   6.3947850  80.7747220  34.9355510   5.5452390
  81.6662280  35.6982890   6.5019670  76.6213540  35.2592050   5.3542060
  76.2813590  35.7367280   6.1109110  75.8590860  34.8057170   4.9943160
  84.7959680  34.1545040   7.4018300  84.8132420  34.6053690   8.2460150
  84.5475260  33.2550680   7.6151740  88.2230430  31.5677220  13.2404680
  88.5476200  30.8366880  13.7662660  88.2586940  31.2490860  12.3385670
  74.9221990  42.5890800  12.6604640  74.5376780  41.9484470  13.2587600
  75.2334180  43.2926920  13.2299370  81.0719130  39.4367340   8.1413260
  81.4389260  38.9625910   8.8874600  80.8824190  40.3108910   8.4821600
  73.9359620  34.1811030   4.2706730  73.6506540  33.8166700   5.1085350
  73.8738480  33.4491490   3.6569870  78.8618500  38.4775980  10.4597470
  78.5575570  39.3567960  10.6847830  79.8164960  38.5375770  10.4954910
  88.1488270  41.6802330   6.8490710  88.8687390  42.1757620   6.4586820
  87.9470090  41.0020220   6.2044580  83.5307070  41.7511390  12.7359710
  83.4644380  40.8307060  12.4817300  82.9012210  41.8486830  13.4504350
  77.4337690  42.3517350   4.6943130  77.9516360  41.5485610   4.6400020
  76.9821710  42.2896490   5.5359960  74.9182230  39.3178720  11.6068830
  74.5597170  39.9832570  12.1942170  74.6236790  38.4862270  11.9781450
  78.1195350  39.7762960  14.4908380  77.8195490  39.9220140  13.5936200
  78.8906590  39.2168250  14.3981770  83.4623800  44.5731960  12.4863510
  83.4768340  43.6412920  12.2682420  82.7548900  44.6591720  13.1253280
  89.6735010  41.2139300  11.8332090  88.9483200  41.8068080  11.6361480
  90.2010470  41.2062840  11.0345460  85.2034600  42.9399470   5.3315940
  85.5558420  42.3427600   4.6717310  84.3196930  42.6143700   5.5024190
  81.2897880  43.6997160   2.7386350  81.9769010  44.2466370   3.1193940
  80.5030300  44.2437890   2.7735960  80.5925090  40.7043190   2.3511710
  81.0487870  41.5148440   2.5771900  80.2413300  40.3866330   3.1830200
  82.8957700  46.2149530   9.5804010  83.5399920  46.4208910  10.2577430
  83.2587140  45.4537930   9.1274860  76.4936870  31.0480840   2.8234230
  76.3651500  31.0398740   3.7719150  75.6698890  31.3863930   2.4725240
  84.1689780  44.2181880   8.2981460  84.8112010  43.5175040   8.4113630
  84.6939130  44.9980320   8.1178350  85.9427400  45.0176780  11.5017520
  86.2783640  45.6043470  12.1795440  85.0227740  44.8869490  11.7315310
  73.4930800  32.8071960  12.2840930  72.7789320  33.0068880  12.8893540
  73.9125840  32.0311530  12.6555730  73.7803390  46.7952220  13.2707460
  73.8894510  45.8546960  13.1302850  73.1283950  47.0606970  12.6221190
  81.7715980  45.0668110  14.6705580  81.4512850  44.3477350  15.2151270
  81.0974340  45.7423180  14.7441640  84.9869580  35.2994270  10.0342380
  85.3550400  34.4789480  10.3621950  84.1267780  35.3596160  10.4498030
  80.3215640  36.5337160   2.2587820  79.6131790  37.0023500   2.7001430
  80.6060120  35.8759170   2.8933010  81.9471570  37.9533860  10.2580350
  82.4456820  38.4279680  10.9232200  82.0894520  37.0297380  10.4650380
  84.3531070  33.2587820   3.6983610  84.2298850  33.2773950   2.7493120
  85.3015630  33.3066760   3.8182010  81.4407860  48.4943120   2.9711590
  81.6949360  48.4564510   2.0490960  80.4920340  48.3676450   2.9639840
  89.1538430  34.1701820  11.1008740  88.6512030  34.9107220  11.4402550
  89.9695090  34.5585820  10.7845530  87.4460440  39.4135000   4.5470100
  86.5050580  39.4285230   4.7217790  87.7604510  38.6270960   4.9930400
  89.4486020  46.5843850   6.2224360  89.5733440  47.4075020   6.6948170
  90.3151580  46.3734580   5.8748510  76.9203550  48.6775060   5.8941490
  77.6566030  48.1290520   6.1650060  77.3044470  49.5431070   5.7547480
  73.8049030  44.7448630   1.7683000  72.8788810  44.9869770   1.7588410
  74.2705460  45.5722890   1.6467750  75.9261830  47.8621130  15.0827070
  76.7274560  48.1833180  15.4962470  75.4113650  47.5016710  15.8046980
  84.7626460  43.9701000  15.0302480  84.1564620  43.9932600  14.2898230
  84.4580570  43.2384040  15.5669730  86.1926830  47.6981290  13.6411890
  87.1448580  47.6139310  13.5912130  86.0455050  48.3623000  14.3145680
  73.6459640  40.3494590  14.0263120  74.1498660  39.7701870  14.5979350
  72.9067060  40.6334820  14.5639490  80.6997580  41.7565580  13.5598640
  79.9343250  42.3250580  13.4753310  80.8813540  41.4641790  12.6666870
  87.8420930  43.4870910  14.1173660  88.5830400  43.8246670  13.6141120
  87.0793610  43.6562970  13.5643430  75.6782720  38.4924180  14.9213190
  75.7188060  38.1938050  15.8298420  76.5328220  38.8931790  14.7620710
  77.6188530  37.0716280  12.8887680  77.0884990  36.5807230  12.2611020
  78.2876600  37.5000480  12.3545610  86.5166590  41.5385740  12.6528870
  86.9307610  41.6930820  13.5019290  85.5817590  41.6640960  12.8154650
  86.9888760  38.8781900  14.6568020  87.5709530  38.1234220  14.5688500
  87.1650530  39.4089340  13.8799500  78.1060830  34.0378650  12.9684970
  78.0117700  33.4199400  12.2435840  77.5258220  34.7644940  12.7414880
  80.8722270  32.5951890  10.0012360  80.4239570  32.6176150   9.1557910
  80.2387470  32.1970910  10.5982660  81.2781820  41.4906220  10.6224800
  81.6969930  42.3338950  10.4501040  80.3590450  41.6278260  10.3931580
  83.6145720  39.2222400  12.0062640  83.7341930  38.6263540  12.7457480
  84.4739720  39.2592090  11.5863940  85.9533620  39.7759590  10.5825150
  85.4268840  40.3002210   9.9790290  86.2964960  40.4086980  11.2134880
  79.1289240  47.7959230  11.7382530  78.5910330  48.5205290  11.4191230
  79.3823200  47.3189570  10.9479870  80.3814490  35.7643750  13.2638460
  80.9714180  35.4559600  13.9516280  79.5634730  35.2923500  13.4198360
  85.2007920  35.3809560  13.4971480  84.5123440  34.7191100  13.4321470
  85.9213940  34.9347830  13.9419940  81.9851450  49.0310440  11.9969180
  81.9110150  49.9345580  12.3041550  81.0830290  48.7122340  11.9691250
  73.3878740  46.3585030   5.3002800  73.7181750  45.4906090   5.0681440
  73.8169740  46.5643550   6.1307760  77.9840660  44.6894040   2.9604770
  77.6836200  44.5659010   3.8608680  77.8778150  43.8302630   2.5520500
  73.8768950  47.2255620   8.0384430  73.4399940  47.4056420   8.8708580
  74.4446630  47.9830240   7.8966150  89.5131130  46.7272620  12.3261740
  88.9133120  46.7865180  11.5825660  89.6425030  45.7877600  12.4558590
  73.7093380  39.7375850   4.3973310  73.0542220  39.4687490   3.7533010
  74.5471330  39.6280330   3.9475290  91.2149010  42.0688020   5.0107580
  91.5857840  41.2855340   4.6043550  91.8550940  42.7577120   4.8324880
  88.1982770  43.4524600  10.4237900  87.3842610  43.8821760  10.6863690
  88.6056970  44.0643010   9.8106950  90.1573550  39.4441280   2.3167600
  89.7817150  38.6769210   1.8848890  89.4276670  39.8263980   2.8042530
  74.7469310  40.1228420   8.9376650  75.1142350  40.0355820   9.8172670
  74.1780130  39.3594970   8.8383510  89.5473170  38.5912800  11.9507120
  89.3159260  38.3625550  11.0505070  89.8077720  39.5112350  11.9052010
  74.2985310  37.0337510  12.8435070  73.4041360  37.0004270  13.1828780
  74.8382860  37.2324300  13.6086320  87.9861240  33.8169230  14.7286820
  88.8631420  33.8252630  15.1120820  87.9982080  33.0800070  14.1179170
  89.4324510  37.6698770   5.6174840  89.9561990  37.1761420   4.9865010
  90.0183930  37.8049130   6.3622410  89.6114230  37.7538640   9.1394390
  88.6616940  37.7202180   9.2539380  89.7927240  38.6638750   8.9044160
  74.8025020  31.3085840   7.1918290  75.4501210  30.7583220   6.7513450
  75.2226860  31.5628990   8.0134100  90.3511640  35.5633070   4.0904930
  90.2410920  35.4089110   5.0287200  91.1119230  35.0354010   3.8480340
  88.6977360  31.5027200  10.5487930  89.3349580  32.1161340  10.9147120
  88.8452250  31.5387860   9.6037160  88.2558820  48.2043200   3.9506170
  88.8517890  47.8827770   3.2740590  88.5136970  47.7315020   4.7419440
  74.5557020  31.4641510   9.9343610  74.2071840  31.9205330  10.7001790
  74.2244720  30.5698640  10.0166040  76.1621390  44.6361110  14.0996800
  76.1191020  44.2654020  14.9811260  76.2932400  45.5738680  14.2398620
  79.8627420  46.1920700   9.7006520  79.6218780  46.4595260   8.8137040
  80.8030060  46.3626430   9.7557380  82.0681840  32.6553390  13.4563030
  82.0070730  33.2475220  14.2058440  83.0082220  32.5479350  13.3113290
  84.7056400  32.3123450  13.0955320  85.3196810  32.6302740  12.4336400
  85.2505960  31.8272040  13.7151180  91.1231580  48.2115080  10.5017160
  90.6289860  48.6083950   9.7844290  90.5144870  47.5864290  10.8954440
  75.2277660  30.9917710  13.2094380  75.7760650  30.8105760  12.4460490
  75.2932970  30.2011820  13.7450690  76.0009420  47.5823360  11.2194580
  75.4069740  47.4508060  11.9584620  75.9933260  46.7461500  10.7536680
  85.4464440  30.8755590   9.4224610  84.5724280  31.2090700   9.2197540
  85.3375190  30.4028770  10.2476480  86.3536420  33.0826460  10.8066330
  86.0249780  32.2678220  10.4268060  87.3018720  33.0396270  10.6832020
  88.8071030  48.8538500   7.7803900  88.3474000  49.6054310   7.4061920
  88.1783490  48.1344970   7.7218700  75.6321650  44.9481740  10.1702620
  74.9055710  44.3287030  10.1028570  75.6930800  45.3422350   9.3000700
  79.2366750  47.1626740   6.9552030  79.7531770  46.5514100   6.4300290
  79.8864130  47.6655520   7.4463040  81.9762250  48.0535230   7.7821010
  82.2640060  47.7989530   6.9054020  82.4885470  47.5012590   8.3726580
  83.1939260  31.7925430   8.3617520  82.4111050  32.2670930   8.6414280
  82.9002190  30.8880260   8.2530700  87.7460330  32.4948530   6.4066610
  88.1868420  32.4393630   5.5588210  87.4767920  33.4106540   6.4776790
  89.6098900  32.1263770   4.4175430  89.5487300  31.1824990   4.2706450
  90.3890930  32.2343860   4.9628890  73.9151650  48.2656130   3.3799380
  73.7473690  47.6326810   4.0781270  73.0486160  48.4715530   3.0293570
  81.0793480  34.2112180   3.8733550  80.2667990  33.8369070   3.5329430
  81.5835120  33.4557260   4.1754740  85.5818460  30.8754630   5.1116620
  86.1847830  31.4474840   5.5865140  84.8411450  31.4394070   4.8890520
  79.1042660  32.3612100   2.4778600  78.4745400  31.6599410   2.6448730
  78.5647800  33.1216230   2.2611760  82.0434610  48.9751330  15.1489210
  82.9701920  48.7395600  15.1925170  82.0285040  49.8023330  14.6675240
  90.2779670  48.5176900   2.1463460  90.4531860  47.8314640   1.5024380
  89.5801240  49.0423950   1.7540130  79.2298220  31.6396080  14.9131090
  78.9482490  32.1429680  14.1491910  79.6117920  30.8417830  14.5473220
  85.8313680  31.0549660  15.4911560  85.7179130  31.3744270  16.3863080
  86.6483420  31.4562170  15.1948840  88.6112170  48.2021190  14.9730250
  89.4037490  47.7070420  14.7656210  88.9045320  48.8811330  15.5805860
  84.7371830  20.2998640  98.5007240  84.6565880  19.3853250  98.2298950
  84.3236250  20.7965710  97.7946950  82.8689870  22.0777660 100.3816510
  82.0931970  21.5978100 100.6715080  83.5202800  21.3983310 100.2072670
  76.8855700  22.3897470 101.2592270  76.0540580  22.1346180 101.6588780
  77.4936680  22.4608240 101.9950190  86.8897300  26.4837850  99.1615640
  86.4278830  25.7125090  99.4902810  87.7022850  26.5103920  99.6668090
  76.8656960  26.4237560 101.4550290  77.1685000  25.5335300 101.2760510
  77.6100550  26.9807780 101.2272540  75.2947650  17.3499360  95.0434660
  74.4064350  17.6915330  94.9414540  75.5788840  17.1499680  94.1515490
  73.2580660  19.9505010 100.9274360  73.8296770  19.1827210 100.9278000
  73.2582200  20.2493770 100.0180970  83.1160610  28.7695860  98.7819630
  82.4972050  29.2253360  98.2114070  83.9712390  28.9247320  98.3809330
  82.3098860  24.7534850 100.3886670  82.2407140  23.8124790 100.2275800
  83.0718720  24.8436260 100.9609240  74.5005530  15.3589370 102.7143290
  74.3208370  14.4615120 102.9946050  74.0985610  15.9061240 103.3890240
  83.3404030  17.5605230 100.6155600  83.7168850  16.6877110 100.5029270
  83.2423540  17.8963930  99.7246040  77.4709040  15.9330860  96.0773040
  77.5775790  16.8334590  96.3841800  76.5601400  15.8848830  95.7867690
  87.1228150  15.0555670  97.5483940  87.9437770  14.5652240  97.5909420
  87.1562230  15.6453330  98.3015780  75.1192200  17.8549870 101.3225630
  75.8002310  18.1188240 101.9413030  74.8040250  17.0150740 101.6563640
  79.3116770  18.9017230 100.4098220  79.8194990  19.3998200 101.0503240
  79.8430010  18.1252430 100.2337580  91.4127700  17.0722420 104.1127570
  90.7079870  17.4604130 103.5942680  91.6785620  17.7672710 104.7148500
  77.5952870  13.5415790 104.6761640  77.5971310  14.0588180 103.8707540
  76.7657180  13.0645970 104.6531570  83.9823960  23.6535100  96.1751540
  83.3641230  24.1184550  95.6114260  84.4947210  24.3462580  96.5921050
  78.8455720  23.1810970 102.8535140  78.5125100  23.8079890 103.4956210
  79.0222400  23.7072850 102.0736810  87.3589630  16.9956050 100.3211480
  86.6545200  17.2840940 100.9014590  87.7201790  17.8056160  99.9611040
  77.2768200  15.2525750 102.6832090  77.6185010  16.0967800 102.3885960
  76.3384010  15.4009490 102.7997430  78.0574820  25.1491770 104.6684320
  78.6748820  25.8242850 104.3868770  77.1967940  25.5579750 104.5771820
  73.3507160  24.3391630  93.5491170  72.9735140  24.8278730  92.8176070
  73.6080230  25.0116910  94.1797700  88.9752410  26.6131180 102.5838960
  88.2915930  27.2830290 102.5755630  89.5146700  26.8111830 101.8183820
  90.4276550  16.4410840 100.7120690  89.4801460  16.4749820 100.8436120
  90.7526540  17.2549790 101.0970050  80.9596090  12.7408020  99.0076680
  81.2671070  12.1854910  98.2912180  80.0296790  12.8752480  98.8249670
  86.5111150  28.4575310 101.2984140  86.5238310  28.0537600 100.4306400
  85.9586370  29.2322600 101.1945570  87.8056570  25.1791530  96.3874310
  87.6952900  24.2365860  96.5123730  87.8024820  25.5407170  97.2737070
  85.9096590  23.3605150 102.6266750  86.3265380  23.1465260 101.7920210
  86.6336410  23.6177940 103.1975370  83.3476850  20.8056850  95.7436800
  82.4206130  20.7394230  95.9725270  83.5001670  21.7436980  95.6292040
  83.3345930  17.0773850  92.7403960  82.3949600  17.2387810  92.8256420
  83.6529190  17.7959530  92.1939950  89.8558690  21.7592370 102.7182990
  89.0277320  21.8285460 102.2433120  90.4509170  22.3446680 102.2498820
  87.3774140  22.3677150  96.2472050  86.7586560  22.0296700  95.5998350
  87.3598590  21.7236910  96.9551240  86.8200700  18.5461690 103.6637860
  86.4071880  19.3715400 103.9177850  86.0876650  17.9606730 103.4714220
  78.9533490  21.3321590  98.5256530  78.5490490  20.6198840  98.0302430
  79.0396610  20.9874830  99.4144570  79.4215190  25.0189150 100.6895740
  79.1243480  24.4134620 100.0103520  80.3715010  25.0566460 100.5785100
  77.6662110  18.1064800 102.3055570  78.2176700  18.2160140 101.5308820
  78.1805620  18.4802400 103.0210800  87.5100800  28.5921020 104.3518840
  87.0331360  29.3993210 104.1591450  86.8262590  27.9399350 104.5045050
  85.5538840  21.6063960  93.2544800  85.9932120  20.7686390  93.1082620
  86.2667260  22.2393360  93.3408940  83.6634220  26.5460030  97.2226040
  84.1030130  27.2884360  96.8081430  83.6021110  26.7886600  98.1465000
  89.1355980  12.8606770  91.5685840  88.8228640  12.9533600  92.4684910
  89.8968450  13.4387800  91.5183270  75.6538120  20.2266570  96.0263180
  75.5335720  20.9528660  95.4144450  75.3439010  19.4569480  95.5491090
  73.2923490  23.3981710 101.8331820  73.3703910  23.5330480 100.8887540
  73.9065170  22.6897600 102.0259940  74.5371120  25.0981900  98.2438000
  74.1299200  25.2396490  97.3891600  75.4284130  24.8142060  98.0409210
  86.3304400  29.5329150  94.5789050  86.1705540  29.2432090  95.4770880
  86.1651110  28.7569280  94.0434280  78.8092780  29.3127680  96.3560670
  78.6335260  28.3963220  96.1428470  77.9548520  29.6714970  96.5958470
  86.0330530  27.0416710  93.1387050  85.3395690  27.0394000  92.4789330
  86.7753390  26.6176030  92.7081220  85.5980460  28.6679420  97.2135540
  86.0537410  27.8868800  97.5274160  85.9372980  29.3786240  97.7576720
  78.1201780  13.5701640  99.4086850  77.6769930  14.3511180  99.0771370
  78.6786770  13.8931530 100.1157790  81.2360600  13.1912340  94.2892680
  80.6114780  13.1872210  95.0145990  81.1490720  12.3243300  93.8928650
  80.1577680  14.1148970 101.2676450  80.4550010  15.0211800 101.1868470
  80.7063240  13.6267750 100.6536020  77.9116000  18.6935210  97.1368100
  77.6856920  18.4772380  98.0414720  77.1308530  19.1263670  96.7914070
  85.1413760  18.6998580  95.7358750  84.5422650  19.4234380  95.5522370
  85.6893370  18.6375360  94.9535200  83.7478630  17.3362120  97.7662030
  84.1408200  17.6534320  96.9530720  84.1095480  16.4574000  97.8806550
  72.7842800  13.9262920  99.9892230  72.4955850  14.4965780 100.7017210
  73.5288560  13.4467370 100.3523460  72.9713030  17.8683040  91.1994950
  72.8887700  18.8113800  91.3409940  72.6196090  17.7257950  90.3207300
  84.3333770  19.9267870 101.8612810  83.6014890  20.4354680 102.2102910
  83.9358110  19.1097850 101.5601590  80.7711160  16.6022070 100.2665300
  80.7747220  16.1612020  99.4169840  81.6662280  16.9239400 100.3737120
  76.6213540  16.4848560  99.2259510  76.2813590  16.9623790  99.9826560
  75.8590860  16.0313680  98.8660610  80.8331310  17.6034150  93.2572060
  80.9544130  17.5620630  94.2057880  80.4479820  18.4658300  93.1018790
  84.7959680  15.3801550 101.2735750  84.8132420  15.8310200 102.1177600
  84.5475260  14.4807190 101.4869190  79.8452810  19.9135290  92.6555360
  79.2769710  19.4653540  92.0291270  80.5541810  20.2728070  92.1220510
  81.0719130  20.6623850 102.0130710  81.4389260  20.1882420 102.7592050
  80.8824190  21.5365420 102.3539050  73.9359620  15.4067540  98.1424180
  73.6506540  15.0423210  98.9802800  73.8738480  14.6748000  97.5287320
  78.8618500  19.7032490 104.3314920  78.5575570  20.5824470 104.5565280
  79.8164960  19.7632280 104.3672360  77.3900290  23.9093480  94.9281770
  76.6162550  23.3691100  94.7680490  78.1194920  23.3900090  94.5899530
  88.1488270  22.9058840 100.7208160  88.8687390  23.4014130 100.3304270
  87.9470090  22.2276730 100.0762030  83.6098210  14.2996800  94.8637550
  82.7962820  13.8009970  94.7882860  83.4160160  15.1395050  94.4473900
  86.3246600  18.6716450  93.1599710  87.2126220  18.9833680  92.9851050
  86.2951690  17.7988700  92.7680290  77.4337690  23.5773860  98.5660580
  77.9516360  22.7742120  98.5117470  76.9821710  23.5153000  99.4077410
  82.3207190  24.8440140  93.8387880  82.6622890  25.5882370  93.3431200
  81.4919900  25.1571260  94.2012710  88.5960870  19.9828290  92.6279570
  88.5124590  20.4142510  91.7776010  89.3155060  20.4426640  93.0606390
  89.6248120  26.8370550  95.3561700  88.9824280  26.1826170  95.6305420
  89.2378780  27.2425640  94.5802370  85.2034600  24.1655980  99.2033390
  85.5558420  23.5684110  98.5434760  84.3196930  23.8400210  99.3741640
  81.2897880  24.9253670  96.6103800  81.9769010  25.4722880  96.9911390
  80.5030300  25.4694400  96.6453410  73.4290280  20.5426490  92.1020880
  74.2985130  20.8251290  92.3856800  72.9380600  21.3562360  91.9869690
  80.5925090  21.9299700  96.2229160  81.0487870  22.7404950  96.4489350
  80.2413300  21.6122840  97.0547650  82.8957700  27.4406040 103.4521460
  83.5399920  27.6465420 104.1294880  83.2587140  26.6794440 102.9992310
  76.4936870  12.2737350  96.6951680  76.3651500  12.2655250  97.6436600
  75.6698890  12.6120440  96.3442690  84.1689780  25.4438390 102.1698910
  84.8112010  24.7431550 102.2831080  84.6939130  26.2236830 101.9895800
  88.0145500  25.7287010  91.8938050  87.7883080  25.0117450  92.4862690
  87.6241700  25.4799450  91.0559800  73.7961530  29.7553870  92.6682510
  74.1559170  30.3543210  92.0139780  73.6553870  30.3013760  93.4417540
  87.5961750  23.6458950  93.5552210  87.3083450  24.1071640  94.3430090
  88.3913920  23.1856720  93.8236430  79.8130150  27.1385070  93.4856180
  79.8040250  27.8714760  92.8700690  78.8928510  26.8916650  93.5783140
  75.4136790  22.3599960  94.2302940  74.8064740  23.0998860  94.2398240
  75.8886140  22.4499320  93.4041140  84.9869580  16.5250780 103.9059830
  85.3550400  15.7045990 104.2339400  84.1267780  16.5852670 104.3215480
  88.3531610  15.4807720  94.7147390  87.7244770  15.5853390  94.0005620
  87.8583530  15.7004500  95.5041270  82.7989750  27.2013310  92.1481370
  82.9001730  26.9977300  91.2183350  81.8991490  26.9471590  92.3529150
  80.3215640  17.7593670  96.1305270  79.6131790  18.2280010  96.5718880
  80.6060120  17.1015680  96.7650460  81.9471570  19.1790370 104.1297800
  82.4456820  19.6536190 104.7949650  82.0894520  18.2553890 104.3367830
  84.3531070  14.4844330  97.5701060  84.2298850  14.5030460  96.6210570
  85.3015630  14.5323270  97.6899460  81.4407860  29.7199630  96.8429040
  81.6949360  29.6821020  95.9208410  80.4920340  29.5932960  96.8357290
  78.5250660  16.0678750  93.5055980  79.3741190  16.5048900  93.4396170
  78.1581930  16.3799010  94.3328040  87.4460440  20.6391510  98.4187550
  86.5050580  20.6541740  98.5935240  87.7604510  19.8527470  98.8647850
  77.4242080  22.3211110  91.9791510  78.1905350  22.2092470  92.5416940
  77.5016770  21.6249080  91.3268280  76.1188840  19.7536180  92.6624400
  76.1992430  18.8063690  92.7741800  77.0108590  20.0843060  92.7685060
  89.4486020  27.8100360 100.0941810  89.5733440  28.6331530 100.5665620
  90.3151580  27.5991090  99.7465960  76.9203550  29.9031570  99.7658940
  77.6566030  29.3547030 100.0367510  77.3044470  30.7687580  99.6264930
  73.8049030  25.9705140  95.6400450  72.8788810  26.2126280  95.6305860
  74.2705460  26.7979400  95.5185200  80.0305860  29.0761880  91.5884510
  80.8234470  29.3650710  91.1366300  79.5110210  28.6454050  90.9096990
  89.0836030  28.3032010  93.0121250  88.7977540  27.8897150  92.1975430
  88.8855580  29.2319720  92.8921770  80.5483260  24.2965290  91.4526860
  80.4433900  23.6817640  92.1788240  80.3807480  23.7731180  90.6689870
  83.7885990  23.3585320  92.0568850  83.2396090  23.8054620  92.7011590
  84.4105250  22.8534570  92.5806520  79.4561110  22.3176240  93.9534150
  79.8777530  22.1516110  94.7965540  79.5811950  21.5076470  93.4589290
  81.9688750  21.3413850  91.2011250  82.4894410  20.6262870  90.8352400
  82.6157150  21.9799720  91.5011760  80.8722270  13.8208400 103.8729810
  80.4239570  13.8432660 103.0275360  80.2387470  13.4227420 104.4700110
  81.2781820  22.7162730 104.4942250  81.6969930  23.5595460 104.3218490
  80.3590450  22.8534770 104.2649030  78.3520010  18.3909470  90.8992310
  78.1509070  17.5276830  91.2605650  78.1812060  18.3042830  89.9613910
  85.8308320  13.2017700  93.4279190  86.1110610  12.3585600  93.7838610
  85.0574050  13.4340810  93.9417940  77.1502810  15.4910090  90.8870190
  77.4528710  15.4977520  89.9789340  77.8897400  15.1407950  91.3837850
  80.3687740  14.4344710  91.8726390  80.0209740  13.7568700  91.2928840
  80.5700510  13.9734220  92.6869780  82.5336780  29.4225460  93.4912990
  83.4287570  29.7610430  93.5131750  82.5654410  28.7004870  92.8637270
  76.1732940  24.7952510  91.7199990  76.6107810  25.3382180  92.3757570
  76.6580670  23.9699460  91.7296330  73.3878740  27.5841540  99.1720250
  73.7181750  26.7162600  98.9398890  73.8169740  27.7900060 100.0025210
  77.9840660  25.9150550  96.8322220  77.6836200  25.7915520  97.7326130
  77.8778150  25.0559140  96.4237950  73.8768950  28.4512130 101.9101880
  73.4399940  28.6312930 102.7426030  74.4446630  29.2086750 101.7683600
  90.7532580  25.6946950  91.5348900  89.9225540  25.7623600  92.0056130
  90.9304410  26.5851070  91.2315760  90.2089040  22.4394430  94.0383100
  90.9707950  23.0091080  94.1442790  90.2243410  21.8721630  94.8091410
  73.7093380  20.9632360  98.2690760  73.0542220  20.6944000  97.6250460
  74.5471330  20.8536840  97.8192740  91.2149010  23.2944530  98.8825030
  91.5857840  22.5111850  98.4761000  91.8550940  23.9833630  98.7042330
  88.1982770  24.6781110 104.2955350  87.3842610  25.1078270 104.5581140
  88.6056970  25.2899520 103.6824400  90.2608210  22.7328800  91.1955620
  90.5357050  23.6407680  91.0674840  90.0718950  22.6691330  92.1317610
  86.6583820  15.7573650  92.4909250  87.0768700  15.5704630  91.6505910
  86.3519880  14.9052700  92.8012180  90.1573550  20.6697790  96.1885050
  89.7817150  19.9025720  95.7566340  89.4276670  21.0520490  96.6759980
  74.7469310  21.3484930 102.8094100  75.1142350  21.2612330 103.6890120
  74.1780130  20.5851480 102.7100960  72.9231460  18.1731290  94.2116090
  72.0195540  18.4361490  94.0367750  73.4072080  18.4442460  93.4316050
  89.4324510  18.8955280  99.4892290  89.9561990  18.4017930  98.8582460
  90.0183930  19.0305640 100.2339860  89.6114230  18.9795150 103.0111840
  88.6616940  18.9458690 103.1256830  89.7927240  19.8895260 102.7761610
  75.4658670  17.2296830  92.1210470  76.1750370  16.8080050  91.6357750
  74.7498610  17.2972060  91.4893820  75.1132830  13.2836160  91.1613120
  75.8360960  13.8245100  91.4794340  75.3857350  13.0099580  90.2854660
  88.9224480  18.1528630  95.4284700  89.4183600  17.9199500  96.2133580
  88.7240550  17.3140470  95.0122340  74.8025020  12.5342350 101.0635740
  75.4501210  11.9839730 100.6230900  75.2226860  12.7885500 101.8851550
  90.3511640  16.7889580  97.9622380  90.2410920  16.6345620  98.9004650
  91.1119230  16.2610520  97.7197790  88.6977360  12.7283710 104.4205380
  89.3349580  13.3417850 104.7864570  88.8452250  12.7644370 103.4754610
  91.2401910  14.6197500  91.2028520  92.1651220  14.4878680  90.9946810
  91.2177700  14.6990320  92.1564970  91.3140400  15.3908160  93.8285230
  90.5191900  15.3253280  94.3578140  91.5183680  16.3258800  93.8170580
  88.2558820  29.4299710  97.8223620  88.8517890  29.1084280  97.1458040
  88.5136970  28.9571530  98.6136890  74.5557020  12.6898020 103.8061060
  74.2071840  13.1461840 104.5719240  74.2244720  11.7955150 103.8883490
  79.8627420  27.4177210 103.5723970  79.6218780  27.6851770 102.6854490
  80.8030060  27.5882940 103.6274830  91.1231580  29.4371590 104.3734610
  90.6289860  29.8340460 103.6561740  90.5144870  28.8120800 104.7671890
  85.4464440  12.1012100 103.2942060  84.5724280  12.4347210 103.0914990
  85.3375190  11.6285280 104.1193930  86.3536420  14.3082970 104.6783780
  86.0249780  13.4934730 104.2985510  87.3018720  14.2652780 104.5549470
  88.8071030  30.0795010 101.6521350  88.3474000  30.8310820 101.2779370
  88.1783490  29.3601480 101.5936150  75.6321650  26.1738250 104.0420070
  74.9055710  25.5543540 103.9746020  75.6930800  26.5678860 103.1718150
  79.2366750  28.3883250 100.8269480  79.7531770  27.7770610 100.3017740
  79.8864130  28.8912030 101.3180490  81.9762250  29.2791740 101.6538460
  82.2640060  29.0246040 100.7771470  82.4885470  28.7269100 102.2444030
  83.1939260  13.0181940 102.2334970  82.4111050  13.4927440 102.5131730
  82.9002190  12.1136770 102.1248150  87.7460330  13.7205040 100.2784060
  88.1868420  13.6650140  99.4305660  87.4767920  14.6363050 100.3494240
  89.6098900  13.3520280  98.2892880  89.5487300  12.4081500  98.1423900
  90.3890930  13.4600370  98.8346340  73.9151650  29.4912640  97.2516830
  73.7473690  28.8583320  97.9498720  73.0486160  29.6972040  96.9011020
  74.5379670  13.3229420  94.7548690  75.2959030  13.4358300  94.1812720
  74.0756840  14.1598620  94.7092120  81.0793480  15.4368690  97.7451000
  80.2667990  15.0625580  97.4046880  81.5835120  14.6813770  98.0472190
  85.5818460  12.1011140  98.9834070  86.1847830  12.6731350  99.4582590
  84.8411450  12.6650580  98.7607970  88.7253060  12.5032700  94.2574350
  88.9203690  13.4016150  94.5241780  87.9382930  12.2719780  94.7507300
  75.5214350  28.1845870  94.6966970  74.9961970  28.5653900  93.9928930
  75.4458930  28.8096640  95.4176680  76.9104820  13.8493470  93.2950660
  77.4397580  13.0623270  93.1658610  77.5433140  14.5284660  93.5286190
  79.1042660  13.5868610  96.3496050  78.4745400  12.8855920  96.5166180
  78.5647800  14.3472740  96.1329210  90.2779670  29.7433410  96.0180910
  90.4531860  29.0571150  95.3741830  89.5801240  30.2680460  95.6257580
  78.1207320  30.1328250  93.5716220  78.8526140  29.8487530  93.0240110
  78.3800990  29.8941530  94.4615600  77.2822110  26.2492980  93.5762550
  76.6530990  26.7178080  94.1248380  77.3969940  25.4042200  94.0108740
  84.7371830  20.2998640  79.7263750  84.6565880  19.3853250  79.4555460
  84.3236250  20.7965710  79.0203460  82.8689870  22.0777660  81.6073020
  82.0931970  21.5978100  81.8971590  83.5202800  21.3983310  81.4329180
  76.8855700  22.3897470  82.4848780  76.0540580  22.1346180  82.8845290
  77.4936680  22.4608240  83.2206700  86.8897300  26.4837850  80.3872150
  86.4278830  25.7125090  80.7159320  87.7022850  26.5103920  80.8924600
  76.8656960  26.4237560  82.6806800  77.1685000  25.5335300  82.5017020
  77.6100550  26.9807780  82.4529050  75.2947650  17.3499360  76.2691170
  74.4064350  17.6915330  76.1671050  75.5788840  17.1499680  75.3772000
  73.2580660  19.9505010  82.1530870  73.8296770  19.1827210  82.1534510
  73.2582200  20.2493770  81.2437480  83.1160610  28.7695860  80.0076140
  82.4972050  29.2253360  79.4370580  83.9712390  28.9247320  79.6065840
  82.3098860  24.7534850  81.6143180  82.2407140  23.8124790  81.4532310
  83.0718720  24.8436260  82.1865750  74.5005530  15.3589370  83.9399800
  74.3208370  14.4615120  84.2202560  74.0985610  15.9061240  84.6146750
  83.3404030  17.5605230  81.8412110  83.7168850  16.6877110  81.7285780
  83.2423540  17.8963930  80.9502550  77.4709040  15.9330860  77.3029550
  77.5775790  16.8334590  77.6098310  76.5601400  15.8848830  77.0124200
  87.1228150  15.0555670  78.7740450  87.9437770  14.5652240  78.8165930
  87.1562230  15.6453330  79.5272290  75.1192200  17.8549870  82.5482140
  75.8002310  18.1188240  83.1669540  74.8040250  17.0150740  82.8820150
  79.3116770  18.9017230  81.6354730  79.8194990  19.3998200  82.2759750
  79.8430010  18.1252430  81.4594090  91.4127700  17.0722420  85.3384080
  90.7079870  17.4604130  84.8199190  91.6785620  17.7672710  85.9405010
  77.5952870  13.5415790  85.9018150  77.5971310  14.0588180  85.0964050
  76.7657180  13.0645970  85.8788080  83.9823960  23.6535100  77.4008050
  83.3641230  24.1184550  76.8370770  84.4947210  24.3462580  77.8177560
  78.8455720  23.1810970  84.0791650  78.5125100  23.8079890  84.7212720
  79.0222400  23.7072850  83.2993320  87.3589630  16.9956050  81.5467990
  86.6545200  17.2840940  82.1271100  87.7201790  17.8056160  81.1867550
  77.2768200  15.2525750  83.9088600  77.6185010  16.0967800  83.6142470
  76.3384010  15.4009490  84.0253940  78.0574820  25.1491770  85.8940830
  78.6748820  25.8242850  85.6125280  77.1967940  25.5579750  85.8028330
  73.3507160  24.3391630  74.7747680  72.9735140  24.8278730  74.0432580
  73.6080230  25.0116910  75.4054210  88.9752410  26.6131180  83.8095470
  88.2915930  27.2830290  83.8012140  89.5146700  26.8111830  83.0440330
  90.4276550  16.4410840  81.9377200  89.4801460  16.4749820  82.0692630
  90.7526540  17.2549790  82.3226560  80.9596090  12.7408020  80.2333190
  81.2671070  12.1854910  79.5168690  80.0296790  12.8752480  80.0506180
  86.5111150  28.4575310  82.5240650  86.5238310  28.0537600  81.6562910
  85.9586370  29.2322600  82.4202080  87.8056570  25.1791530  77.6130820
  87.6952900  24.2365860  77.7380240  87.8024820  25.5407170  78.4993580
  85.9096590  23.3605150  83.8523260  86.3265380  23.1465260  83.0176720
  86.6336410  23.6177940  84.4231880  83.3476850  20.8056850  76.9693310
  82.4206130  20.7394230  77.1981780  83.5001670  21.7436980  76.8548550
  83.3345930  17.0773850  73.9660470  82.3949600  17.2387810  74.0512930
  83.6529190  17.7959530  73.4196460  89.8558690  21.7592370  83.9439500
  89.0277320  21.8285460  83.4689630  90.4509170  22.3446680  83.4755330
  87.3774140  22.3677150  77.4728560  86.7586560  22.0296700  76.8254860
  87.3598590  21.7236910  78.1807750  86.8200700  18.5461690  84.8894370
  86.4071880  19.3715400  85.1434360  86.0876650  17.9606730  84.6970730
  78.9533490  21.3321590  79.7513040  78.5490490  20.6198840  79.2558940
  79.0396610  20.9874830  80.6401080  79.4215190  25.0189150  81.9152250
  79.1243480  24.4134620  81.2360030  80.3715010  25.0566460  81.8041610
  77.6662110  18.1064800  83.5312080  78.2176700  18.2160140  82.7565330
  78.1805620  18.4802400  84.2467310  87.5100800  28.5921020  85.5775350
  87.0331360  29.3993210  85.3847960  86.8262590  27.9399350  85.7301560
  78.5133620  24.7570840  88.5660050  77.6162150  24.9810810  88.8133450
  78.5386490  24.8805780  87.6171450  85.5538840  21.6063960  74.4801310
  85.9932120  20.7686390  74.3339130  86.2667260  22.2393360  74.5665450
  77.3404840  21.6284160  87.1417420  77.2012610  22.5006960  87.5104820
  76.4586200  21.2856970  86.9965360  83.6634220  26.5460030  78.4482550
  84.1030130  27.2884360  78.0337940  83.6021110  26.7886600  79.3721510
  79.1385190  27.5705860  89.3502570  79.1100620  27.9748810  88.4831000
  78.9750160  26.6416220  89.1874170  89.1355980  12.8606770  72.7942350
  88.8228640  12.9533600  73.6941420  89.8968450  13.4387800  72.7439780
  75.6538120  20.2266570  77.2519690  75.5335720  20.9528660  76.6400960
  75.3439010  19.4569480  76.7747600  91.0900010  28.3532960  90.6466740
  91.5659730  28.8315850  91.3255820  91.7107170  28.2850450  89.9212240
  73.2923490  23.3981710  83.0588330  73.3703910  23.5330480  82.1144050
  73.9065170  22.6897600  83.2516450  74.5371120  25.0981900  79.4694510
  74.1299200  25.2396490  78.6148110  75.4284130  24.8142060  79.2665720
  90.4933260  25.5445810  87.8066750  90.6196320  25.3057690  86.8883930
  90.5354640  24.7130350  88.2788830  84.3550000  29.2473810  86.3761560
  84.8694670  29.1581820  87.1783990  83.5119080  29.5933510  86.6689470
  86.3304400  29.5329150  75.8045560  86.1705540  29.2432090  76.7027390
  86.1651110  28.7569280  75.2690790  78.8092780  29.3127680  77.5817180
  78.6335260  28.3963220  77.3684980  77.9548520  29.6714970  77.8214980
  86.0330530  27.0416710  74.3643560  85.3395690  27.0394000  73.7045840
  86.7753390  26.6176030  73.9337730  85.5980460  28.6679420  78.4392050
  86.0537410  27.8868800  78.7530670  85.9372980  29.3786240  78.9833230
  90.3457270  17.5978270  88.7716490  89.7301540  18.1057940  88.2431950
  90.0253690  16.6976600  88.7142430  73.3483010  24.4395880  85.5982790
  73.5114050  23.9701240  84.7802160  73.8135460  23.9319440  86.2631630
  78.1201780  13.5701640  80.6343360  77.6769930  14.3511180  80.3027880
  78.6786770  13.8931530  81.3414300  82.4071590  16.4370160  86.2378680
  81.9450960  16.6453180  87.0498620  82.0049700  15.6229510  85.9349350
  87.4076100  17.6579110  87.3675340  86.5569690  17.3584860  87.6884410
  87.2477890  17.9021120  86.4559160  84.5025810  19.1580860  89.4674130
  84.8279220  18.3244610  89.1276360  85.2906140  19.6809380  89.6152460
  81.2360600  13.1912340  75.5149190  80.6114780  13.1872210  76.2402500
  81.1490720  12.3243300  75.1185160  80.1577680  14.1148970  82.4932960
  80.4550010  15.0211800  82.4124980  80.7063240  13.6267750  81.8792530
  77.9116000  18.6935210  78.3624610  77.6856920  18.4772380  79.2671230
  77.1308530  19.1263670  78.0170580  85.1413760  18.6998580  76.9615260
  84.5422650  19.4234380  76.7778880  85.6893370  18.6375360  76.1791710
  80.3515210  19.5920790  89.0284880  80.2558810  18.6515520  88.8785280
  81.1947190  19.8135860  88.6332950  83.7478630  17.3362120  78.9918540
  84.1408200  17.6534320  78.1787230  84.1095480  16.4574000  79.1063060
  75.4825750  16.0034460  87.1818660  75.0889140  16.8509670  87.3891440
  74.7944150  15.3660830  87.3727300  82.0570800  16.0869430  90.2515400
  81.3669120  15.8941630  90.8861490  82.8003100  16.3704070  90.7839700
  72.7842800  13.9262920  81.2148740  72.4955850  14.4965780  81.9273720
  73.5288560  13.4467370  81.5779970  72.9713030  17.8683040  72.4251460
  72.8887700  18.8113800  72.5666450  72.6196090  17.7257950  71.5463810
  84.3333770  19.9267870  83.0869320  83.6014890  20.4354680  83.4359420
  83.9358110  19.1097850  82.7858100  80.7711160  16.6022070  81.4921810
  80.7747220  16.1612020  80.6426350  81.6662280  16.9239400  81.5993630
  76.6213540  16.4848560  80.4516020  76.2813590  16.9623790  81.2083070
  75.8590860  16.0313680  80.0917120  80.8331310  17.6034150  74.4828570
  80.9544130  17.5620630  75.4314390  80.4479820  18.4658300  74.3275300
  84.7959680  15.3801550  82.4992260  84.8132420  15.8310200  83.3434110
  84.5475260  14.4807190  82.7125700  79.8452810  19.9135290  73.8811870
  79.2769710  19.4653540  73.2547780  80.5541810  20.2728070  73.3477020
  88.2230430  12.7933730  88.3378640  88.5476200  12.0623390  88.8636620
  88.2586940  12.4747370  87.4359630  74.9221990  23.8147310  87.7578600
  74.5376780  23.1740980  88.3561560  75.2334180  24.5183430  88.3273330
  81.0719130  20.6623850  83.2387220  81.4389260  20.1882420  83.9848560
  80.8824190  21.5365420  83.5795560  73.9359620  15.4067540  79.3680690
  73.6506540  15.0423210  80.2059310  73.8738480  14.6748000  78.7543830
  78.8618500  19.7032490  85.5571430  78.5575570  20.5824470  85.7821790
  79.8164960  19.7632280  85.5928870  77.3900290  23.9093480  76.1538280
  76.6162550  23.3691100  75.9937000  78.1194920  23.3900090  75.8156040
  88.1488270  22.9058840  81.9464670  88.8687390  23.4014130  81.5560780
  87.9470090  22.2276730  81.3018540  83.6098210  14.2996800  76.0894060
  82.7962820  13.8009970  76.0139370  83.4160160  15.1395050  75.6730410
  83.5307070  22.9767900  87.8333670  83.4644380  22.0563570  87.5791260
  82.9012210  23.0743340  88.5478310  86.3246600  18.6716450  74.3856220
  87.2126220  18.9833680  74.2107560  86.2951690  17.7988700  73.9936800
  77.4337690  23.5773860  79.7917090  77.9516360  22.7742120  79.7373980
  76.9821710  23.5153000  80.6333920  82.3207190  24.8440140  75.0644390
  82.6622890  25.5882370  74.5687710  81.4919900  25.1571260  75.4269220
  74.9182230  20.5435230  86.7042790  74.5597170  21.2089080  87.2916130
  74.6236790  19.7118780  87.0755410  78.1195350  21.0019470  89.5882340
  77.8195490  21.1476650  88.6910160  78.8906590  20.4424760  89.4955730
  83.4623800  25.7988470  87.5837470  83.4768340  24.8669430  87.3656380
  82.7548900  25.8848230  88.2227240  88.5960870  19.9828290  73.8536080
  88.5124590  20.4142510  73.0032520  89.3155060  20.4426640  74.2862900
  89.6735010  22.4395810  86.9306050  88.9483200  23.0324590  86.7335440
  90.2010470  22.4319350  86.1319420  89.6248120  26.8370550  76.5818210
  88.9824280  26.1826170  76.8561930  89.2378780  27.2425640  75.8058880
  85.2034600  24.1655980  80.4289900  85.5558420  23.5684110  79.7691270
  84.3196930  23.8400210  80.5998150  81.2897880  24.9253670  77.8360310
  81.9769010  25.4722880  78.2167900  80.5030300  25.4694400  77.8709920
  73.4290280  20.5426490  73.3277390  74.2985130  20.8251290  73.6113310
  72.9380600  21.3562360  73.2126200  80.5925090  21.9299700  77.4485670
  81.0487870  22.7404950  77.6745860  80.2413300  21.6122840  78.2804160
  82.8957700  27.4406040  84.6777970  83.5399920  27.6465420  85.3551390
  83.2587140  26.6794440  84.2248820  76.4936870  12.2737350  77.9208190
  76.3651500  12.2655250  78.8693110  75.6698890  12.6120440  77.5699200
  84.1689780  25.4438390  83.3955420  84.8112010  24.7431550  83.5087590
  84.6939130  26.2236830  83.2152310  88.0145500  25.7287010  73.1194560
  87.7883080  25.0117450  73.7119200  87.6241700  25.4799450  72.2816310
  85.9427400  26.2433290  86.5991480  86.2783640  26.8299980  87.2769400
  85.0227740  26.1126000  86.8289270  73.7961530  29.7553870  73.8939020
  74.1559170  30.3543210  73.2396290  73.6553870  30.3013760  74.6674050
  73.4930800  14.0328470  87.3814890  72.7789320  14.2325390  87.9867500
  73.9125840  13.2568040  87.7529690  87.5961750  23.6458950  74.7808720
  87.3083450  24.1071640  75.5686600  88.3913920  23.1856720  75.0492940
  73.7803390  28.0208730  88.3681420  73.8894510  27.0803470  88.2276810
  73.1283950  28.2863480  87.7195150  81.7715980  26.2924620  89.7679540
  81.4512850  25.5733860  90.3125230  81.0974340  26.9679690  89.8415600
  79.8130150  27.1385070  74.7112690  79.8040250  27.8714760  74.0957200
  78.8928510  26.8916650  74.8039650  75.4136790  22.3599960  75.4559450
  74.8064740  23.0998860  75.4654750  75.8886140  22.4499320  74.6297650
  84.9869580  16.5250780  85.1316340  85.3550400  15.7045990  85.4595910
  84.1267780  16.5852670  85.5471990  88.3531610  15.4807720  75.9403900
  87.7244770  15.5853390  75.2262130  87.8583530  15.7004500  76.7297780
  82.7989750  27.2013310  73.3737880  82.9001730  26.9977300  72.4439860
  81.8991490  26.9471590  73.5785660  80.3215640  17.7593670  77.3561780
  79.6131790  18.2280010  77.7975390  80.6060120  17.1015680  77.9906970
  81.9471570  19.1790370  85.3554310  82.4456820  19.6536190  86.0206160
  82.0894520  18.2553890  85.5624340  84.3531070  14.4844330  78.7957570
  84.2298850  14.5030460  77.8467080  85.3015630  14.5323270  78.9155970
  81.4407860  29.7199630  78.0685550  81.6949360  29.6821020  77.1464920
  80.4920340  29.5932960  78.0613800  78.5250660  16.0678750  74.7312490
  79.3741190  16.5048900  74.6652680  78.1581930  16.3799010  75.5584550
  89.1538430  15.3958330  86.1982700  88.6512030  16.1363730  86.5376510
  89.9695090  15.7842330  85.8819490  87.4460440  20.6391510  79.6444060
  86.5050580  20.6541740  79.8191750  87.7604510  19.8527470  80.0904360
  77.4242080  22.3211110  73.2048020  78.1905350  22.2092470  73.7673450
  77.5016770  21.6249080  72.5524790  76.1188840  19.7536180  73.8880910
  76.1992430  18.8063690  73.9998310  77.0108590  20.0843060  73.9941570
  89.4486020  27.8100360  81.3198320  89.5733440  28.6331530  81.7922130
  90.3151580  27.5991090  80.9722470  76.9203550  29.9031570  80.9915450
  77.6566030  29.3547030  81.2624020  77.3044470  30.7687580  80.8521440
  73.8049030  25.9705140  76.8656960  72.8788810  26.2126280  76.8562370
  74.2705460  26.7979400  76.7441710  75.9261830  29.0877640  90.1801030
  76.7274560  29.4089690  90.5936430  75.4113650  28.7273220  90.9020940
  80.0305860  29.0761880  72.8141020  80.8234470  29.3650710  72.3622810
  79.5110210  28.6454050  72.1353500  84.7626460  25.1957510  90.1276440
  84.1564620  25.2189110  89.3872190  84.4580570  24.4640550  90.6643690
  86.1926830  28.9237800  88.7385850  87.1448580  28.8395820  88.6886090
  86.0455050  29.5879510  89.4119640  89.0836030  28.3032010  74.2377760
  88.7977540  27.8897150  73.4231940  88.8855580  29.2319720  74.1178280
  73.6459640  21.5751100  89.1237080  74.1498660  20.9958380  89.6953310
  72.9067060  21.8591330  89.6613450  80.5483260  24.2965290  72.6783370
  80.4433900  23.6817640  73.4044750  80.3807480  23.7731180  71.8946380
  80.6997580  22.9822090  88.6572600  79.9343250  23.5507090  88.5727270
  80.8813540  22.6898300  87.7640830  83.7885990  23.3585320  73.2825360
  83.2396090  23.8054620  73.9268100  84.4105250  22.8534570  73.8063030
  87.8420930  24.7127420  89.2147620  88.5830400  25.0503180  88.7115080
  87.0793610  24.8819480  88.6617390  75.6782720  19.7180690  90.0187150
  75.7188060  19.4194560  90.9272380  76.5328220  20.1188300  89.8594670
  79.4561110  22.3176240  75.1790660  79.8777530  22.1516110  76.0222050
  79.5811950  21.5076470  74.6845800  77.6188530  18.2972790  87.9861640
  77.0884990  17.8063740  87.3584980  78.2876600  18.7256990  87.4519570
  81.9688750  21.3413850  72.4267760  82.4894410  20.6262870  72.0608910
  82.6157150  21.9799720  72.7268270  86.5166590  22.7642250  87.7502830
  86.9307610  22.9187330  88.5993250  85.5817590  22.8897470  87.9128610
  86.9888760  20.1038410  89.7541980  87.5709530  19.3490730  89.6662460
  87.1650530  20.6345850  88.9773460  78.1060830  15.2635160  88.0658930
  78.0117700  14.6455910  87.3409800  77.5258220  15.9901450  87.8388840
  80.8722270  13.8208400  85.0986320  80.4239570  13.8432660  84.2531870
  80.2387470  13.4227420  85.6956620  81.2781820  22.7162730  85.7198760
  81.6969930  23.5595460  85.5475000  80.3590450  22.8534770  85.4905540
  83.6145720  20.4478910  87.1036600  83.7341930  19.8520050  87.8431440
  84.4739720  20.4848600  86.6837900  85.9533620  21.0016100  85.6799110
  85.4268840  21.5258720  85.0764250  86.2964960  21.6343490  86.3108840
  78.3520010  18.3909470  72.1248820  78.1509070  17.5276830  72.4862160
  78.1812060  18.3042830  71.1870420  79.1289240  29.0215740  86.8356490
  78.5910330  29.7461800  86.5165190  79.3823200  28.5446080  86.0453830
  80.3814490  16.9900260  88.3612420  80.9714180  16.6816110  89.0490240
  79.5634730  16.5180010  88.5172320  85.2007920  16.6066070  88.5945440
  84.5123440  15.9447610  88.5295430  85.9213940  16.1604340  89.0393900
  85.8308320  13.2017700  74.6535700  86.1110610  12.3585600  75.0095120
  85.0574050  13.4340810  75.1674450  77.1502810  15.4910090  72.1126700
  77.4528710  15.4977520  71.2045850  77.8897400  15.1407950  72.6094360
  81.9851450  30.2566950  87.0943140  81.9110150  31.1602090  87.4015510
  81.0830290  29.9378850  87.0665210  80.3687740  14.4344710  73.0982900
  80.0209740  13.7568700  72.5185350  80.5700510  13.9734220  73.9126290
  82.5336780  29.4225460  74.7169500  83.4287570  29.7610430  74.7388260
  82.5654410  28.7004870  74.0893780  76.1732940  24.7952510  72.9456500
  76.6107810  25.3382180  73.6014080  76.6580670  23.9699460  72.9552840
  73.3878740  27.5841540  80.3976760  73.7181750  26.7162600  80.1655400
  73.8169740  27.7900060  81.2281720  77.9840660  25.9150550  78.0578730
  77.6836200  25.7915520  78.9582640  77.8778150  25.0559140  77.6494460
  73.8768950  28.4512130  83.1358390  73.4399940  28.6312930  83.9682540
  74.4446630  29.2086750  82.9940110  89.5131130  27.9529130  87.4235700
  88.9133120  28.0121690  86.6799620  89.6425030  27.0134110  87.5532550
  90.7532580  25.6946950  72.7605410  89.9225540  25.7623600  73.2312640
  90.9304410  26.5851070  72.4572270  90.2089040  22.4394430  75.2639610
  90.9707950  23.0091080  75.3699300  90.2243410  21.8721630  76.0347920
  73.7093380  20.9632360  79.4947270  73.0542220  20.6944000  78.8506970
  74.5471330  20.8536840  79.0449250  91.2149010  23.2944530  80.1081540
  91.5857840  22.5111850  79.7017510  91.8550940  23.9833630  79.9298840
  88.1982770  24.6781110  85.5211860  87.3842610  25.1078270  85.7837650
  88.6056970  25.2899520  84.9080910  90.2608210  22.7328800  72.4212130
  90.5357050  23.6407680  72.2931350  90.0718950  22.6691330  73.3574120
  86.6583820  15.7573650  73.7165760  87.0768700  15.5704630  72.8762420
  86.3519880  14.9052700  74.0268690  90.1573550  20.6697790  77.4141560
  89.7817150  19.9025720  76.9822850  89.4276670  21.0520490  77.9016490
  74.7469310  21.3484930  84.0350610  75.1142350  21.2612330  84.9146630
  74.1780130  20.5851480  83.9357470  89.5473170  19.8169310  87.0481080
  89.3159260  19.5882060  86.1479030  89.8077720  20.7368860  87.0025970
  74.2985310  18.2594020  87.9409030  73.4041360  18.2260780  88.2802740
  74.8382860  18.4580810  88.7060280  87.9861240  15.0425740  89.8260780
  88.8631420  15.0509140  90.2094780  87.9982080  14.3056580  89.2153130
  72.9231460  18.1731290  75.4372600  72.0195540  18.4361490  75.2624260
  73.4072080  18.4442460  74.6572560  89.4324510  18.8955280  80.7148800
  89.9561990  18.4017930  80.0838970  90.0183930  19.0305640  81.4596370
  89.6114230  18.9795150  84.2368350  88.6616940  18.9458690  84.3513340
  89.7927240  19.8895260  84.0018120  75.4658670  17.2296830  73.3466980
  76.1750370  16.8080050  72.8614260  74.7498610  17.2972060  72.7150330
  75.1132830  13.2836160  72.3869630  75.8360960  13.8245100  72.7050850
  75.3857350  13.0099580  71.5111170  88.9224480  18.1528630  76.6541210
  89.4183600  17.9199500  77.4390090  88.7240550  17.3140470  76.2378850
  74.8025020  12.5342350  82.2892250  75.4501210  11.9839730  81.8487410
  75.2226860  12.7885500  83.1108060  90.3511640  16.7889580  79.1878890
  90.2410920  16.6345620  80.1261160  91.1119230  16.2610520  78.9454300
  88.6977360  12.7283710  85.6461890  89.3349580  13.3417850  86.0121080
  88.8452250  12.7644370  84.7011120  91.2401910  14.6197500  72.4285030
  92.1651220  14.4878680  72.2203320  91.2177700  14.6990320  73.3821480
  91.3140400  15.3908160  75.0541740  90.5191900  15.3253280  75.5834650
  91.5183680  16.3258800  75.0427090  88.2558820  29.4299710  79.0480130
  88.8517890  29.1084280  78.3714550  88.5136970  28.9571530  79.8393400
  74.5557020  12.6898020  85.0317570  74.2071840  13.1461840  85.7975750
  74.2244720  11.7955150  85.1140000  76.1621390  25.8617620  89.1970760
  76.1191020  25.4910530  90.0785220  76.2932400  26.7995190  89.3372580
  79.8627420  27.4177210  84.7980480  79.6218780  27.6851770  83.9111000
  80.8030060  27.5882940  84.8531340  82.0681840  13.8809900  88.5536990
  82.0070730  14.4731730  89.3032400  83.0082220  13.7735860  88.4087250
  84.7056400  13.5379960  88.1929280  85.3196810  13.8559250  87.5310360
  85.2505960  13.0528550  88.8125140  91.1231580  29.4371590  85.5991120
  90.6289860  29.8340460  84.8818250  90.5144870  28.8120800  85.9928400
  75.2277660  12.2174220  88.3068340  75.7760650  12.0362270  87.5434450
  75.2932970  11.4268330  88.8424650  76.0009420  28.8079870  86.3168540
  75.4069740  28.6764570  87.0558580  75.9933260  27.9718010  85.8510640
  85.4464440  12.1012100  84.5198570  84.5724280  12.4347210  84.3171500
  85.3375190  11.6285280  85.3450440  86.3536420  14.3082970  85.9040290
  86.0249780  13.4934730  85.5242020  87.3018720  14.2652780  85.7805980
  88.8071030  30.0795010  82.8777860  88.3474000  30.8310820  82.5035880
  88.1783490  29.3601480  82.8192660  75.6321650  26.1738250  85.2676580
  74.9055710  25.5543540  85.2002530  75.6930800  26.5678860  84.3974660
  79.2366750  28.3883250  82.0525990  79.7531770  27.7770610  81.5274250
  79.8864130  28.8912030  82.5437000  81.9762250  29.2791740  82.8794970
  82.2640060  29.0246040  82.0027980  82.4885470  28.7269100  83.4700540
  83.1939260  13.0181940  83.4591480  82.4111050  13.4927440  83.7388240
  82.9002190  12.1136770  83.3504660  87.7460330  13.7205040  81.5040570
  88.1868420  13.6650140  80.6562170  87.4767920  14.6363050  81.5750750
  89.6098900  13.3520280  79.5149390  89.5487300  12.4081500  79.3680410
  90.3890930  13.4600370  80.0602850  73.9151650  29.4912640  78.4773340
  73.7473690  28.8583320  79.1755230  73.0486160  29.6972040  78.1267530
  74.5379670  13.3229420  75.9805200  75.2959030  13.4358300  75.4069230
  74.0756840  14.1598620  75.9348630  81.0793480  15.4368690  78.9707510
  80.2667990  15.0625580  78.6303390  81.5835120  14.6813770  79.2728700
  85.5818460  12.1011140  80.2090580  86.1847830  12.6731350  80.6839100
  84.8411450  12.6650580  79.9864480  88.7253060  12.5032700  75.4830860
  88.9203690  13.4016150  75.7498290  87.9382930  12.2719780  75.9763810
  75.5214350  28.1845870  75.9223480  74.9961970  28.5653900  75.2185440
  75.4458930  28.8096640  76.6433190  76.9104820  13.8493470  74.5207170
  77.4397580  13.0623270  74.3915120  77.5433140  14.5284660  74.7542700
  79.1042660  13.5868610  77.5752560  78.4745400  12.8855920  77.7422690
  78.5647800  14.3472740  77.3585720  82.0434610  30.2007840  90.2463170
  82.9701920  29.9652110  90.2899130  82.0285040  31.0279840  89.7649200
  90.2779670  29.7433410  77.2437420  90.4531860  29.0571150  76.5998340
  89.5801240  30.2680460  76.8514090  79.2298220  12.8652590  90.0105050
  78.9482490  13.3686190  89.2465870  79.6117920  12.0674340  89.6447180
  78.1207320  30.1328250  74.7972730  78.8526140  29.8487530  74.2496620
  78.3800990  29.8941530  75.6872110  77.2822110  26.2492980  74.8019060
  76.6530990  26.7178080  75.3504890  77.3969940  25.4042200  75.2365250
  85.8313680  12.2806170  90.5885520  85.7179130  12.6000780  91.4837040
  86.6483420  12.6818680  90.2922800  88.6112170  29.4277700  90.0704210
  89.4037490  28.9326930  89.8630170  88.9045320  30.1067840  90.6779820
  84.7371830  20.2998640  60.9520260  84.6565880  19.3853250  60.6811970
  84.3236250  20.7965710  60.2459970  82.8689870  22.0777660  62.8329530
  82.0931970  21.5978100  63.1228100  83.5202800  21.3983310  62.6585690
  76.8855700  22.3897470  63.7105290  76.0540580  22.1346180  64.1101800
  77.4936680  22.4608240  64.4463210  86.8897300  26.4837850  61.6128660
  86.4278830  25.7125090  61.9415830  87.7022850  26.5103920  62.1181110
  76.8656960  26.4237560  63.9063310  77.1685000  25.5335300  63.7273530
  77.6100550  26.9807780  63.6785560  75.2947650  17.3499360  57.4947680
  74.4064350  17.6915330  57.3927560  75.5788840  17.1499680  56.6028510
  73.2580660  19.9505010  63.3787380  73.8296770  19.1827210  63.3791020
  73.2582200  20.2493770  62.4693990  83.1160610  28.7695860  61.2332650
  82.4972050  29.2253360  60.6627090  83.9712390  28.9247320  60.8322350
  82.3098860  24.7534850  62.8399690  82.2407140  23.8124790  62.6788820
  83.0718720  24.8436260  63.4122260  74.5005530  15.3589370  65.1656310
  74.3208370  14.4615120  65.4459070  74.0985610  15.9061240  65.8403260
  83.3404030  17.5605230  63.0668620  83.7168850  16.6877110  62.9542290
  83.2423540  17.8963930  62.1759060  77.4709040  15.9330860  58.5286060
  77.5775790  16.8334590  58.8354820  76.5601400  15.8848830  58.2380710
  87.1228150  15.0555670  59.9996960  87.9437770  14.5652240  60.0422440
  87.1562230  15.6453330  60.7528800  75.1192200  17.8549870  63.7738650
  75.8002310  18.1188240  64.3926050  74.8040250  17.0150740  64.1076660
  79.3116770  18.9017230  62.8611240  79.8194990  19.3998200  63.5016260
  79.8430010  18.1252430  62.6850600  91.4127700  17.0722420  66.5640590
  90.7079870  17.4604130  66.0455700  91.6785620  17.7672710  67.1661520
  77.5952870  13.5415790  67.1274660  77.5971310  14.0588180  66.3220560
  76.7657180  13.0645970  67.1044590  83.9823960  23.6535100  58.6264560
  83.3641230  24.1184550  58.0627280  84.4947210  24.3462580  59.0434070
  78.8455720  23.1810970  65.3048160  78.5125100  23.8079890  65.9469230
  79.0222400  23.7072850  64.5249830  87.3589630  16.9956050  62.7724500
  86.6545200  17.2840940  63.3527610  87.7201790  17.8056160  62.4124060
  77.2768200  15.2525750  65.1345110  77.6185010  16.0967800  64.8398980
  76.3384010  15.4009490  65.2510450  78.0574820  25.1491770  67.1197340
  78.6748820  25.8242850  66.8381790  77.1967940  25.5579750  67.0284840
  73.3507160  24.3391630  56.0004190  72.9735140  24.8278730  55.2689090
  73.6080230  25.0116910  56.6310720  88.9752410  26.6131180  65.0351980
  88.2915930  27.2830290  65.0268650  89.5146700  26.8111830  64.2696840
  90.4276550  16.4410840  63.1633710  89.4801460  16.4749820  63.2949140
  90.7526540  17.2549790  63.5483070  80.9596090  12.7408020  61.4589700
  81.2671070  12.1854910  60.7425200  80.0296790  12.8752480  61.2762690
  86.5111150  28.4575310  63.7497160  86.5238310  28.0537600  62.8819420
  85.9586370  29.2322600  63.6458590  87.8056570  25.1791530  58.8387330
  87.6952900  24.2365860  58.9636750  87.8024820  25.5407170  59.7250090
  85.9096590  23.3605150  65.0779770  86.3265380  23.1465260  64.2433230
  86.6336410  23.6177940  65.6488390  83.3476850  20.8056850  58.1949820
  82.4206130  20.7394230  58.4238290  83.5001670  21.7436980  58.0805060
  83.3345930  17.0773850  55.1916980  82.3949600  17.2387810  55.2769440
  83.6529190  17.7959530  54.6452970  89.8558690  21.7592370  65.1696010
  89.0277320  21.8285460  64.6946140  90.4509170  22.3446680  64.7011840
  87.3774140  22.3677150  58.6985070  86.7586560  22.0296700  58.0511370
  87.3598590  21.7236910  59.4064260  86.8200700  18.5461690  66.1150880
  86.4071880  19.3715400  66.3690870  86.0876650  17.9606730  65.9227240
  78.9533490  21.3321590  60.9769550  78.5490490  20.6198840  60.4815450
  79.0396610  20.9874830  61.8657590  79.4215190  25.0189150  63.1408760
  79.1243480  24.4134620  62.4616540  80.3715010  25.0566460  63.0298120
  77.6662110  18.1064800  64.7568590  78.2176700  18.2160140  63.9821840
  78.1805620  18.4802400  65.4723820  87.5100800  28.5921020  66.8031860
  87.0331360  29.3993210  66.6104470  86.8262590  27.9399350  66.9558070
  78.5133620  24.7570840  69.7916560  77.6162150  24.9810810  70.0389960
  78.5386490  24.8805780  68.8427960  85.5538840  21.6063960  55.7057820
  85.9932120  20.7686390  55.5595640  86.2667260  22.2393360  55.7921960
  77.3404840  21.6284160  68.3673930  77.2012610  22.5006960  68.7361330
  76.4586200  21.2856970  68.2221870  83.6634220  26.5460030  59.6739060
  84.1030130  27.2884360  59.2594450  83.6021110  26.7886600  60.5978020
  79.1385190  27.5705860  70.5759080  79.1100620  27.9748810  69.7087510
  78.9750160  26.6416220  70.4130680  89.1355980  12.8606770  54.0198860
  88.8228640  12.9533600  54.9197930  89.8968450  13.4387800  53.9696290
  75.6538120  20.2266570  58.4776200  75.5335720  20.9528660  57.8657470
  75.3439010  19.4569480  58.0004110  91.0900010  28.3532960  71.8723250
  91.5659730  28.8315850  72.5512330  91.7107170  28.2850450  71.1468750
  73.2923490  23.3981710  64.2844840  73.3703910  23.5330480  63.3400560
  73.9065170  22.6897600  64.4772960  74.5371120  25.0981900  60.6951020
  74.1299200  25.2396490  59.8404620  75.4284130  24.8142060  60.4922230
  90.4933260  25.5445810  69.0323260  90.6196320  25.3057690  68.1140440
  90.5354640  24.7130350  69.5045340  84.3550000  29.2473810  67.6018070
  84.8694670  29.1581820  68.4040500  83.5119080  29.5933510  67.8945980
  86.3304400  29.5329150  57.0302070  86.1705540  29.2432090  57.9283900
  86.1651110  28.7569280  56.4947300  78.8092780  29.3127680  58.8073690
  78.6335260  28.3963220  58.5941490  77.9548520  29.6714970  59.0471490
  86.0330530  27.0416710  55.5900070  85.3395690  27.0394000  54.9302350
  86.7753390  26.6176030  55.1594240  85.5980460  28.6679420  59.6648560
  86.0537410  27.8868800  59.9787180  85.9372980  29.3786240  60.2089740
  90.3457270  17.5978270  69.9973000  89.7301540  18.1057940  69.4688460
  90.0253690  16.6976600  69.9398940  73.3483010  24.4395880  66.8239300
  73.5114050  23.9701240  66.0058670  73.8135460  23.9319440  67.4888140
  78.1201780  13.5701640  61.8599870  77.6769930  14.3511180  61.5284390
  78.6786770  13.8931530  62.5670810  82.4071590  16.4370160  67.4635190
  81.9450960  16.6453180  68.2755130  82.0049700  15.6229510  67.1605860
  87.4076100  17.6579110  68.5931850  86.5569690  17.3584860  68.9140920
  87.2477890  17.9021120  67.6815670  84.5025810  19.1580860  70.6930640
  84.8279220  18.3244610  70.3532870  85.2906140  19.6809380  70.8408970
  81.2360600  13.1912340  56.7405700  80.6114780  13.1872210  57.4659010
  81.1490720  12.3243300  56.3441670  80.1577680  14.1148970  63.7189470
  80.4550010  15.0211800  63.6381490  80.7063240  13.6267750  63.1049040
  77.9116000  18.6935210  59.5881120  77.6856920  18.4772380  60.4927740
  77.1308530  19.1263670  59.2427090  85.1413760  18.6998580  58.1871770
  84.5422650  19.4234380  58.0035390  85.6893370  18.6375360  57.4048220
  80.3515210  19.5920790  70.2541390  80.2558810  18.6515520  70.1041790
  81.1947190  19.8135860  69.8589460  83.7478630  17.3362120  60.2175050
  84.1408200  17.6534320  59.4043740  84.1095480  16.4574000  60.3319570
  75.4825750  16.0034460  68.4075170  75.0889140  16.8509670  68.6147950
  74.7944150  15.3660830  68.5983810  82.0570800  16.0869430  71.4771910
  81.3669120  15.8941630  72.1118000  82.8003100  16.3704070  72.0096210
  72.7842800  13.9262920  62.4405250  72.4955850  14.4965780  63.1530230
  73.5288560  13.4467370  62.8036480  72.9713030  17.8683040  53.6507970
  72.8887700  18.8113800  53.7922960  72.6196090  17.7257950  52.7720320
  84.3333770  19.9267870  64.3125830  83.6014890  20.4354680  64.6615930
  83.9358110  19.1097850  64.0114610  80.7711160  16.6022070  62.7178320
  80.7747220  16.1612020  61.8682860  81.6662280  16.9239400  62.8250140
  76.6213540  16.4848560  61.6772530  76.2813590  16.9623790  62.4339580
  75.8590860  16.0313680  61.3173630  80.8331310  17.6034150  55.7085080
  80.9544130  17.5620630  56.6570900  80.4479820  18.4658300  55.5531810
  84.7959680  15.3801550  63.7248770  84.8132420  15.8310200  64.5690620
  84.5475260  14.4807190  63.9382210  79.8452810  19.9135290  55.1068380
  79.2769710  19.4653540  54.4804290  80.5541810  20.2728070  54.5733530
  88.2230430  12.7933730  69.5635150  88.5476200  12.0623390  70.0893130
  88.2586940  12.4747370  68.6616140  74.9221990  23.8147310  68.9835110
  74.5376780  23.1740980  69.5818070  75.2334180  24.5183430  69.5529840
  81.0719130  20.6623850  64.4643730  81.4389260  20.1882420  65.2105070
  80.8824190  21.5365420  64.8052070  73.9359620  15.4067540  60.5937200
  73.6506540  15.0423210  61.4315820  73.8738480  14.6748000  59.9800340
  78.8618500  19.7032490  66.7827940  78.5575570  20.5824470  67.0078300
  79.8164960  19.7632280  66.8185380  77.3900290  23.9093480  57.3794790
  76.6162550  23.3691100  57.2193510  78.1194920  23.3900090  57.0412550
  88.1488270  22.9058840  63.1721180  88.8687390  23.4014130  62.7817290
  87.9470090  22.2276730  62.5275050  83.6098210  14.2996800  57.3150570
  82.7962820  13.8009970  57.2395880  83.4160160  15.1395050  56.8986920
  83.5307070  22.9767900  69.0590180  83.4644380  22.0563570  68.8047770
  82.9012210  23.0743340  69.7734820  86.3246600  18.6716450  55.6112730
  87.2126220  18.9833680  55.4364070  86.2951690  17.7988700  55.2193310
  77.4337690  23.5773860  61.0173600  77.9516360  22.7742120  60.9630490
  76.9821710  23.5153000  61.8590430  82.3207190  24.8440140  56.2900900
  82.6622890  25.5882370  55.7944220  81.4919900  25.1571260  56.6525730
  74.9182230  20.5435230  67.9299300  74.5597170  21.2089080  68.5172640
  74.6236790  19.7118780  68.3011920  78.1195350  21.0019470  70.8138850
  77.8195490  21.1476650  69.9166670  78.8906590  20.4424760  70.7212240
  83.4623800  25.7988470  68.8093980  83.4768340  24.8669430  68.5912890
  82.7548900  25.8848230  69.4483750  88.5960870  19.9828290  55.0792590
  88.5124590  20.4142510  54.2289030  89.3155060  20.4426640  55.5119410
  89.6735010  22.4395810  68.1562560  88.9483200  23.0324590  67.9591950
  90.2010470  22.4319350  67.3575930  89.6248120  26.8370550  57.8074720
  88.9824280  26.1826170  58.0818440  89.2378780  27.2425640  57.0315390
  85.2034600  24.1655980  61.6546410  85.5558420  23.5684110  60.9947780
  84.3196930  23.8400210  61.8254660  81.2897880  24.9253670  59.0616820
  81.9769010  25.4722880  59.4424410  80.5030300  25.4694400  59.0966430
  73.4290280  20.5426490  54.5533900  74.2985130  20.8251290  54.8369820
  72.9380600  21.3562360  54.4382710  80.5925090  21.9299700  58.6742180
  81.0487870  22.7404950  58.9002370  80.2413300  21.6122840  59.5060670
  82.8957700  27.4406040  65.9034480  83.5399920  27.6465420  66.5807900
  83.2587140  26.6794440  65.4505330  76.4936870  12.2737350  59.1464700
  76.3651500  12.2655250  60.0949620  75.6698890  12.6120440  58.7955710
  84.1689780  25.4438390  64.6211930  84.8112010  24.7431550  64.7344100
  84.6939130  26.2236830  64.4408820  88.0145500  25.7287010  54.3451070
  87.7883080  25.0117450  54.9375710  87.6241700  25.4799450  53.5072820
  85.9427400  26.2433290  67.8247990  86.2783640  26.8299980  68.5025910
  85.0227740  26.1126000  68.0545780  73.7961530  29.7553870  55.1195530
  74.1559170  30.3543210  54.4652800  73.6553870  30.3013760  55.8930560
  73.4930800  14.0328470  68.6071400  72.7789320  14.2325390  69.2124010
  73.9125840  13.2568040  68.9786200  87.5961750  23.6458950  56.0065230
  87.3083450  24.1071640  56.7943110  88.3913920  23.1856720  56.2749450
  73.7803390  28.0208730  69.5937930  73.8894510  27.0803470  69.4533320
  73.1283950  28.2863480  68.9451660  81.7715980  26.2924620  70.9936050
  81.4512850  25.5733860  71.5381740  81.0974340  26.9679690  71.0672110
  79.8130150  27.1385070  55.9369200  79.8040250  27.8714760  55.3213710
  78.8928510  26.8916650  56.0296160  75.4136790  22.3599960  56.6815960
  74.8064740  23.0998860  56.6911260  75.8886140  22.4499320  55.8554160
  84.9869580  16.5250780  66.3572850  85.3550400  15.7045990  66.6852420
  84.1267780  16.5852670  66.7728500  88.3531610  15.4807720  57.1660410
  87.7244770  15.5853390  56.4518640  87.8583530  15.7004500  57.9554290
  82.7989750  27.2013310  54.5994390  82.9001730  26.9977300  53.6696370
  81.8991490  26.9471590  54.8042170  80.3215640  17.7593670  58.5818290
  79.6131790  18.2280010  59.0231900  80.6060120  17.1015680  59.2163480
  81.9471570  19.1790370  66.5810820  82.4456820  19.6536190  67.2462670
  82.0894520  18.2553890  66.7880850  84.3531070  14.4844330  60.0214080
  84.2298850  14.5030460  59.0723590  85.3015630  14.5323270  60.1412480
  81.4407860  29.7199630  59.2942060  81.6949360  29.6821020  58.3721430
  80.4920340  29.5932960  59.2870310  78.5250660  16.0678750  55.9569000
  79.3741190  16.5048900  55.8909190  78.1581930  16.3799010  56.7841060
  89.1538430  15.3958330  67.4239210  88.6512030  16.1363730  67.7633020
  89.9695090  15.7842330  67.1076000  87.4460440  20.6391510  60.8700570
  86.5050580  20.6541740  61.0448260  87.7604510  19.8527470  61.3160870
  77.4242080  22.3211110  54.4304530  78.1905350  22.2092470  54.9929960
  77.5016770  21.6249080  53.7781300  76.1188840  19.7536180  55.1137420
  76.1992430  18.8063690  55.2254820  77.0108590  20.0843060  55.2198080
  89.4486020  27.8100360  62.5454830  89.5733440  28.6331530  63.0178640
  90.3151580  27.5991090  62.1978980  76.9203550  29.9031570  62.2171960
  77.6566030  29.3547030  62.4880530  77.3044470  30.7687580  62.0777950
  73.8049030  25.9705140  58.0913470  72.8788810  26.2126280  58.0818880
  74.2705460  26.7979400  57.9698220  75.9261830  29.0877640  71.4057540
  76.7274560  29.4089690  71.8192940  75.4113650  28.7273220  72.1277450
  80.0305860  29.0761880  54.0397530  80.8234470  29.3650710  53.5879320
  79.5110210  28.6454050  53.3610010  84.7626460  25.1957510  71.3532950
  84.1564620  25.2189110  70.6128700  84.4580570  24.4640550  71.8900200
  86.1926830  28.9237800  69.9642360  87.1448580  28.8395820  69.9142600
  86.0455050  29.5879510  70.6376150  89.0836030  28.3032010  55.4634270
  88.7977540  27.8897150  54.6488450  88.8855580  29.2319720  55.3434790
  73.6459640  21.5751100  70.3493590  74.1498660  20.9958380  70.9209820
  72.9067060  21.8591330  70.8869960  80.5483260  24.2965290  53.9039880
  80.4433900  23.6817640  54.6301260  80.3807480  23.7731180  53.1202890
  80.6997580  22.9822090  69.8829110  79.9343250  23.5507090  69.7983780
  80.8813540  22.6898300  68.9897340  83.7885990  23.3585320  54.5081870
  83.2396090  23.8054620  55.1524610  84.4105250  22.8534570  55.0319540
  87.8420930  24.7127420  70.4404130  88.5830400  25.0503180  69.9371590
  87.0793610  24.8819480  69.8873900  75.6782720  19.7180690  71.2443660
  75.7188060  19.4194560  72.1528890  76.5328220  20.1188300  71.0851180
  79.4561110  22.3176240  56.4047170  79.8777530  22.1516110  57.2478560
  79.5811950  21.5076470  55.9102310  77.6188530  18.2972790  69.2118150
  77.0884990  17.8063740  68.5841490  78.2876600  18.7256990  68.6776080
  81.9688750  21.3413850  53.6524270  82.4894410  20.6262870  53.2865420
  82.6157150  21.9799720  53.9524780  86.5166590  22.7642250  68.9759340
  86.9307610  22.9187330  69.8249760  85.5817590  22.8897470  69.1385120
  86.9888760  20.1038410  70.9798490  87.5709530  19.3490730  70.8918970
  87.1650530  20.6345850  70.2029970  78.1060830  15.2635160  69.2915440
  78.0117700  14.6455910  68.5666310  77.5258220  15.9901450  69.0645350
  80.8722270  13.8208400  66.3242830  80.4239570  13.8432660  65.4788380
  80.2387470  13.4227420  66.9213130  81.2781820  22.7162730  66.9455270
  81.6969930  23.5595460  66.7731510  80.3590450  22.8534770  66.7162050
  83.6145720  20.4478910  68.3293110  83.7341930  19.8520050  69.0687950
  84.4739720  20.4848600  67.9094410  85.9533620  21.0016100  66.9055620
  85.4268840  21.5258720  66.3020760  86.2964960  21.6343490  67.5365350
  78.3520010  18.3909470  53.3505330  78.1509070  17.5276830  53.7118670
  78.1812060  18.3042830  52.4126930  79.1289240  29.0215740  68.0613000
  78.5910330  29.7461800  67.7421700  79.3823200  28.5446080  67.2710340
  80.3814490  16.9900260  69.5868930  80.9714180  16.6816110  70.2746750
  79.5634730  16.5180010  69.7428830  85.2007920  16.6066070  69.8201950
  84.5123440  15.9447610  69.7551940  85.9213940  16.1604340  70.2650410
  85.8308320  13.2017700  55.8792210  86.1110610  12.3585600  56.2351630
  85.0574050  13.4340810  56.3930960  77.1502810  15.4910090  53.3383210
  77.4528710  15.4977520  52.4302360  77.8897400  15.1407950  53.8350870
  81.9851450  30.2566950  68.3199650  81.9110150  31.1602090  68.6272020
  81.0830290  29.9378850  68.2921720  80.3687740  14.4344710  54.3239410
  80.0209740  13.7568700  53.7441860  80.5700510  13.9734220  55.1382800
  82.5336780  29.4225460  55.9426010  83.4287570  29.7610430  55.9644770
  82.5654410  28.7004870  55.3150290  76.1732940  24.7952510  54.1713010
  76.6107810  25.3382180  54.8270590  76.6580670  23.9699460  54.1809350
  73.3878740  27.5841540  61.6233270  73.7181750  26.7162600  61.3911910
  73.8169740  27.7900060  62.4538230  77.9840660  25.9150550  59.2835240
  77.6836200  25.7915520  60.1839150  77.8778150  25.0559140  58.8750970
  73.8768950  28.4512130  64.3614900  73.4399940  28.6312930  65.1939050
  74.4446630  29.2086750  64.2196620  89.5131130  27.9529130  68.6492210
  88.9133120  28.0121690  67.9056130  89.6425030  27.0134110  68.7789060
  90.7532580  25.6946950  53.9861920  89.9225540  25.7623600  54.4569150
  90.9304410  26.5851070  53.6828780  90.2089040  22.4394430  56.4896120
  90.9707950  23.0091080  56.5955810  90.2243410  21.8721630  57.2604430
  73.7093380  20.9632360  60.7203780  73.0542220  20.6944000  60.0763480
  74.5471330  20.8536840  60.2705760  91.2149010  23.2944530  61.3338050
  91.5857840  22.5111850  60.9274020  91.8550940  23.9833630  61.1555350
  88.1982770  24.6781110  66.7468370  87.3842610  25.1078270  67.0094160
  88.6056970  25.2899520  66.1337420  90.2608210  22.7328800  53.6468640
  90.5357050  23.6407680  53.5187860  90.0718950  22.6691330  54.5830630
  86.6583820  15.7573650  54.9422270  87.0768700  15.5704630  54.1018930
  86.3519880  14.9052700  55.2525200  90.1573550  20.6697790  58.6398070
  89.7817150  19.9025720  58.2079360  89.4276670  21.0520490  59.1273000
  74.7469310  21.3484930  65.2607120  75.1142350  21.2612330  66.1403140
  74.1780130  20.5851480  65.1613980  89.5473170  19.8169310  68.2737590
  89.3159260  19.5882060  67.3735540  89.8077720  20.7368860  68.2282480
  74.2985310  18.2594020  69.1665540  73.4041360  18.2260780  69.5059250
  74.8382860  18.4580810  69.9316790  87.9861240  15.0425740  71.0517290
  88.8631420  15.0509140  71.4351290  87.9982080  14.3056580  70.4409640
  72.9231460  18.1731290  56.6629110  72.0195540  18.4361490  56.4880770
  73.4072080  18.4442460  55.8829070  89.4324510  18.8955280  61.9405310
  89.9561990  18.4017930  61.3095480  90.0183930  19.0305640  62.6852880
  89.6114230  18.9795150  65.4624860  88.6616940  18.9458690  65.5769850
  89.7927240  19.8895260  65.2274630  75.4658670  17.2296830  54.5723490
  76.1750370  16.8080050  54.0870770  74.7498610  17.2972060  53.9406840
  75.1132830  13.2836160  53.6126140  75.8360960  13.8245100  53.9307360
  75.3857350  13.0099580  52.7367680  88.9224480  18.1528630  57.8797720
  89.4183600  17.9199500  58.6646600  88.7240550  17.3140470  57.4635360
  74.8025020  12.5342350  63.5148760  75.4501210  11.9839730  63.0743920
  75.2226860  12.7885500  64.3364570  90.3511640  16.7889580  60.4135400
  90.2410920  16.6345620  61.3517670  91.1119230  16.2610520  60.1710810
  88.6977360  12.7283710  66.8718400  89.3349580  13.3417850  67.2377590
  88.8452250  12.7644370  65.9267630  91.2401910  14.6197500  53.6541540
  92.1651220  14.4878680  53.4459830  91.2177700  14.6990320  54.6077990
  91.3140400  15.3908160  56.2798250  90.5191900  15.3253280  56.8091160
  91.5183680  16.3258800  56.2683600  88.2558820  29.4299710  60.2736640
  88.8517890  29.1084280  59.5971060  88.5136970  28.9571530  61.0649910
  74.5557020  12.6898020  66.2574080  74.2071840  13.1461840  67.0232260
  74.2244720  11.7955150  66.3396510  76.1621390  25.8617620  70.4227270
  76.1191020  25.4910530  71.3041730  76.2932400  26.7995190  70.5629090
  79.8627420  27.4177210  66.0236990  79.6218780  27.6851770  65.1367510
  80.8030060  27.5882940  66.0787850  82.0681840  13.8809900  69.7793500
  82.0070730  14.4731730  70.5288910  83.0082220  13.7735860  69.6343760
  84.7056400  13.5379960  69.4185790  85.3196810  13.8559250  68.7566870
  85.2505960  13.0528550  70.0381650  91.1231580  29.4371590  66.8247630
  90.6289860  29.8340460  66.1074760  90.5144870  28.8120800  67.2184910
  75.2277660  12.2174220  69.5324850  75.7760650  12.0362270  68.7690960
  75.2932970  11.4268330  70.0681160  76.0009420  28.8079870  67.5425050
  75.4069740  28.6764570  68.2815090  75.9933260  27.9718010  67.0767150
  85.4464440  12.1012100  65.7455080  84.5724280  12.4347210  65.5428010
  85.3375190  11.6285280  66.5706950  86.3536420  14.3082970  67.1296800
  86.0249780  13.4934730  66.7498530  87.3018720  14.2652780  67.0062490
  88.8071030  30.0795010  64.1034370  88.3474000  30.8310820  63.7292390
  88.1783490  29.3601480  64.0449170  75.6321650  26.1738250  66.4933090
  74.9055710  25.5543540  66.4259040  75.6930800  26.5678860  65.6231170
  79.2366750  28.3883250  63.2782500  79.7531770  27.7770610  62.7530760
  79.8864130  28.8912030  63.7693510  81.9762250  29.2791740  64.1051480
  82.2640060  29.0246040  63.2284490  82.4885470  28.7269100  64.6957050
  83.1939260  13.0181940  64.6847990  82.4111050  13.4927440  64.9644750
  82.9002190  12.1136770  64.5761170  87.7460330  13.7205040  62.7297080
  88.1868420  13.6650140  61.8818680  87.4767920  14.6363050  62.8007260
  89.6098900  13.3520280  60.7405900  89.5487300  12.4081500  60.5936920
  90.3890930  13.4600370  61.2859360  73.9151650  29.4912640  59.7029850
  73.7473690  28.8583320  60.4011740  73.0486160  29.6972040  59.3524040
  74.5379670  13.3229420  57.2061710  75.2959030  13.4358300  56.6325740
  74.0756840  14.1598620  57.1605140  81.0793480  15.4368690  60.1964020
  80.2667990  15.0625580  59.8559900  81.5835120  14.6813770  60.4985210
  85.5818460  12.1011140  61.4347090  86.1847830  12.6731350  61.9095610
  84.8411450  12.6650580  61.2120990  88.7253060  12.5032700  56.7087370
  88.9203690  13.4016150  56.9754800  87.9382930  12.2719780  57.2020320
  75.5214350  28.1845870  57.1479990  74.9961970  28.5653900  56.4441950
  75.4458930  28.8096640  57.8689700  76.9104820  13.8493470  55.7463680
  77.4397580  13.0623270  55.6171630  77.5433140  14.5284660  55.9799210
  79.1042660  13.5868610  58.8009070  78.4745400  12.8855920  58.9679200
  78.5647800  14.3472740  58.5842230  82.0434610  30.2007840  71.4719680
  82.9701920  29.9652110  71.5155640  82.0285040  31.0279840  70.9905710
  90.2779670  29.7433410  58.4693930  90.4531860  29.0571150  57.8254850
  89.5801240  30.2680460  58.0770600  79.2298220  12.8652590  71.2361560
  78.9482490  13.3686190  70.4722380  79.6117920  12.0674340  70.8703690
  78.1207320  30.1328250  56.0229240  78.8526140  29.8487530  55.4753130
  78.3800990  29.8941530  56.9128620  77.2822110  26.2492980  56.0275570
  76.6530990  26.7178080  56.5761400  77.3969940  25.4042200  56.4621760
  85.8313680  12.2806170  71.8142030  85.7179130  12.6000780  72.7093550
  86.6483420  12.6818680  71.5179310  88.6112170  29.4277700  71.2960720
  89.4037490  28.9326930  71.0886680  88.9045320  30.1067840  71.9036330
  84.7371830  20.2998640  42.1776770  84.6565880  19.3853250  41.9068480
  84.3236250  20.7965710  41.4716480  82.8689870  22.0777660  44.0586040
  82.0931970  21.5978100  44.3484610  83.5202800  21.3983310  43.8842200
  76.8855700  22.3897470  44.9361800  76.0540580  22.1346180  45.3358310
  77.4936680  22.4608240  45.6719720  86.8897300  26.4837850  42.8385170
  86.4278830  25.7125090  43.1672340  87.7022850  26.5103920  43.3437620
  76.8656960  26.4237560  45.1319820  77.1685000  25.5335300  44.9530040
  77.6100550  26.9807780  44.9042070  75.2947650  17.3499360  38.7204190
  74.4064350  17.6915330  38.6184070  75.5788840  17.1499680  37.8285020
  73.2580660  19.9505010  44.6043890  73.8296770  19.1827210  44.6047530
  73.2582200  20.2493770  43.6950500  83.1160610  28.7695860  42.4589160
  82.4972050  29.2253360  41.8883600  83.9712390  28.9247320  42.0578860
  82.3098860  24.7534850  44.0656200  82.2407140  23.8124790  43.9045330
  83.0718720  24.8436260  44.6378770  74.5005530  15.3589370  46.3912820
  74.3208370  14.4615120  46.6715580  74.0985610  15.9061240  47.0659770
  83.3404030  17.5605230  44.2925130  83.7168850  16.6877110  44.1798800
  83.2423540  17.8963930  43.4015570  77.4709040  15.9330860  39.7542570
  77.5775790  16.8334590  40.0611330  76.5601400  15.8848830  39.4637220
  87.1228150  15.0555670  41.2253470  87.9437770  14.5652240  41.2678950
  87.1562230  15.6453330  41.9785310  75.1192200  17.8549870  44.9995160
  75.8002310  18.1188240  45.6182560  74.8040250  17.0150740  45.3333170
  79.3116770  18.9017230  44.0867750  79.8194990  19.3998200  44.7272770
  79.8430010  18.1252430  43.9107110  91.4127700  17.0722420  47.7897100
  90.7079870  17.4604130  47.2712210  91.6785620  17.7672710  48.3918030
  77.5952870  13.5415790  48.3531170  77.5971310  14.0588180  47.5477070
  76.7657180  13.0645970  48.3301100  83.9823960  23.6535100  39.8521070
  83.3641230  24.1184550  39.2883790  84.4947210  24.3462580  40.2690580
  78.8455720  23.1810970  46.5304670  78.5125100  23.8079890  47.1725740
  79.0222400  23.7072850  45.7506340  87.3589630  16.9956050  43.9981010
  86.6545200  17.2840940  44.5784120  87.7201790  17.8056160  43.6380570
  77.2768200  15.2525750  46.3601620  77.6185010  16.0967800  46.0655490
  76.3384010  15.4009490  46.4766960  78.0574820  25.1491770  48.3453850
  78.6748820  25.8242850  48.0638300  77.1967940  25.5579750  48.2541350
  73.3507160  24.3391630  37.2260700  72.9735140  24.8278730  36.4945600
  73.6080230  25.0116910  37.8567230  88.9752410  26.6131180  46.2608490
  88.2915930  27.2830290  46.2525160  89.5146700  26.8111830  45.4953350
  90.4276550  16.4410840  44.3890220  89.4801460  16.4749820  44.5205650
  90.7526540  17.2549790  44.7739580  80.9596090  12.7408020  42.6846210
  81.2671070  12.1854910  41.9681710  80.0296790  12.8752480  42.5019200
  86.5111150  28.4575310  44.9753670  86.5238310  28.0537600  44.1075930
  85.9586370  29.2322600  44.8715100  87.8056570  25.1791530  40.0643840
  87.6952900  24.2365860  40.1893260  87.8024820  25.5407170  40.9506600
  85.9096590  23.3605150  46.3036280  86.3265380  23.1465260  45.4689740
  86.6336410  23.6177940  46.8744900  83.3476850  20.8056850  39.4206330
  82.4206130  20.7394230  39.6494800  83.5001670  21.7436980  39.3061570
  83.3345930  17.0773850  36.4173490  82.3949600  17.2387810  36.5025950
  83.6529190  17.7959530  35.8709480  89.8558690  21.7592370  46.3952520
  89.0277320  21.8285460  45.9202650  90.4509170  22.3446680  45.9268350
  87.3774140  22.3677150  39.9241580  86.7586560  22.0296700  39.2767880
  87.3598590  21.7236910  40.6320770  86.8200700  18.5461690  47.3407390
  86.4071880  19.3715400  47.5947380  86.0876650  17.9606730  47.1483750
  78.9533490  21.3321590  42.2026060  78.5490490  20.6198840  41.7071960
  79.0396610  20.9874830  43.0914100  79.4215190  25.0189150  44.3665270
  79.1243480  24.4134620  43.6873050  80.3715010  25.0566460  44.2554630
  77.6662110  18.1064800  45.9825100  78.2176700  18.2160140  45.2078350
  78.1805620  18.4802400  46.6980330  87.5100800  28.5921020  48.0288370
  87.0331360  29.3993210  47.8360980  86.8262590  27.9399350  48.1814580
  78.5133620  24.7570840  51.0173070  77.6162150  24.9810810  51.2646470
  78.5386490  24.8805780  50.0684470  85.5538840  21.6063960  36.9314330
  85.9932120  20.7686390  36.7852150  86.2667260  22.2393360  37.0178470
  77.3404840  21.6284160  49.5930440  77.2012610  22.5006960  49.9617840
  76.4586200  21.2856970  49.4478380  83.6634220  26.5460030  40.8995570
  84.1030130  27.2884360  40.4850960  83.6021110  26.7886600  41.8234530
  79.1385190  27.5705860  51.8015590  79.1100620  27.9748810  50.9344020
  78.9750160  26.6416220  51.6387190  89.1355980  12.8606770  35.2455370
  88.8228640  12.9533600  36.1454440  89.8968450  13.4387800  35.1952800
  75.6538120  20.2266570  39.7032710  75.5335720  20.9528660  39.0913980
  75.3439010  19.4569480  39.2260620  91.0900010  28.3532960  53.0979760
  91.5659730  28.8315850  53.7768840  91.7107170  28.2850450  52.3725260
  73.2923490  23.3981710  45.5101350  73.3703910  23.5330480  44.5657070
  73.9065170  22.6897600  45.7029470  74.5371120  25.0981900  41.9207530
  74.1299200  25.2396490  41.0661130  75.4284130  24.8142060  41.7178740
  90.4933260  25.5445810  50.2579770  90.6196320  25.3057690  49.3396950
  90.5354640  24.7130350  50.7301850  84.3550000  29.2473810  48.8274580
  84.8694670  29.1581820  49.6297010  83.5119080  29.5933510  49.1202490
  86.3304400  29.5329150  38.2558580  86.1705540  29.2432090  39.1540410
  86.1651110  28.7569280  37.7203810  78.8092780  29.3127680  40.0330200
  78.6335260  28.3963220  39.8198000  77.9548520  29.6714970  40.2728000
  86.0330530  27.0416710  36.8156580  85.3395690  27.0394000  36.1558860
  86.7753390  26.6176030  36.3850750  85.5980460  28.6679420  40.8905070
  86.0537410  27.8868800  41.2043690  85.9372980  29.3786240  41.4346250
  90.3457270  17.5978270  51.2229510  89.7301540  18.1057940  50.6944970
  90.0253690  16.6976600  51.1655450  73.3483010  24.4395880  48.0495810
  73.5114050  23.9701240  47.2315180  73.8135460  23.9319440  48.7144650
  78.1201780  13.5701640  43.0856380  77.6769930  14.3511180  42.7540900
  78.6786770  13.8931530  43.7927320  82.4071590  16.4370160  48.6891700
  81.9450960  16.6453180  49.5011640  82.0049700  15.6229510  48.3862370
  87.4076100  17.6579110  49.8188360  86.5569690  17.3584860  50.1397430
  87.2477890  17.9021120  48.9072180  84.5025810  19.1580860  51.9187150
  84.8279220  18.3244610  51.5789380  85.2906140  19.6809380  52.0665480
  81.2360600  13.1912340  37.9662210  80.6114780  13.1872210  38.6915520
  81.1490720  12.3243300  37.5698180  80.1577680  14.1148970  44.9445980
  80.4550010  15.0211800  44.8638000  80.7063240  13.6267750  44.3305550
  77.9116000  18.6935210  40.8137630  77.6856920  18.4772380  41.7184250
  77.1308530  19.1263670  40.4683600  85.1413760  18.6998580  39.4128280
  84.5422650  19.4234380  39.2291900  85.6893370  18.6375360  38.6304730
  80.3515210  19.5920790  51.4797900  80.2558810  18.6515520  51.3298300
  81.1947190  19.8135860  51.0845970  83.7478630  17.3362120  41.4431560
  84.1408200  17.6534320  40.6300250  84.1095480  16.4574000  41.5576080
  75.4825750  16.0034460  49.6331680  75.0889140  16.8509670  49.8404460
  74.7944150  15.3660830  49.8240320  82.0570800  16.0869430  52.7028420
  81.3669120  15.8941630  53.3374510  82.8003100  16.3704070  53.2352720
  72.7842800  13.9262920  43.6661760  72.4955850  14.4965780  44.3786740
  73.5288560  13.4467370  44.0292990  72.9713030  17.8683040  34.8764480
  72.8887700  18.8113800  35.0179470  72.6196090  17.7257950  33.9976830
  84.3333770  19.9267870  45.5382340  83.6014890  20.4354680  45.8872440
  83.9358110  19.1097850  45.2371120  80.7711160  16.6022070  43.9434830
  80.7747220  16.1612020  43.0939370  81.6662280  16.9239400  44.0506650
  76.6213540  16.4848560  42.9029040  76.2813590  16.9623790  43.6596090
  75.8590860  16.0313680  42.5430140  80.8331310  17.6034150  36.9341590
  80.9544130  17.5620630  37.8827410  80.4479820  18.4658300  36.7788320
  84.7959680  15.3801550  44.9505280  84.8132420  15.8310200  45.7947130
  84.5475260  14.4807190  45.1638720  79.8452810  19.9135290  36.3324890
  79.2769710  19.4653540  35.7060800  80.5541810  20.2728070  35.7990040
  88.2230430  12.7933730  50.7891660  88.5476200  12.0623390  51.3149640
  88.2586940  12.4747370  49.8872650  74.9221990  23.8147310  50.2091620
  74.5376780  23.1740980  50.8074580  75.2334180  24.5183430  50.7786350
  81.0719130  20.6623850  45.6900240  81.4389260  20.1882420  46.4361580
  80.8824190  21.5365420  46.0308580  73.9359620  15.4067540  41.8193710
  73.6506540  15.0423210  42.6572330  73.8738480  14.6748000  41.2056850
  78.8618500  19.7032490  48.0084450  78.5575570  20.5824470  48.2334810
  79.8164960  19.7632280  48.0441890  77.3900290  23.9093480  38.6051300
  76.6162550  23.3691100  38.4450020  78.1194920  23.3900090  38.2669060
  88.1488270  22.9058840  44.3977690  88.8687390  23.4014130  44.0073800
  87.9470090  22.2276730  43.7531560  83.6098210  14.2996800  38.5407080
  82.7962820  13.8009970  38.4652390  83.4160160  15.1395050  38.1243430
  83.5307070  22.9767900  50.2846690  83.4644380  22.0563570  50.0304280
  82.9012210  23.0743340  50.9991330  86.3246600  18.6716450  36.8369240
  87.2126220  18.9833680  36.6620580  86.2951690  17.7988700  36.4449820
  77.4337690  23.5773860  42.2430110  77.9516360  22.7742120  42.1887000
  76.9821710  23.5153000  43.0846940  82.3207190  24.8440140  37.5157410
  82.6622890  25.5882370  37.0200730  81.4919900  25.1571260  37.8782240
  74.9182230  20.5435230  49.1555810  74.5597170  21.2089080  49.7429150
  74.6236790  19.7118780  49.5268430  78.1195350  21.0019470  52.0395360
  77.8195490  21.1476650  51.1423180  78.8906590  20.4424760  51.9468750
  83.4623800  25.7988470  50.0350490  83.4768340  24.8669430  49.8169400
  82.7548900  25.8848230  50.6740260  88.5960870  19.9828290  36.3049100
  88.5124590  20.4142510  35.4545540  89.3155060  20.4426640  36.7375920
  89.6735010  22.4395810  49.3819070  88.9483200  23.0324590  49.1848460
  90.2010470  22.4319350  48.5832440  89.6248120  26.8370550  39.0331230
  88.9824280  26.1826170  39.3074950  89.2378780  27.2425640  38.2571900
  85.2034600  24.1655980  42.8802920  85.5558420  23.5684110  42.2204290
  84.3196930  23.8400210  43.0511170  81.2897880  24.9253670  40.2873330
  81.9769010  25.4722880  40.6680920  80.5030300  25.4694400  40.3222940
  73.4290280  20.5426490  35.7790410  74.2985130  20.8251290  36.0626330
  72.9380600  21.3562360  35.6639220  80.5925090  21.9299700  39.8998690
  81.0487870  22.7404950  40.1258880  80.2413300  21.6122840  40.7317180
  82.8957700  27.4406040  47.1290990  83.5399920  27.6465420  47.8064410
  83.2587140  26.6794440  46.6761840  76.4936870  12.2737350  40.3721210
  76.3651500  12.2655250  41.3206130  75.6698890  12.6120440  40.0212220
  84.1689780  25.4438390  45.8468440  84.8112010  24.7431550  45.9600610
  84.6939130  26.2236830  45.6665330  88.0145500  25.7287010  35.5707580
  87.7883080  25.0117450  36.1632220  87.6241700  25.4799450  34.7329330
  85.9427400  26.2433290  49.0504500  86.2783640  26.8299980  49.7282420
  85.0227740  26.1126000  49.2802290  73.7961530  29.7553870  36.3452040
  74.1559170  30.3543210  35.6909310  73.6553870  30.3013760  37.1187070
  73.4930800  14.0328470  49.8327910  72.7789320  14.2325390  50.4380520
  73.9125840  13.2568040  50.2042710  87.5961750  23.6458950  37.2321740
  87.3083450  24.1071640  38.0199620  88.3913920  23.1856720  37.5005960
  73.7803390  28.0208730  50.8194440  73.8894510  27.0803470  50.6789830
  73.1283950  28.2863480  50.1708170  81.7715980  26.2924620  52.2192560
  81.4512850  25.5733860  52.7638250  81.0974340  26.9679690  52.2928620
  79.8130150  27.1385070  37.1625710  79.8040250  27.8714760  36.5470220
  78.8928510  26.8916650  37.2552670  75.4136790  22.3599960  37.9072470
  74.8064740  23.0998860  37.9167770  75.8886140  22.4499320  37.0810670
  84.9869580  16.5250780  47.5829360  85.3550400  15.7045990  47.9108930
  84.1267780  16.5852670  47.9985010  88.3531610  15.4807720  38.3916920
  87.7244770  15.5853390  37.6775150  87.8583530  15.7004500  39.1810800
  82.7989750  27.2013310  35.8250900  82.9001730  26.9977300  34.8952880
  81.8991490  26.9471590  36.0298680  80.3215640  17.7593670  39.8074800
  79.6131790  18.2280010  40.2488410  80.6060120  17.1015680  40.4419990
  81.9471570  19.1790370  47.8067330  82.4456820  19.6536190  48.4719180
  82.0894520  18.2553890  48.0137360  84.3531070  14.4844330  41.2470590
  84.2298850  14.5030460  40.2980100  85.3015630  14.5323270  41.3668990
  81.4407860  29.7199630  40.5198570  81.6949360  29.6821020  39.5977940
  80.4920340  29.5932960  40.5126820  78.5250660  16.0678750  37.1825510
  79.3741190  16.5048900  37.1165700  78.1581930  16.3799010  38.0097570
  89.1538430  15.3958330  48.6495720  88.6512030  16.1363730  48.9889530
  89.9695090  15.7842330  48.3332510  87.4460440  20.6391510  42.0957080
  86.5050580  20.6541740  42.2704770  87.7604510  19.8527470  42.5417380
  77.4242080  22.3211110  35.6561040  78.1905350  22.2092470  36.2186470
  77.5016770  21.6249080  35.0037810  76.1188840  19.7536180  36.3393930
  76.1992430  18.8063690  36.4511330  77.0108590  20.0843060  36.4454590
  89.4486020  27.8100360  43.7711340  89.5733440  28.6331530  44.2435150
  90.3151580  27.5991090  43.4235490  76.9203550  29.9031570  43.4428470
  77.6566030  29.3547030  43.7137040  77.3044470  30.7687580  43.3034460
  73.8049030  25.9705140  39.3169980  72.8788810  26.2126280  39.3075390
  74.2705460  26.7979400  39.1954730  75.9261830  29.0877640  52.6314050
  76.7274560  29.4089690  53.0449450  75.4113650  28.7273220  53.3533960
  80.0305860  29.0761880  35.2654040  80.8234470  29.3650710  34.8135830
  79.5110210  28.6454050  34.5866520  84.7626460  25.1957510  52.5789460
  84.1564620  25.2189110  51.8385210  84.4580570  24.4640550  53.1156710
  86.1926830  28.9237800  51.1898870  87.1448580  28.8395820  51.1399110
  86.0455050  29.5879510  51.8632660  89.0836030  28.3032010  36.6890780
  88.7977540  27.8897150  35.8744960  88.8855580  29.2319720  36.5691300
  73.6459640  21.5751100  51.5750100  74.1498660  20.9958380  52.1466330
  72.9067060  21.8591330  52.1126470  80.5483260  24.2965290  35.1296390
  80.4433900  23.6817640  35.8557770  80.3807480  23.7731180  34.3459400
  80.6997580  22.9822090  51.1085620  79.9343250  23.5507090  51.0240290
  80.8813540  22.6898300  50.2153850  83.7885990  23.3585320  35.7338380
  83.2396090  23.8054620  36.3781120  84.4105250  22.8534570  36.2576050
  87.8420930  24.7127420  51.6660640  88.5830400  25.0503180  51.1628100
  87.0793610  24.8819480  51.1130410  75.6782720  19.7180690  52.4700170
  75.7188060  19.4194560  53.3785400  76.5328220  20.1188300  52.3107690
  79.4561110  22.3176240  37.6303680  79.8777530  22.1516110  38.4735070
  79.5811950  21.5076470  37.1358820  77.6188530  18.2972790  50.4374660
  77.0884990  17.8063740  49.8098000  78.2876600  18.7256990  49.9032590
  81.9688750  21.3413850  34.8780780  82.4894410  20.6262870  34.5121930
  82.6157150  21.9799720  35.1781290  86.5166590  22.7642250  50.2015850
  86.9307610  22.9187330  51.0506270  85.5817590  22.8897470  50.3641630
  86.9888760  20.1038410  52.2055000  87.5709530  19.3490730  52.1175480
  87.1650530  20.6345850  51.4286480  78.1060830  15.2635160  50.5171950
  78.0117700  14.6455910  49.7922820  77.5258220  15.9901450  50.2901860
  80.8722270  13.8208400  47.5499340  80.4239570  13.8432660  46.7044890
  80.2387470  13.4227420  48.1469640  81.2781820  22.7162730  48.1711780
  81.6969930  23.5595460  47.9988020  80.3590450  22.8534770  47.9418560
  83.6145720  20.4478910  49.5549620  83.7341930  19.8520050  50.2944460
  84.4739720  20.4848600  49.1350920  85.9533620  21.0016100  48.1312130
  85.4268840  21.5258720  47.5277270  86.2964960  21.6343490  48.7621860
  78.3520010  18.3909470  34.5761840  78.1509070  17.5276830  34.9375180
  78.1812060  18.3042830  33.6383440  79.1289240  29.0215740  49.2869510
  78.5910330  29.7461800  48.9678210  79.3823200  28.5446080  48.4966850
  80.3814490  16.9900260  50.8125440  80.9714180  16.6816110  51.5003260
  79.5634730  16.5180010  50.9685340  85.2007920  16.6066070  51.0458460
  84.5123440  15.9447610  50.9808450  85.9213940  16.1604340  51.4906920
  85.8308320  13.2017700  37.1048720  86.1110610  12.3585600  37.4608140
  85.0574050  13.4340810  37.6187470  77.1502810  15.4910090  34.5639720
  77.4528710  15.4977520  33.6558870  77.8897400  15.1407950  35.0607380
  81.9851450  30.2566950  49.5456160  81.9110150  31.1602090  49.8528530
  81.0830290  29.9378850  49.5178230  80.3687740  14.4344710  35.5495920
  80.0209740  13.7568700  34.9698370  80.5700510  13.9734220  36.3639310
  82.5336780  29.4225460  37.1682520  83.4287570  29.7610430  37.1901280
  82.5654410  28.7004870  36.5406800  76.1732940  24.7952510  35.3969520
  76.6107810  25.3382180  36.0527100  76.6580670  23.9699460  35.4065860
  73.3878740  27.5841540  42.8489780  73.7181750  26.7162600  42.6168420
  73.8169740  27.7900060  43.6794740  77.9840660  25.9150550  40.5091750
  77.6836200  25.7915520  41.4095660  77.8778150  25.0559140  40.1007480
  73.8768950  28.4512130  45.5871410  73.4399940  28.6312930  46.4195560
  74.4446630  29.2086750  45.4453130  89.5131130  27.9529130  49.8748720
  88.9133120  28.0121690  49.1312640  89.6425030  27.0134110  50.0045570
  90.7532580  25.6946950  35.2118430  89.9225540  25.7623600  35.6825660
  90.9304410  26.5851070  34.9085290  90.2089040  22.4394430  37.7152630
  90.9707950  23.0091080  37.8212320  90.2243410  21.8721630  38.4860940
  73.7093380  20.9632360  41.9460290  73.0542220  20.6944000  41.3019990
  74.5471330  20.8536840  41.4962270  91.2149010  23.2944530  42.5594560
  91.5857840  22.5111850  42.1530530  91.8550940  23.9833630  42.3811860
  88.1982770  24.6781110  47.9724880  87.3842610  25.1078270  48.2350670
  88.6056970  25.2899520  47.3593930  90.2608210  22.7328800  34.8725150
  90.5357050  23.6407680  34.7444370  90.0718950  22.6691330  35.8087140
  86.6583820  15.7573650  36.1678780  87.0768700  15.5704630  35.3275440
  86.3519880  14.9052700  36.4781710  90.1573550  20.6697790  39.8654580
  89.7817150  19.9025720  39.4335870  89.4276670  21.0520490  40.3529510
  74.7469310  21.3484930  46.4863630  75.1142350  21.2612330  47.3659650
  74.1780130  20.5851480  46.3870490  89.5473170  19.8169310  49.4994100
  89.3159260  19.5882060  48.5992050  89.8077720  20.7368860  49.4538990
  74.2985310  18.2594020  50.3922050  73.4041360  18.2260780  50.7315760
  74.8382860  18.4580810  51.1573300  87.9861240  15.0425740  52.2773800
  88.8631420  15.0509140  52.6607800  87.9982080  14.3056580  51.6666150
  72.9231460  18.1731290  37.8885620  72.0195540  18.4361490  37.7137280
  73.4072080  18.4442460  37.1085580  89.4324510  18.8955280  43.1661820
  89.9561990  18.4017930  42.5351990  90.0183930  19.0305640  43.9109390
  89.6114230  18.9795150  46.6881370  88.6616940  18.9458690  46.8026360
  89.7927240  19.8895260  46.4531140  75.4658670  17.2296830  35.7980000
  76.1750370  16.8080050  35.3127280  74.7498610  17.2972060  35.1663350
  75.1132830  13.2836160  34.8382650  75.8360960  13.8245100  35.1563870
  75.3857350  13.0099580  33.9624190  88.9224480  18.1528630  39.1054230
  89.4183600  17.9199500  39.8903110  88.7240550  17.3140470  38.6891870
  74.8025020  12.5342350  44.7405270  75.4501210  11.9839730  44.3000430
  75.2226860  12.7885500  45.5621080  90.3511640  16.7889580  41.6391910
  90.2410920  16.6345620  42.5774180  91.1119230  16.2610520  41.3967320
  88.6977360  12.7283710  48.0974910  89.3349580  13.3417850  48.4634100
  88.8452250  12.7644370  47.1524140  91.2401910  14.6197500  34.8798050
  92.1651220  14.4878680  34.6716340  91.2177700  14.6990320  35.8334500
  91.3140400  15.3908160  37.5054760  90.5191900  15.3253280  38.0347670
  91.5183680  16.3258800  37.4940110  88.2558820  29.4299710  41.4993150
  88.8517890  29.1084280  40.8227570  88.5136970  28.9571530  42.2906420
  74.5557020  12.6898020  47.4830590  74.2071840  13.1461840  48.2488770
  74.2244720  11.7955150  47.5653020  76.1621390  25.8617620  51.6483780
  76.1191020  25.4910530  52.5298240  76.2932400  26.7995190  51.7885600
  79.8627420  27.4177210  47.2493500  79.6218780  27.6851770  46.3624020
  80.8030060  27.5882940  47.3044360  82.0681840  13.8809900  51.0050010
  82.0070730  14.4731730  51.7545420  83.0082220  13.7735860  50.8600270
  84.7056400  13.5379960  50.6442300  85.3196810  13.8559250  49.9823380
  85.2505960  13.0528550  51.2638160  91.1231580  29.4371590  48.0504140
  90.6289860  29.8340460  47.3331270  90.5144870  28.8120800  48.4441420
  75.2277660  12.2174220  50.7581360  75.7760650  12.0362270  49.9947470
  75.2932970  11.4268330  51.2937670  76.0009420  28.8079870  48.7681560
  75.4069740  28.6764570  49.5071600  75.9933260  27.9718010  48.3023660
  85.4464440  12.1012100  46.9711590  84.5724280  12.4347210  46.7684520
  85.3375190  11.6285280  47.7963460  86.3536420  14.3082970  48.3553310
  86.0249780  13.4934730  47.9755040  87.3018720  14.2652780  48.2319000
  88.8071030  30.0795010  45.3290880  88.3474000  30.8310820  44.9548900
  88.1783490  29.3601480  45.2705680  75.6321650  26.1738250  47.7189600
  74.9055710  25.5543540  47.6515550  75.6930800  26.5678860  46.8487680
  79.2366750  28.3883250  44.5039010  79.7531770  27.7770610  43.9787270
  79.8864130  28.8912030  44.9950020  81.9762250  29.2791740  45.3307990
  82.2640060  29.0246040  44.4541000  82.4885470  28.7269100  45.9213560
  83.1939260  13.0181940  45.9104500  82.4111050  13.4927440  46.1901260
  82.9002190  12.1136770  45.8017680  87.7460330  13.7205040  43.9553590
  88.1868420  13.6650140  43.1075190  87.4767920  14.6363050  44.0263770
  89.6098900  13.3520280  41.9662410  89.5487300  12.4081500  41.8193430
  90.3890930  13.4600370  42.5115870  73.9151650  29.4912640  40.9286360
  73.7473690  28.8583320  41.6268250  73.0486160  29.6972040  40.5780550
  74.5379670  13.3229420  38.4318220  75.2959030  13.4358300  37.8582250
  74.0756840  14.1598620  38.3861650  81.0793480  15.4368690  41.4220530
  80.2667990  15.0625580  41.0816410  81.5835120  14.6813770  41.7241720
  85.5818460  12.1011140  42.6603600  86.1847830  12.6731350  43.1352120
  84.8411450  12.6650580  42.4377500  88.7253060  12.5032700  37.9343880
  88.9203690  13.4016150  38.2011310  87.9382930  12.2719780  38.4276830
  75.5214350  28.1845870  38.3736500  74.9961970  28.5653900  37.6698460
  75.4458930  28.8096640  39.0946210  76.9104820  13.8493470  36.9720190
  77.4397580  13.0623270  36.8428140  77.5433140  14.5284660  37.2055720
  79.1042660  13.5868610  40.0265580  78.4745400  12.8855920  40.1935710
  78.5647800  14.3472740  39.8098740  82.0434610  30.2007840  52.6976190
  82.9701920  29.9652110  52.7412150  82.0285040  31.0279840  52.2162220
  90.2779670  29.7433410  39.6950440  90.4531860  29.0571150  39.0511360
  89.5801240  30.2680460  39.3027110  79.2298220  12.8652590  52.4618070
  78.9482490  13.3686190  51.6978890  79.6117920  12.0674340  52.0960200
  78.1207320  30.1328250  37.2485750  78.8526140  29.8487530  36.7009640
  78.3800990  29.8941530  38.1385130  77.2822110  26.2492980  37.2532080
  76.6530990  26.7178080  37.8017910  77.3969940  25.4042200  37.6878270
  85.8313680  12.2806170  53.0398540  85.7179130  12.6000780  53.9350060
  86.6483420  12.6818680  52.7435820  88.6112170  29.4277700  52.5217230
  89.4037490  28.9326930  52.3143190  88.9045320  30.1067840  53.1292840
  84.7371830  20.2998640  23.4033280  84.6565880  19.3853250  23.1324990
  84.3236250  20.7965710  22.6972990  82.8689870  22.0777660  25.2842550
  82.0931970  21.5978100  25.5741120  83.5202800  21.3983310  25.1098710
  76.8855700  22.3897470  26.1618310  76.0540580  22.1346180  26.5614820
  77.4936680  22.4608240  26.8976230  86.8897300  26.4837850  24.0641680
  86.4278830  25.7125090  24.3928850  87.7022850  26.5103920  24.5694130
  76.8656960  26.4237560  26.3576330  77.1685000  25.5335300  26.1786550
  77.6100550  26.9807780  26.1298580  75.2947650  17.3499360  19.9460700
  74.4064350  17.6915330  19.8440580  75.5788840  17.1499680  19.0541530
  73.2580660  19.9505010  25.8300400  73.8296770  19.1827210  25.8304040
  73.2582200  20.2493770  24.9207010  83.1160610  28.7695860  23.6845670
  82.4972050  29.2253360  23.1140110  83.9712390  28.9247320  23.2835370
  82.3098860  24.7534850  25.2912710  82.2407140  23.8124790  25.1301840
  83.0718720  24.8436260  25.8635280  74.5005530  15.3589370  27.6169330
  74.3208370  14.4615120  27.8972090  74.0985610  15.9061240  28.2916280
  83.3404030  17.5605230  25.5181640  83.7168850  16.6877110  25.4055310
  83.2423540  17.8963930  24.6272080  77.4709040  15.9330860  20.9799080
  77.5775790  16.8334590  21.2867840  76.5601400  15.8848830  20.6893730
  87.1228150  15.0555670  22.4509980  87.9437770  14.5652240  22.4935460
  87.1562230  15.6453330  23.2041820  75.1192200  17.8549870  26.2251670
  75.8002310  18.1188240  26.8439070  74.8040250  17.0150740  26.5589680
  79.3116770  18.9017230  25.3124260  79.8194990  19.3998200  25.9529280
  79.8430010  18.1252430  25.1363620  91.4127700  17.0722420  29.0153610
  90.7079870  17.4604130  28.4968720  91.6785620  17.7672710  29.6174540
  77.5952870  13.5415790  29.5787680  77.5971310  14.0588180  28.7733580
  76.7657180  13.0645970  29.5557610  83.9823960  23.6535100  21.0777580
  83.3641230  24.1184550  20.5140300  84.4947210  24.3462580  21.4947090
  78.8455720  23.1810970  27.7561180  78.5125100  23.8079890  28.3982250
  79.0222400  23.7072850  26.9762850  87.3589630  16.9956050  25.2237520
  86.6545200  17.2840940  25.8040630  87.7201790  17.8056160  24.8637080
  77.2768200  15.2525750  27.5858130  77.6185010  16.0967800  27.2912000
  76.3384010  15.4009490  27.7023470  78.0574820  25.1491770  29.5710360
  78.6748820  25.8242850  29.2894810  77.1967940  25.5579750  29.4797860
  73.3507160  24.3391630  18.4517210  72.9735140  24.8278730  17.7202110
  73.6080230  25.0116910  19.0823740  88.9752410  26.6131180  27.4865000
  88.2915930  27.2830290  27.4781670  89.5146700  26.8111830  26.7209860
  90.4276550  16.4410840  25.6146730  89.4801460  16.4749820  25.7462160
  90.7526540  17.2549790  25.9996090  80.9596090  12.7408020  23.9102720
  81.2671070  12.1854910  23.1938220  80.0296790  12.8752480  23.7275710
  86.5111150  28.4575310  26.2010180  86.5238310  28.0537600  25.3332440
  85.9586370  29.2322600  26.0971610  87.8056570  25.1791530  21.2900350
  87.6952900  24.2365860  21.4149770  87.8024820  25.5407170  22.1763110
  85.9096590  23.3605150  27.5292790  86.3265380  23.1465260  26.6946250
  86.6336410  23.6177940  28.1001410  83.3476850  20.8056850  20.6462840
  82.4206130  20.7394230  20.8751310  83.5001670  21.7436980  20.5318080
  83.3345930  17.0773850  17.6430000  82.3949600  17.2387810  17.7282460
  83.6529190  17.7959530  17.0965990  89.8558690  21.7592370  27.6209030
  89.0277320  21.8285460  27.1459160  90.4509170  22.3446680  27.1524860
  87.3774140  22.3677150  21.1498090  86.7586560  22.0296700  20.5024390
  87.3598590  21.7236910  21.8577280  86.8200700  18.5461690  28.5663900
  86.4071880  19.3715400  28.8203890  86.0876650  17.9606730  28.3740260
  78.9533490  21.3321590  23.4282570  78.5490490  20.6198840  22.9328470
  79.0396610  20.9874830  24.3170610  79.4215190  25.0189150  25.5921780
  79.1243480  24.4134620  24.9129560  80.3715010  25.0566460  25.4811140
  77.6662110  18.1064800  27.2081610  78.2176700  18.2160140  26.4334860
  78.1805620  18.4802400  27.9236840  87.5100800  28.5921020  29.2544880
  87.0331360  29.3993210  29.0617490  86.8262590  27.9399350  29.4071090
  78.5133620  24.7570840  32.2429580  77.6162150  24.9810810  32.4902980
  78.5386490  24.8805780  31.2940980  85.5538840  21.6063960  18.1570840
  85.9932120  20.7686390  18.0108660  86.2667260  22.2393360  18.2434980
  77.3404840  21.6284160  30.8186950  77.2012610  22.5006960  31.1874350
  76.4586200  21.2856970  30.6734890  83.6634220  26.5460030  22.1252080
  84.1030130  27.2884360  21.7107470  83.6021110  26.7886600  23.0491040
  79.1385190  27.5705860  33.0272100  79.1100620  27.9748810  32.1600530
  78.9750160  26.6416220  32.8643700  89.1355980  12.8606770  16.4711880
  88.8228640  12.9533600  17.3710950  89.8968450  13.4387800  16.4209310
  75.6538120  20.2266570  20.9289220  75.5335720  20.9528660  20.3170490
  75.3439010  19.4569480  20.4517130  91.0900010  28.3532960  34.3236270
  91.5659730  28.8315850  35.0025350  91.7107170  28.2850450  33.5981770
  73.2923490  23.3981710  26.7357860  73.3703910  23.5330480  25.7913580
  73.9065170  22.6897600  26.9285980  74.5371120  25.0981900  23.1464040
  74.1299200  25.2396490  22.2917640  75.4284130  24.8142060  22.9435250
  90.4933260  25.5445810  31.4836280  90.6196320  25.3057690  30.5653460
  90.5354640  24.7130350  31.9558360  84.3550000  29.2473810  30.0531090
  84.8694670  29.1581820  30.8553520  83.5119080  29.5933510  30.3459000
  86.3304400  29.5329150  19.4815090  86.1705540  29.2432090  20.3796920
  86.1651110  28.7569280  18.9460320  78.8092780  29.3127680  21.2586710
  78.6335260  28.3963220  21.0454510  77.9548520  29.6714970  21.4984510
  86.0330530  27.0416710  18.0413090  85.3395690  27.0394000  17.3815370
  86.7753390  26.6176030  17.6107260  85.5980460  28.6679420  22.1161580
  86.0537410  27.8868800  22.4300200  85.9372980  29.3786240  22.6602760
  90.3457270  17.5978270  32.4486020  89.7301540  18.1057940  31.9201480
  90.0253690  16.6976600  32.3911960  73.3483010  24.4395880  29.2752320
  73.5114050  23.9701240  28.4571690  73.8135460  23.9319440  29.9401160
  78.1201780  13.5701640  24.3112890  77.6769930  14.3511180  23.9797410
  78.6786770  13.8931530  25.0183830  82.4071590  16.4370160  29.9148210
  81.9450960  16.6453180  30.7268150  82.0049700  15.6229510  29.6118880
  87.4076100  17.6579110  31.0444870  86.5569690  17.3584860  31.3653940
  87.2477890  17.9021120  30.1328690  84.5025810  19.1580860  33.1443660
  84.8279220  18.3244610  32.8045890  85.2906140  19.6809380  33.2921990
  81.2360600  13.1912340  19.1918720  80.6114780  13.1872210  19.9172030
  81.1490720  12.3243300  18.7954690  80.1577680  14.1148970  26.1702490
  80.4550010  15.0211800  26.0894510  80.7063240  13.6267750  25.5562060
  77.9116000  18.6935210  22.0394140  77.6856920  18.4772380  22.9440760
  77.1308530  19.1263670  21.6940110  85.1413760  18.6998580  20.6384790
  84.5422650  19.4234380  20.4548410  85.6893370  18.6375360  19.8561240
  80.3515210  19.5920790  32.7054410  80.2558810  18.6515520  32.5554810
  81.1947190  19.8135860  32.3102480  83.7478630  17.3362120  22.6688070
  84.1408200  17.6534320  21.8556760  84.1095480  16.4574000  22.7832590
  75.4825750  16.0034460  30.8588190  75.0889140  16.8509670  31.0660970
  74.7944150  15.3660830  31.0496830  82.0570800  16.0869430  33.9284930
  81.3669120  15.8941630  34.5631020  82.8003100  16.3704070  34.4609230
  72.7842800  13.9262920  24.8918270  72.4955850  14.4965780  25.6043250
  73.5288560  13.4467370  25.2549500  72.9713030  17.8683040  16.1020990
  72.8887700  18.8113800  16.2435980  72.6196090  17.7257950  15.2233340
  84.3333770  19.9267870  26.7638850  83.6014890  20.4354680  27.1128950
  83.9358110  19.1097850  26.4627630  80.7711160  16.6022070  25.1691340
  80.7747220  16.1612020  24.3195880  81.6662280  16.9239400  25.2763160
  76.6213540  16.4848560  24.1285550  76.2813590  16.9623790  24.8852600
  75.8590860  16.0313680  23.7686650  80.8331310  17.6034150  18.1598100
  80.9544130  17.5620630  19.1083920  80.4479820  18.4658300  18.0044830
  84.7959680  15.3801550  26.1761790  84.8132420  15.8310200  27.0203640
  84.5475260  14.4807190  26.3895230  79.8452810  19.9135290  17.5581400
  79.2769710  19.4653540  16.9317310  80.5541810  20.2728070  17.0246550
  88.2230430  12.7933730  32.0148170  88.5476200  12.0623390  32.5406150
  88.2586940  12.4747370  31.1129160  74.9221990  23.8147310  31.4348130
  74.5376780  23.1740980  32.0331090  75.2334180  24.5183430  32.0042860
  81.0719130  20.6623850  26.9156750  81.4389260  20.1882420  27.6618090
  80.8824190  21.5365420  27.2565090  73.9359620  15.4067540  23.0450220
  73.6506540  15.0423210  23.8828840  73.8738480  14.6748000  22.4313360
  78.8618500  19.7032490  29.2340960  78.5575570  20.5824470  29.4591320
  79.8164960  19.7632280  29.2698400  77.3900290  23.9093480  19.8307810
  76.6162550  23.3691100  19.6706530  78.1194920  23.3900090  19.4925570
  88.1488270  22.9058840  25.6234200  88.8687390  23.4014130  25.2330310
  87.9470090  22.2276730  24.9788070  83.6098210  14.2996800  19.7663590
  82.7962820  13.8009970  19.6908900  83.4160160  15.1395050  19.3499940
  83.5307070  22.9767900  31.5103200  83.4644380  22.0563570  31.2560790
  82.9012210  23.0743340  32.2247840  86.3246600  18.6716450  18.0625750
  87.2126220  18.9833680  17.8877090  86.2951690  17.7988700  17.6706330
  77.4337690  23.5773860  23.4686620  77.9516360  22.7742120  23.4143510
  76.9821710  23.5153000  24.3103450  82.3207190  24.8440140  18.7413920
  82.6622890  25.5882370  18.2457240  81.4919900  25.1571260  19.1038750
  74.9182230  20.5435230  30.3812320  74.5597170  21.2089080  30.9685660
  74.6236790  19.7118780  30.7524940  78.1195350  21.0019470  33.2651870
  77.8195490  21.1476650  32.3679690  78.8906590  20.4424760  33.1725260
  83.4623800  25.7988470  31.2607000  83.4768340  24.8669430  31.0425910
  82.7548900  25.8848230  31.8996770  88.5960870  19.9828290  17.5305610
  88.5124590  20.4142510  16.6802050  89.3155060  20.4426640  17.9632430
  89.6735010  22.4395810  30.6075580  88.9483200  23.0324590  30.4104970
  90.2010470  22.4319350  29.8088950  89.6248120  26.8370550  20.2587740
  88.9824280  26.1826170  20.5331460  89.2378780  27.2425640  19.4828410
  85.2034600  24.1655980  24.1059430  85.5558420  23.5684110  23.4460800
  84.3196930  23.8400210  24.2767680  81.2897880  24.9253670  21.5129840
  81.9769010  25.4722880  21.8937430  80.5030300  25.4694400  21.5479450
  73.4290280  20.5426490  17.0046920  74.2985130  20.8251290  17.2882840
  72.9380600  21.3562360  16.8895730  80.5925090  21.9299700  21.1255200
  81.0487870  22.7404950  21.3515390  80.2413300  21.6122840  21.9573690
  82.8957700  27.4406040  28.3547500  83.5399920  27.6465420  29.0320920
  83.2587140  26.6794440  27.9018350  76.4936870  12.2737350  21.5977720
  76.3651500  12.2655250  22.5462640  75.6698890  12.6120440  21.2468730
  84.1689780  25.4438390  27.0724950  84.8112010  24.7431550  27.1857120
  84.6939130  26.2236830  26.8921840  88.0145500  25.7287010  16.7964090
  87.7883080  25.0117450  17.3888730  87.6241700  25.4799450  15.9585840
  85.9427400  26.2433290  30.2761010  86.2783640  26.8299980  30.9538930
  85.0227740  26.1126000  30.5058800  73.7961530  29.7553870  17.5708550
  74.1559170  30.3543210  16.9165820  73.6553870  30.3013760  18.3443580
  73.4930800  14.0328470  31.0584420  72.7789320  14.2325390  31.6637030
  73.9125840  13.2568040  31.4299220  87.5961750  23.6458950  18.4578250
  87.3083450  24.1071640  19.2456130  88.3913920  23.1856720  18.7262470
  73.7803390  28.0208730  32.0450950  73.8894510  27.0803470  31.9046340
  73.1283950  28.2863480  31.3964680  81.7715980  26.2924620  33.4449070
  81.4512850  25.5733860  33.9894760  81.0974340  26.9679690  33.5185130
  79.8130150  27.1385070  18.3882220  79.8040250  27.8714760  17.7726730
  78.8928510  26.8916650  18.4809180  75.4136790  22.3599960  19.1328980
  74.8064740  23.0998860  19.1424280  75.8886140  22.4499320  18.3067180
  84.9869580  16.5250780  28.8085870  85.3550400  15.7045990  29.1365440
  84.1267780  16.5852670  29.2241520  88.3531610  15.4807720  19.6173430
  87.7244770  15.5853390  18.9031660  87.8583530  15.7004500  20.4067310
  82.7989750  27.2013310  17.0507410  82.9001730  26.9977300  16.1209390
  81.8991490  26.9471590  17.2555190  80.3215640  17.7593670  21.0331310
  79.6131790  18.2280010  21.4744920  80.6060120  17.1015680  21.6676500
  81.9471570  19.1790370  29.0323840  82.4456820  19.6536190  29.6975690
  82.0894520  18.2553890  29.2393870  84.3531070  14.4844330  22.4727100
  84.2298850  14.5030460  21.5236610  85.3015630  14.5323270  22.5925500
  81.4407860  29.7199630  21.7455080  81.6949360  29.6821020  20.8234450
  80.4920340  29.5932960  21.7383330  78.5250660  16.0678750  18.4082020
  79.3741190  16.5048900  18.3422210  78.1581930  16.3799010  19.2354080
  89.1538430  15.3958330  29.8752230  88.6512030  16.1363730  30.2146040
  89.9695090  15.7842330  29.5589020  87.4460440  20.6391510  23.3213590
  86.5050580  20.6541740  23.4961280  87.7604510  19.8527470  23.7673890
  77.4242080  22.3211110  16.8817550  78.1905350  22.2092470  17.4442980
  77.5016770  21.6249080  16.2294320  76.1188840  19.7536180  17.5650440
  76.1992430  18.8063690  17.6767840  77.0108590  20.0843060  17.6711100
  89.4486020  27.8100360  24.9967850  89.5733440  28.6331530  25.4691660
  90.3151580  27.5991090  24.6492000  76.9203550  29.9031570  24.6684980
  77.6566030  29.3547030  24.9393550  77.3044470  30.7687580  24.5290970
  73.8049030  25.9705140  20.5426490  72.8788810  26.2126280  20.5331900
  74.2705460  26.7979400  20.4211240  75.9261830  29.0877640  33.8570560
  76.7274560  29.4089690  34.2705960  75.4113650  28.7273220  34.5790470
  80.0305860  29.0761880  16.4910550  80.8234470  29.3650710  16.0392340
  79.5110210  28.6454050  15.8123030  84.7626460  25.1957510  33.8045970
  84.1564620  25.2189110  33.0641720  84.4580570  24.4640550  34.3413220
  86.1926830  28.9237800  32.4155380  87.1448580  28.8395820  32.3655620
  86.0455050  29.5879510  33.0889170  89.0836030  28.3032010  17.9147290
  88.7977540  27.8897150  17.1001470  88.8855580  29.2319720  17.7947810
  73.6459640  21.5751100  32.8006610  74.1498660  20.9958380  33.3722840
  72.9067060  21.8591330  33.3382980  80.5483260  24.2965290  16.3552900
  80.4433900  23.6817640  17.0814280  80.3807480  23.7731180  15.5715910
  80.6997580  22.9822090  32.3342130  79.9343250  23.5507090  32.2496800
  80.8813540  22.6898300  31.4410360  83.7885990  23.3585320  16.9594890
  83.2396090  23.8054620  17.6037630  84.4105250  22.8534570  17.4832560
  87.8420930  24.7127420  32.8917150  88.5830400  25.0503180  32.3884610
  87.0793610  24.8819480  32.3386920  75.6782720  19.7180690  33.6956680
  75.7188060  19.4194560  34.6041910  76.5328220  20.1188300  33.5364200
  79.4561110  22.3176240  18.8560190  79.8777530  22.1516110  19.6991580
  79.5811950  21.5076470  18.3615330  77.6188530  18.2972790  31.6631170
  77.0884990  17.8063740  31.0354510  78.2876600  18.7256990  31.1289100
  81.9688750  21.3413850  16.1037290  82.4894410  20.6262870  15.7378440
  82.6157150  21.9799720  16.4037800  86.5166590  22.7642250  31.4272360
  86.9307610  22.9187330  32.2762780  85.5817590  22.8897470  31.5898140
  86.9888760  20.1038410  33.4311510  87.5709530  19.3490730  33.3431990
  87.1650530  20.6345850  32.6542990  78.1060830  15.2635160  31.7428460
  78.0117700  14.6455910  31.0179330  77.5258220  15.9901450  31.5158370
  80.8722270  13.8208400  28.7755850  80.4239570  13.8432660  27.9301400
  80.2387470  13.4227420  29.3726150  81.2781820  22.7162730  29.3968290
  81.6969930  23.5595460  29.2244530  80.3590450  22.8534770  29.1675070
  83.6145720  20.4478910  30.7806130  83.7341930  19.8520050  31.5200970
  84.4739720  20.4848600  30.3607430  85.9533620  21.0016100  29.3568640
  85.4268840  21.5258720  28.7533780  86.2964960  21.6343490  29.9878370
  78.3520010  18.3909470  15.8018350  78.1509070  17.5276830  16.1631690
  78.1812060  18.3042830  14.8639950  79.1289240  29.0215740  30.5126020
  78.5910330  29.7461800  30.1934720  79.3823200  28.5446080  29.7223360
  80.3814490  16.9900260  32.0381950  80.9714180  16.6816110  32.7259770
  79.5634730  16.5180010  32.1941850  85.2007920  16.6066070  32.2714970
  84.5123440  15.9447610  32.2064960  85.9213940  16.1604340  32.7163430
  85.8308320  13.2017700  18.3305230  86.1110610  12.3585600  18.6864650
  85.0574050  13.4340810  18.8443980  77.1502810  15.4910090  15.7896230
  77.4528710  15.4977520  14.8815380  77.8897400  15.1407950  16.2863890
  81.9851450  30.2566950  30.7712670  81.9110150  31.1602090  31.0785040
  81.0830290  29.9378850  30.7434740  80.3687740  14.4344710  16.7752430
  80.0209740  13.7568700  16.1954880  80.5700510  13.9734220  17.5895820
  82.5336780  29.4225460  18.3939030  83.4287570  29.7610430  18.4157790
  82.5654410  28.7004870  17.7663310  76.1732940  24.7952510  16.6226030
  76.6107810  25.3382180  17.2783610  76.6580670  23.9699460  16.6322370
  73.3878740  27.5841540  24.0746290  73.7181750  26.7162600  23.8424930
  73.8169740  27.7900060  24.9051250  77.9840660  25.9150550  21.7348260
  77.6836200  25.7915520  22.6352170  77.8778150  25.0559140  21.3263990
  73.8768950  28.4512130  26.8127920  73.4399940  28.6312930  27.6452070
  74.4446630  29.2086750  26.6709640  89.5131130  27.9529130  31.1005230
  88.9133120  28.0121690  30.3569150  89.6425030  27.0134110  31.2302080
  90.7532580  25.6946950  16.4374940  89.9225540  25.7623600  16.9082170
  90.9304410  26.5851070  16.1341800  90.2089040  22.4394430  18.9409140
  90.9707950  23.0091080  19.0468830  90.2243410  21.8721630  19.7117450
  73.7093380  20.9632360  23.1716800  73.0542220  20.6944000  22.5276500
  74.5471330  20.8536840  22.7218780  91.2149010  23.2944530  23.7851070
  91.5857840  22.5111850  23.3787040  91.8550940  23.9833630  23.6068370
  88.1982770  24.6781110  29.1981390  87.3842610  25.1078270  29.4607180
  88.6056970  25.2899520  28.5850440  90.2608210  22.7328800  16.0981660
  90.5357050  23.6407680  15.9700880  90.0718950  22.6691330  17.0343650
  86.6583820  15.7573650  17.3935290  87.0768700  15.5704630  16.5531950
  86.3519880  14.9052700  17.7038220  90.1573550  20.6697790  21.0911090
  89.7817150  19.9025720  20.6592380  89.4276670  21.0520490  21.5786020
  74.7469310  21.3484930  27.7120140  75.1142350  21.2612330  28.5916160
  74.1780130  20.5851480  27.6127000  89.5473170  19.8169310  30.7250610
  89.3159260  19.5882060  29.8248560  89.8077720  20.7368860  30.6795500
  74.2985310  18.2594020  31.6178560  73.4041360  18.2260780  31.9572270
  74.8382860  18.4580810  32.3829810  87.9861240  15.0425740  33.5030310
  88.8631420  15.0509140  33.8864310  87.9982080  14.3056580  32.8922660
  72.9231460  18.1731290  19.1142130  72.0195540  18.4361490  18.9393790
  73.4072080  18.4442460  18.3342090  89.4324510  18.8955280  24.3918330
  89.9561990  18.4017930  23.7608500  90.0183930  19.0305640  25.1365900
  89.6114230  18.9795150  27.9137880  88.6616940  18.9458690  28.0282870
  89.7927240  19.8895260  27.6787650  75.4658670  17.2296830  17.0236510
  76.1750370  16.8080050  16.5383790  74.7498610  17.2972060  16.3919860
  75.1132830  13.2836160  16.0639160  75.8360960  13.8245100  16.3820380
  75.3857350  13.0099580  15.1880700  88.9224480  18.1528630  20.3310740
  89.4183600  17.9199500  21.1159620  88.7240550  17.3140470  19.9148380
  74.8025020  12.5342350  25.9661780  75.4501210  11.9839730  25.5256940
  75.2226860  12.7885500  26.7877590  90.3511640  16.7889580  22.8648420
  90.2410920  16.6345620  23.8030690  91.1119230  16.2610520  22.6223830
  88.6977360  12.7283710  29.3231420  89.3349580  13.3417850  29.6890610
  88.8452250  12.7644370  28.3780650  91.2401910  14.6197500  16.1054560
  92.1651220  14.4878680  15.8972850  91.2177700  14.6990320  17.0591010
  91.3140400  15.3908160  18.7311270  90.5191900  15.3253280  19.2604180
  91.5183680  16.3258800  18.7196620  88.2558820  29.4299710  22.7249660
  88.8517890  29.1084280  22.0484080  88.5136970  28.9571530  23.5162930
  74.5557020  12.6898020  28.7087100  74.2071840  13.1461840  29.4745280
  74.2244720  11.7955150  28.7909530  76.1621390  25.8617620  32.8740290
  76.1191020  25.4910530  33.7554750  76.2932400  26.7995190  33.0142110
  79.8627420  27.4177210  28.4750010  79.6218780  27.6851770  27.5880530
  80.8030060  27.5882940  28.5300870  82.0681840  13.8809900  32.2306520
  82.0070730  14.4731730  32.9801930  83.0082220  13.7735860  32.0856780
  84.7056400  13.5379960  31.8698810  85.3196810  13.8559250  31.2079890
  85.2505960  13.0528550  32.4894670  91.1231580  29.4371590  29.2760650
  90.6289860  29.8340460  28.5587780  90.5144870  28.8120800  29.6697930
  75.2277660  12.2174220  31.9837870  75.7760650  12.0362270  31.2203980
  75.2932970  11.4268330  32.5194180  76.0009420  28.8079870  29.9938070
  75.4069740  28.6764570  30.7328110  75.9933260  27.9718010  29.5280170
  85.4464440  12.1012100  28.1968100  84.5724280  12.4347210  27.9941030
  85.3375190  11.6285280  29.0219970  86.3536420  14.3082970  29.5809820
  86.0249780  13.4934730  29.2011550  87.3018720  14.2652780  29.4575510
  88.8071030  30.0795010  26.5547390  88.3474000  30.8310820  26.1805410
  88.1783490  29.3601480  26.4962190  75.6321650  26.1738250  28.9446110
  74.9055710  25.5543540  28.8772060  75.6930800  26.5678860  28.0744190
  79.2366750  28.3883250  25.7295520  79.7531770  27.7770610  25.2043780
  79.8864130  28.8912030  26.2206530  81.9762250  29.2791740  26.5564500
  82.2640060  29.0246040  25.6797510  82.4885470  28.7269100  27.1470070
  83.1939260  13.0181940  27.1361010  82.4111050  13.4927440  27.4157770
  82.9002190  12.1136770  27.0274190  87.7460330  13.7205040  25.1810100
  88.1868420  13.6650140  24.3331700  87.4767920  14.6363050  25.2520280
  89.6098900  13.3520280  23.1918920  89.5487300  12.4081500  23.0449940
  90.3890930  13.4600370  23.7372380  73.9151650  29.4912640  22.1542870
  73.7473690  28.8583320  22.8524760  73.0486160  29.6972040  21.8037060
  74.5379670  13.3229420  19.6574730  75.2959030  13.4358300  19.0838760
  74.0756840  14.1598620  19.6118160  81.0793480  15.4368690  22.6477040
  80.2667990  15.0625580  22.3072920  81.5835120  14.6813770  22.9498230
  85.5818460  12.1011140  23.8860110  86.1847830  12.6731350  24.3608630
  84.8411450  12.6650580  23.6634010  88.7253060  12.5032700  19.1600390
  88.9203690  13.4016150  19.4267820  87.9382930  12.2719780  19.6533340
  75.5214350  28.1845870  19.5993010  74.9961970  28.5653900  18.8954970
  75.4458930  28.8096640  20.3202720  76.9104820  13.8493470  18.1976700
  77.4397580  13.0623270  18.0684650  77.5433140  14.5284660  18.4312230
  79.1042660  13.5868610  21.2522090  78.4745400  12.8855920  21.4192220
  78.5647800  14.3472740  21.0355250  82.0434610  30.2007840  33.9232700
  82.9701920  29.9652110  33.9668660  82.0285040  31.0279840  33.4418730
  90.2779670  29.7433410  20.9206950  90.4531860  29.0571150  20.2767870
  89.5801240  30.2680460  20.5283620  79.2298220  12.8652590  33.6874580
  78.9482490  13.3686190  32.9235400  79.6117920  12.0674340  33.3216710
  78.1207320  30.1328250  18.4742260  78.8526140  29.8487530  17.9266150
  78.3800990  29.8941530  19.3641640  77.2822110  26.2492980  18.4788590
  76.6530990  26.7178080  19.0274420  77.3969940  25.4042200  18.9134780
  85.8313680  12.2806170  34.2655050  85.7179130  12.6000780  35.1606570
  86.6483420  12.6818680  33.9692330  88.6112170  29.4277700  33.7473740
  89.4037490  28.9326930  33.5399700  88.9045320  30.1067840  34.3549350
  84.7371830  20.2998640   4.6289790  84.6565880  19.3853250   4.3581500
  84.3236250  20.7965710   3.9229500  82.8689870  22.0777660   6.5099060
  82.0931970  21.5978100   6.7997630  83.5202800  21.3983310   6.3355220
  76.8855700  22.3897470   7.3874820  76.0540580  22.1346180   7.7871330
  77.4936680  22.4608240   8.1232740  86.8897300  26.4837850   5.2898190
  86.4278830  25.7125090   5.6185360  87.7022850  26.5103920   5.7950640
  76.8656960  26.4237560   7.5832840  77.1685000  25.5335300   7.4043060
  77.6100550  26.9807780   7.3555090  73.2580660  19.9505010   7.0556910
  73.8296770  19.1827210   7.0560550  73.2582200  20.2493770   6.1463520
  83.1160610  28.7695860   4.9102180  82.4972050  29.2253360   4.3396620
  83.9712390  28.9247320   4.5091880  82.3098860  24.7534850   6.5169220
  82.2407140  23.8124790   6.3558350  83.0718720  24.8436260   7.0891790
  74.5005530  15.3589370   8.8425840  74.3208370  14.4615120   9.1228600
  74.0985610  15.9061240   9.5172790  83.3404030  17.5605230   6.7438150
  83.7168850  16.6877110   6.6311820  83.2423540  17.8963930   5.8528590
  77.4709040  15.9330860   2.2055590  77.5775790  16.8334590   2.5124350
  76.5601400  15.8848830   1.9150240  87.1228150  15.0555670   3.6766490
  87.9437770  14.5652240   3.7191970  87.1562230  15.6453330   4.4298330
  75.1192200  17.8549870   7.4508180  75.8002310  18.1188240   8.0695580
  74.8040250  17.0150740   7.7846190  79.3116770  18.9017230   6.5380770
  79.8194990  19.3998200   7.1785790  79.8430010  18.1252430   6.3620130
  91.4127700  17.0722420  10.2410120  90.7079870  17.4604130   9.7225230
  91.6785620  17.7672710  10.8431050  77.5952870  13.5415790  10.8044190
  77.5971310  14.0588180   9.9990090  76.7657180  13.0645970  10.7814120
  83.9823960  23.6535100   2.3034090  83.3641230  24.1184550   1.7396810
  84.4947210  24.3462580   2.7203600  78.8455720  23.1810970   8.9817690
  78.5125100  23.8079890   9.6238760  79.0222400  23.7072850   8.2019360
  87.3589630  16.9956050   6.4494030  86.6545200  17.2840940   7.0297140
  87.7201790  17.8056160   6.0893590  77.2768200  15.2525750   8.8114640
  77.6185010  16.0967800   8.5168510  76.3384010  15.4009490   8.9279980
  78.0574820  25.1491770  10.7966870  78.6748820  25.8242850  10.5151320
  77.1967940  25.5579750  10.7054370  88.9752410  26.6131180   8.7121510
  88.2915930  27.2830290   8.7038180  89.5146700  26.8111830   7.9466370
  90.4276550  16.4410840   6.8403240  89.4801460  16.4749820   6.9718670
  90.7526540  17.2549790   7.2252600  80.9596090  12.7408020   5.1359230
  81.2671070  12.1854910   4.4194730  80.0296790  12.8752480   4.9532220
  86.5111150  28.4575310   7.4266690  86.5238310  28.0537600   6.5588950
  85.9586370  29.2322600   7.3228120  87.8056570  25.1791530   2.5156860
  87.6952900  24.2365860   2.6406280  87.8024820  25.5407170   3.4019620
  85.9096590  23.3605150   8.7549300  86.3265380  23.1465260   7.9202760
  86.6336410  23.6177940   9.3257920  83.3476850  20.8056850   1.8719350
  82.4206130  20.7394230   2.1007820  83.5001670  21.7436980   1.7574590
  89.8558690  21.7592370   8.8465540  89.0277320  21.8285460   8.3715670
  90.4509170  22.3446680   8.3781370  87.3774140  22.3677150   2.3754600
  86.7586560  22.0296700   1.7280900  87.3598590  21.7236910   3.0833790
  86.8200700  18.5461690   9.7920410  86.4071880  19.3715400  10.0460400
  86.0876650  17.9606730   9.5996770  78.9533490  21.3321590   4.6539080
  78.5490490  20.6198840   4.1584980  79.0396610  20.9874830   5.5427120
  79.4215190  25.0189150   6.8178290  79.1243480  24.4134620   6.1386070
  80.3715010  25.0566460   6.7067650  77.6662110  18.1064800   8.4338120
  78.2176700  18.2160140   7.6591370  78.1805620  18.4802400   9.1493350
  87.5100800  28.5921020  10.4801390  87.0331360  29.3993210  10.2874000
  86.8262590  27.9399350  10.6327600  78.5133620  24.7570840  13.4686090
  77.6162150  24.9810810  13.7159490  78.5386490  24.8805780  12.5197490
  77.3404840  21.6284160  12.0443460  77.2012610  22.5006960  12.4130860
  76.4586200  21.2856970  11.8991400  83.6634220  26.5460030   3.3508590
  84.1030130  27.2884360   2.9363980  83.6021110  26.7886600   4.2747550
  79.1385190  27.5705860  14.2528610  79.1100620  27.9748810  13.3857040
  78.9750160  26.6416220  14.0900210  75.6538120  20.2266570   2.1545730
  75.5335720  20.9528660   1.5427000  75.3439010  19.4569480   1.6773640
  91.0900010  28.3532960  15.5492780  91.5659730  28.8315850  16.2281860
  91.7107170  28.2850450  14.8238280  73.2923490  23.3981710   7.9614370
  73.3703910  23.5330480   7.0170090  73.9065170  22.6897600   8.1542490
  74.5371120  25.0981900   4.3720550  74.1299200  25.2396490   3.5174150
  75.4284130  24.8142060   4.1691760  90.4933260  25.5445810  12.7092790
  90.6196320  25.3057690  11.7909970  90.5354640  24.7130350  13.1814870
  84.3550000  29.2473810  11.2787600  84.8694670  29.1581820  12.0810030
  83.5119080  29.5933510  11.5715510  78.8092780  29.3127680   2.4843220
  78.6335260  28.3963220   2.2711020  77.9548520  29.6714970   2.7241020
  85.5980460  28.6679420   3.3418090  86.0537410  27.8868800   3.6556710
  85.9372980  29.3786240   3.8859270  90.3457270  17.5978270  13.6742530
  89.7301540  18.1057940  13.1457990  90.0253690  16.6976600  13.6168470
  73.3483010  24.4395880  10.5008830  73.5114050  23.9701240   9.6828200
  73.8135460  23.9319440  11.1657670  78.1201780  13.5701640   5.5369400
  77.6769930  14.3511180   5.2053920  78.6786770  13.8931530   6.2440340
  82.4071590  16.4370160  11.1404720  81.9450960  16.6453180  11.9524660
  82.0049700  15.6229510  10.8375390  87.4076100  17.6579110  12.2701380
  86.5569690  17.3584860  12.5910450  87.2477890  17.9021120  11.3585200
  84.5025810  19.1580860  14.3700170  84.8279220  18.3244610  14.0302400
  85.2906140  19.6809380  14.5178500  80.1577680  14.1148970   7.3959000
  80.4550010  15.0211800   7.3151020  80.7063240  13.6267750   6.7818570
  77.9116000  18.6935210   3.2650650  77.6856920  18.4772380   4.1697270
  77.1308530  19.1263670   2.9196620  80.3515210  19.5920790  13.9310920
  80.2558810  18.6515520  13.7811320  81.1947190  19.8135860  13.5358990
  83.7478630  17.3362120   3.8944580  84.1408200  17.6534320   3.0813270
  84.1095480  16.4574000   4.0089100  75.4825750  16.0034460  12.0844700
  75.0889140  16.8509670  12.2917480  74.7944150  15.3660830  12.2753340
  82.0570800  16.0869430  15.1541440  81.3669120  15.8941630  15.7887530
  82.8003100  16.3704070  15.6865740  72.7842800  13.9262920   6.1174780
  72.4955850  14.4965780   6.8299760  73.5288560  13.4467370   6.4806010
  84.3333770  19.9267870   7.9895360  83.6014890  20.4354680   8.3385460
  83.9358110  19.1097850   7.6884140  80.7711160  16.6022070   6.3947850
  80.7747220  16.1612020   5.5452390  81.6662280  16.9239400   6.5019670
  76.6213540  16.4848560   5.3542060  76.2813590  16.9623790   6.1109110
  75.8590860  16.0313680   4.9943160  84.7959680  15.3801550   7.4018300
  84.8132420  15.8310200   8.2460150  84.5475260  14.4807190   7.6151740
  88.2230430  12.7933730  13.2404680  88.5476200  12.0623390  13.7662660
  88.2586940  12.4747370  12.3385670  74.9221990  23.8147310  12.6604640
  74.5376780  23.1740980  13.2587600  75.2334180  24.5183430  13.2299370
  81.0719130  20.6623850   8.1413260  81.4389260  20.1882420   8.8874600
  80.8824190  21.5365420   8.4821600  73.9359620  15.4067540   4.2706730
  73.6506540  15.0423210   5.1085350  73.8738480  14.6748000   3.6569870
  78.8618500  19.7032490  10.4597470  78.5575570  20.5824470  10.6847830
  79.8164960  19.7632280  10.4954910  88.1488270  22.9058840   6.8490710
  88.8687390  23.4014130   6.4586820  87.9470090  22.2276730   6.2044580
  83.5307070  22.9767900  12.7359710  83.4644380  22.0563570  12.4817300
  82.9012210  23.0743340  13.4504350  77.4337690  23.5773860   4.6943130
  77.9516360  22.7742120   4.6400020  76.9821710  23.5153000   5.5359960
  74.9182230  20.5435230  11.6068830  74.5597170  21.2089080  12.1942170
  74.6236790  19.7118780  11.9781450  78.1195350  21.0019470  14.4908380
  77.8195490  21.1476650  13.5936200  78.8906590  20.4424760  14.3981770
  83.4623800  25.7988470  12.4863510  83.4768340  24.8669430  12.2682420
  82.7548900  25.8848230  13.1253280  89.6735010  22.4395810  11.8332090
  88.9483200  23.0324590  11.6361480  90.2010470  22.4319350  11.0345460
  85.2034600  24.1655980   5.3315940  85.5558420  23.5684110   4.6717310
  84.3196930  23.8400210   5.5024190  81.2897880  24.9253670   2.7386350
  81.9769010  25.4722880   3.1193940  80.5030300  25.4694400   2.7735960
  80.5925090  21.9299700   2.3511710  81.0487870  22.7404950   2.5771900
  80.2413300  21.6122840   3.1830200  82.8957700  27.4406040   9.5804010
  83.5399920  27.6465420  10.2577430  83.2587140  26.6794440   9.1274860
  76.4936870  12.2737350   2.8234230  76.3651500  12.2655250   3.7719150
  75.6698890  12.6120440   2.4725240  84.1689780  25.4438390   8.2981460
  84.8112010  24.7431550   8.4113630  84.6939130  26.2236830   8.1178350
  85.9427400  26.2433290  11.5017520  86.2783640  26.8299980  12.1795440
  85.0227740  26.1126000  11.7315310  73.4930800  14.0328470  12.2840930
  72.7789320  14.2325390  12.8893540  73.9125840  13.2568040  12.6555730
  73.7803390  28.0208730  13.2707460  73.8894510  27.0803470  13.1302850
  73.1283950  28.2863480  12.6221190  81.7715980  26.2924620  14.6705580
  81.4512850  25.5733860  15.2151270  81.0974340  26.9679690  14.7441640
  84.9869580  16.5250780  10.0342380  85.3550400  15.7045990  10.3621950
  84.1267780  16.5852670  10.4498030  80.3215640  17.7593670   2.2587820
  79.6131790  18.2280010   2.7001430  80.6060120  17.1015680   2.8933010
  81.9471570  19.1790370  10.2580350  82.4456820  19.6536190  10.9232200
  82.0894520  18.2553890  10.4650380  84.3531070  14.4844330   3.6983610
  84.2298850  14.5030460   2.7493120  85.3015630  14.5323270   3.8182010
  81.4407860  29.7199630   2.9711590  81.6949360  29.6821020   2.0490960
  80.4920340  29.5932960   2.9639840  89.1538430  15.3958330  11.1008740
  88.6512030  16.1363730  11.4402550  89.9695090  15.7842330  10.7845530
  87.4460440  20.6391510   4.5470100  86.5050580  20.6541740   4.7217790
  87.7604510  19.8527470   4.9930400  89.4486020  27.8100360   6.2224360
  89.5733440  28.6331530   6.6948170  90.3151580  27.5991090   5.8748510
  76.9203550  29.9031570   5.8941490  77.6566030  29.3547030   6.1650060
  77.3044470  30.7687580   5.7547480  73.8049030  25.9705140   1.7683000
  72.8788810  26.2126280   1.7588410  74.2705460  26.7979400   1.6467750
  75.9261830  29.0877640  15.0827070  76.7274560  29.4089690  15.4962470
  75.4113650  28.7273220  15.8046980  84.7626460  25.1957510  15.0302480
  84.1564620  25.2189110  14.2898230  84.4580570  24.4640550  15.5669730
  86.1926830  28.9237800  13.6411890  87.1448580  28.8395820  13.5912130
  86.0455050  29.5879510  14.3145680  73.6459640  21.5751100  14.0263120
  74.1498660  20.9958380  14.5979350  72.9067060  21.8591330  14.5639490
  80.6997580  22.9822090  13.5598640  79.9343250  23.5507090  13.4753310
  80.8813540  22.6898300  12.6666870  87.8420930  24.7127420  14.1173660
  88.5830400  25.0503180  13.6141120  87.0793610  24.8819480  13.5643430
  75.6782720  19.7180690  14.9213190  75.7188060  19.4194560  15.8298420
  76.5328220  20.1188300  14.7620710  77.6188530  18.2972790  12.8887680
  77.0884990  17.8063740  12.2611020  78.2876600  18.7256990  12.3545610
  86.5166590  22.7642250  12.6528870  86.9307610  22.9187330  13.5019290
  85.5817590  22.8897470  12.8154650  86.9888760  20.1038410  14.6568020
  87.5709530  19.3490730  14.5688500  87.1650530  20.6345850  13.8799500
  78.1060830  15.2635160  12.9684970  78.0117700  14.6455910  12.2435840
  77.5258220  15.9901450  12.7414880  80.8722270  13.8208400  10.0012360
  80.4239570  13.8432660   9.1557910  80.2387470  13.4227420  10.5982660
  81.2781820  22.7162730  10.6224800  81.6969930  23.5595460  10.4501040
  80.3590450  22.8534770  10.3931580  83.6145720  20.4478910  12.0062640
  83.7341930  19.8520050  12.7457480  84.4739720  20.4848600  11.5863940
  85.9533620  21.0016100  10.5825150  85.4268840  21.5258720   9.9790290
  86.2964960  21.6343490  11.2134880  79.1289240  29.0215740  11.7382530
  78.5910330  29.7461800  11.4191230  79.3823200  28.5446080  10.9479870
  80.3814490  16.9900260  13.2638460  80.9714180  16.6816110  13.9516280
  79.5634730  16.5180010  13.4198360  85.2007920  16.6066070  13.4971480
  84.5123440  15.9447610  13.4321470  85.9213940  16.1604340  13.9419940
  81.9851450  30.2566950  11.9969180  81.9110150  31.1602090  12.3041550
  81.0830290  29.9378850  11.9691250  73.3878740  27.5841540   5.3002800
  73.7181750  26.7162600   5.0681440  73.8169740  27.7900060   6.1307760
  77.9840660  25.9150550   2.9604770  77.6836200  25.7915520   3.8608680
  77.8778150  25.0559140   2.5520500  73.8768950  28.4512130   8.0384430
  73.4399940  28.6312930   8.8708580  74.4446630  29.2086750   7.8966150
  89.5131130  27.9529130  12.3261740  88.9133120  28.0121690  11.5825660
  89.6425030  27.0134110  12.4558590  73.7093380  20.9632360   4.3973310
  73.0542220  20.6944000   3.7533010  74.5471330  20.8536840   3.9475290
  91.2149010  23.2944530   5.0107580  91.5857840  22.5111850   4.6043550
  91.8550940  23.9833630   4.8324880  88.1982770  24.6781110  10.4237900
  87.3842610  25.1078270  10.6863690  88.6056970  25.2899520   9.8106950
  90.1573550  20.6697790   2.3167600  89.7817150  19.9025720   1.8848890
  89.4276670  21.0520490   2.8042530  74.7469310  21.3484930   8.9376650
  75.1142350  21.2612330   9.8172670  74.1780130  20.5851480   8.8383510
  89.5473170  19.8169310  11.9507120  89.3159260  19.5882060  11.0505070
  89.8077720  20.7368860  11.9052010  74.2985310  18.2594020  12.8435070
  73.4041360  18.2260780  13.1828780  74.8382860  18.4580810  13.6086320
  87.9861240  15.0425740  14.7286820  88.8631420  15.0509140  15.1120820
  87.9982080  14.3056580  14.1179170  89.4324510  18.8955280   5.6174840
  89.9561990  18.4017930   4.9865010  90.0183930  19.0305640   6.3622410
  89.6114230  18.9795150   9.1394390  88.6616940  18.9458690   9.2539380
  89.7927240  19.8895260   8.9044160  74.8025020  12.5342350   7.1918290
  75.4501210  11.9839730   6.7513450  75.2226860  12.7885500   8.0134100
  90.3511640  16.7889580   4.0904930  90.2410920  16.6345620   5.0287200
  91.1119230  16.2610520   3.8480340  88.6977360  12.7283710  10.5487930
  89.3349580  13.3417850  10.9147120  88.8452250  12.7644370   9.6037160
  88.2558820  29.4299710   3.9506170  88.8517890  29.1084280   3.2740590
  88.5136970  28.9571530   4.7419440  74.5557020  12.6898020   9.9343610
  74.2071840  13.1461840  10.7001790  74.2244720  11.7955150  10.0166040
  76.1621390  25.8617620  14.0996800  76.1191020  25.4910530  14.9811260
  76.2932400  26.7995190  14.2398620  79.8627420  27.4177210   9.7006520
  79.6218780  27.6851770   8.8137040  80.8030060  27.5882940   9.7557380
  82.0681840  13.8809900  13.4563030  82.0070730  14.4731730  14.2058440
  83.0082220  13.7735860  13.3113290  84.7056400  13.5379960  13.0955320
  85.3196810  13.8559250  12.4336400  85.2505960  13.0528550  13.7151180
  91.1231580  29.4371590  10.5017160  90.6289860  29.8340460   9.7844290
  90.5144870  28.8120800  10.8954440  75.2277660  12.2174220  13.2094380
  75.7760650  12.0362270  12.4460490  75.2932970  11.4268330  13.7450690
  76.0009420  28.8079870  11.2194580  75.4069740  28.6764570  11.9584620
  75.9933260  27.9718010  10.7536680  85.4464440  12.1012100   9.4224610
  84.5724280  12.4347210   9.2197540  85.3375190  11.6285280  10.2476480
  86.3536420  14.3082970  10.8066330  86.0249780  13.4934730  10.4268060
  87.3018720  14.2652780  10.6832020  88.8071030  30.0795010   7.7803900
  88.3474000  30.8310820   7.4061920  88.1783490  29.3601480   7.7218700
  75.6321650  26.1738250  10.1702620  74.9055710  25.5543540  10.1028570
  75.6930800  26.5678860   9.3000700  79.2366750  28.3883250   6.9552030
  79.7531770  27.7770610   6.4300290  79.8864130  28.8912030   7.4463040
  81.9762250  29.2791740   7.7821010  82.2640060  29.0246040   6.9054020
  82.4885470  28.7269100   8.3726580  83.1939260  13.0181940   8.3617520
  82.4111050  13.4927440   8.6414280  82.9002190  12.1136770   8.2530700
  87.7460330  13.7205040   6.4066610  88.1868420  13.6650140   5.5588210
  87.4767920  14.6363050   6.4776790  89.6098900  13.3520280   4.4175430
  89.5487300  12.4081500   4.2706450  90.3890930  13.4600370   4.9628890
  73.9151650  29.4912640   3.3799380  73.7473690  28.8583320   4.0781270
  73.0486160  29.6972040   3.0293570  81.0793480  15.4368690   3.8733550
  80.2667990  15.0625580   3.5329430  81.5835120  14.6813770   4.1754740
  85.5818460  12.1011140   5.1116620  86.1847830  12.6731350   5.5865140
  84.8411450  12.6650580   4.8890520  79.1042660  13.5868610   2.4778600
  78.4745400  12.8855920   2.6448730  78.5647800  14.3472740   2.2611760
  82.0434610  30.2007840  15.1489210  82.9701920  29.9652110  15.1925170
  82.0285040  31.0279840  14.6675240  90.2779670  29.7433410   2.1463460
  90.4531860  29.0571150   1.5024380  89.5801240  30.2680460   1.7540130
  79.2298220  12.8652590  14.9131090  78.9482490  13.3686190  14.1491910
  79.6117920  12.0674340  14.5473220  85.8313680  12.2806170  15.4911560
  85.7179130  12.6000780  16.3863080  86.6483420  12.6818680  15.1948840
  88.6112170  29.4277700  14.9730250  89.4037490  28.9326930  14.7656210
  88.9045320  30.1067840  15.5805860  82.8689870   3.3034170 100.3816510
  82.0931970   2.8234610 100.6715080  83.5202800   2.6239820 100.2072670
  76.8855700   3.6153980 101.2592270  76.0540580   3.3602690 101.6588780
  77.4936680   3.6864750 101.9950190  86.8897300   7.7094360  99.1615640
  86.4278830   6.9381600  99.4902810  87.7022850   7.7360430  99.6668090
  76.8656960   7.6494070 101.4550290  77.1685000   6.7591810 101.2760510
  77.6100550   8.2064290 101.2272540  83.1160610   9.9952370  98.7819630
  82.4972050  10.4509870  98.2114070  83.9712390  10.1503830  98.3809330
  82.3098860   5.9791360 100.3886670  82.2407140   5.0381300 100.2275800
  83.0718720   6.0692770 100.9609240  83.9823960   4.8791610  96.1751540
  83.3641230   5.3441060  95.6114260  84.4947210   5.5719090  96.5921050
  78.8455720   4.4067480 102.8535140  78.5125100   5.0336400 103.4956210
  79.0222400   4.9329360 102.0736810  78.0574820   6.3748280 104.6684320
  78.6748820   7.0499360 104.3868770  77.1967940   6.7836260 104.5771820
  73.3507160   5.5648140  93.5491170  72.9735140   6.0535240  92.8176070
  73.6080230   6.2373420  94.1797700  88.9752410   7.8387690 102.5838960
  88.2915930   8.5086800 102.5755630  89.5146700   8.0368340 101.8183820
  86.5111150   9.6831820 101.2984140  86.5238310   9.2794110 100.4306400
  85.9586370  10.4579110 101.1945570  87.8056570   6.4048040  96.3874310
  87.6952900   5.4622370  96.5123730  87.8024820   6.7663680  97.2737070
  85.9096590   4.5861660 102.6266750  86.3265380   4.3721770 101.7920210
  86.6336410   4.8434450 103.1975370  83.3476850   2.0313360  95.7436800
  82.4206130   1.9650740  95.9725270  83.5001670   2.9693490  95.6292040
  89.8558690   2.9848880 102.7182990  89.0277320   3.0541970 102.2433120
  90.4509170   3.5703190 102.2498820  87.3774140   3.5933660  96.2472050
  86.7586560   3.2553210  95.5998350  87.3598590   2.9493420  96.9551240
  78.9533490   2.5578100  98.5256530  78.5490490   1.8455350  98.0302430
  79.0396610   2.2131340  99.4144570  79.4215190   6.2445660 100.6895740
  79.1243480   5.6391130 100.0103520  80.3715010   6.2822970 100.5785100
  87.5100800   9.8177530 104.3518840  87.0331360  10.6249720 104.1591450
  86.8262590   9.1655860 104.5045050  85.5538840   2.8320470  93.2544800
  85.9932120   1.9942900  93.1082620  86.2667260   3.4649870  93.3408940
  83.6634220   7.7716540  97.2226040  84.1030130   8.5140870  96.8081430
  83.6021110   8.0143110  98.1465000  73.2923490   4.6238220 101.8331820
  73.3703910   4.7586990 100.8887540  73.9065170   3.9154110 102.0259940
  74.5371120   6.3238410  98.2438000  74.1299200   6.4653000  97.3891600
  75.4284130   6.0398570  98.0409210  86.3304400  10.7585660  94.5789050
  86.1705540  10.4688600  95.4770880  86.1651110   9.9825790  94.0434280
  78.8092780  10.5384190  96.3560670  78.6335260   9.6219730  96.1428470
  77.9548520  10.8971480  96.5958470  86.0330530   8.2673220  93.1387050
  85.3395690   8.2650510  92.4789330  86.7753390   7.8432540  92.7081220
  85.5980460   9.8935930  97.2135540  86.0537410   9.1125310  97.5274160
  85.9372980  10.6042750  97.7576720  77.3900290   5.1349990  94.9281770
  76.6162550   4.5947610  94.7680490  78.1194920   4.6156600  94.5899530
  88.1488270   4.1315350 100.7208160  88.8687390   4.6270640 100.3304270
  87.9470090   3.4533240 100.0762030  77.4337690   4.8030370  98.5660580
  77.9516360   3.9998630  98.5117470  76.9821710   4.7409510  99.4077410
  82.3207190   6.0696650  93.8387880  82.6622890   6.8138880  93.3431200
  81.4919900   6.3827770  94.2012710  89.6248120   8.0627060  95.3561700
  88.9824280   7.4082680  95.6305420  89.2378780   8.4682150  94.5802370
  85.2034600   5.3912490  99.2033390  85.5558420   4.7940620  98.5434760
  84.3196930   5.0656720  99.3741640  81.2897880   6.1510180  96.6103800
  81.9769010   6.6979390  96.9911390  80.5030300   6.6950910  96.6453410
  73.4290280   1.7683000  92.1020880  74.2985130   2.0507800  92.3856800
  72.9380600   2.5818870  91.9869690  80.5925090   3.1556210  96.2229160
  81.0487870   3.9661460  96.4489350  80.2413300   2.8379350  97.0547650
  82.8957700   8.6662550 103.4521460  83.5399920   8.8721930 104.1294880
  83.2587140   7.9050950 102.9992310  84.1689780   6.6694900 102.1698910
  84.8112010   5.9688060 102.2831080  84.6939130   7.4493340 101.9895800
  88.0145500   6.9543520  91.8938050  87.7883080   6.2373960  92.4862690
  87.6241700   6.7055960  91.0559800  73.7961530  10.9810380  92.6682510
  74.1559170  11.5799720  92.0139780  73.6553870  11.5270270  93.4417540
  87.5961750   4.8715460  93.5552210  87.3083450   5.3328150  94.3430090
  88.3913920   4.4113230  93.8236430  79.8130150   8.3641580  93.4856180
  79.8040250   9.0971270  92.8700690  78.8928510   8.1173160  93.5783140
  75.4136790   3.5856470  94.2302940  74.8064740   4.3255370  94.2398240
  75.8886140   3.6755830  93.4041140  82.7989750   8.4269820  92.1481370
  82.9001730   8.2233810  91.2183350  81.8991490   8.1728100  92.3529150
  81.4407860  10.9456140  96.8429040  81.6949360  10.9077530  95.9208410
  80.4920340  10.8189470  96.8357290  77.4242080   3.5467620  91.9791510
  78.1905350   3.4348980  92.5416940  77.5016770   2.8505590  91.3268280
  89.4486020   9.0356870 100.0941810  89.5733440   9.8588040 100.5665620
  90.3151580   8.8247600  99.7465960  76.9203550  11.1288080  99.7658940
  77.6566030  10.5803540 100.0367510  77.3044470  11.9944090  99.6264930
  73.8049030   7.1961650  95.6400450  72.8788810   7.4382790  95.6305860
  74.2705460   8.0235910  95.5185200  80.0305860  10.3018390  91.5884510
  80.8234470  10.5907220  91.1366300  79.5110210   9.8710560  90.9096990
  89.0836030   9.5288520  93.0121250  88.7977540   9.1153660  92.1975430
  88.8855580  10.4576230  92.8921770  80.5483260   5.5221800  91.4526860
  80.4433900   4.9074150  92.1788240  80.3807480   4.9987690  90.6689870
  83.7885990   4.5841830  92.0568850  83.2396090   5.0311130  92.7011590
  84.4105250   4.0791080  92.5806520  79.4561110   3.5432750  93.9534150
  79.8777530   3.3772620  94.7965540  79.5811950   2.7332980  93.4589290
  81.9688750   2.5670360  91.2011250  82.4894410   1.8519380  90.8352400
  82.6157150   3.2056230  91.5011760  81.2781820   3.9419240 104.4942250
  81.6969930   4.7851970 104.3218490  80.3590450   4.0791280 104.2649030
  82.5336780  10.6481970  93.4912990  83.4287570  10.9866940  93.5131750
  82.5654410   9.9261380  92.8637270  76.1732940   6.0209020  91.7199990
  76.6107810   6.5638690  92.3757570  76.6580670   5.1955970  91.7296330
  73.3878740   8.8098050  99.1720250  73.7181750   7.9419110  98.9398890
  73.8169740   9.0156570 100.0025210  77.9840660   7.1407060  96.8322220
  77.6836200   7.0172030  97.7326130  77.8778150   6.2815650  96.4237950
  73.8768950   9.6768640 101.9101880  73.4399940   9.8569440 102.7426030
  74.4446630  10.4343260 101.7683600  90.7532580   6.9203460  91.5348900
  89.9225540   6.9880110  92.0056130  90.9304410   7.8107580  91.2315760
  90.2089040   3.6650940  94.0383100  90.9707950   4.2347590  94.1442790
  90.2243410   3.0978140  94.8091410  73.7093380   2.1888870  98.2690760
  73.0542220   1.9200510  97.6250460  74.5471330   2.0793350  97.8192740
  91.2149010   4.5201040  98.8825030  91.5857840   3.7368360  98.4761000
  91.8550940   5.2090140  98.7042330  88.1982770   5.9037620 104.2955350
  87.3842610   6.3334780 104.5581140  88.6056970   6.5156030 103.6824400
  90.2608210   3.9585310  91.1955620  90.5357050   4.8664190  91.0674840
  90.0718950   3.8947840  92.1317610  74.7469310   2.5741440 102.8094100
  75.1142350   2.4868840 103.6890120  74.1780130   1.8107990 102.7100960
  88.2558820  10.6556220  97.8223620  88.8517890  10.3340790  97.1458040
  88.5136970  10.1828040  98.6136890  79.8627420   8.6433720 103.5723970
  79.6218780   8.9108280 102.6854490  80.8030060   8.8139450 103.6274830
  91.1231580  10.6628100 104.3734610  90.6289860  11.0596970 103.6561740
  90.5144870  10.0377310 104.7671890  88.8071030  11.3051520 101.6521350
  88.3474000  12.0567330 101.2779370  88.1783490  10.5857990 101.5936150
  75.6321650   7.3994760 104.0420070  74.9055710   6.7800050 103.9746020
  75.6930800   7.7935370 103.1718150  79.2366750   9.6139760 100.8269480
  79.7531770   9.0027120 100.3017740  79.8864130  10.1168540 101.3180490
  81.9762250  10.5048250 101.6538460  82.2640060  10.2502550 100.7771470
  82.4885470   9.9525610 102.2444030  73.9151650  10.7169150  97.2516830
  73.7473690  10.0839830  97.9498720  73.0486160  10.9228550  96.9011020
  75.5214350   9.4102380  94.6966970  74.9961970   9.7910410  93.9928930
  75.4458930  10.0353150  95.4176680  90.2779670  10.9689920  96.0180910
  90.4531860  10.2827660  95.3741830  89.5801240  11.4936970  95.6257580
  78.1207320  11.3584760  93.5716220  78.8526140  11.0744040  93.0240110
  78.3800990  11.1198040  94.4615600  77.2822110   7.4749490  93.5762550
  76.6530990   7.9434590  94.1248380  77.3969940   6.6298710  94.0108740
  82.8689870   3.3034170  81.6073020  82.0931970   2.8234610  81.8971590
  83.5202800   2.6239820  81.4329180  76.8855700   3.6153980  82.4848780
  76.0540580   3.3602690  82.8845290  77.4936680   3.6864750  83.2206700
  86.8897300   7.7094360  80.3872150  86.4278830   6.9381600  80.7159320
  87.7022850   7.7360430  80.8924600  76.8656960   7.6494070  82.6806800
  77.1685000   6.7591810  82.5017020  77.6100550   8.2064290  82.4529050
  83.1160610   9.9952370  80.0076140  82.4972050  10.4509870  79.4370580
  83.9712390  10.1503830  79.6065840  82.3098860   5.9791360  81.6143180
  82.2407140   5.0381300  81.4532310  83.0718720   6.0692770  82.1865750
  83.9823960   4.8791610  77.4008050  83.3641230   5.3441060  76.8370770
  84.4947210   5.5719090  77.8177560  78.8455720   4.4067480  84.0791650
  78.5125100   5.0336400  84.7212720  79.0222400   4.9329360  83.2993320
  78.0574820   6.3748280  85.8940830  78.6748820   7.0499360  85.6125280
  77.1967940   6.7836260  85.8028330  73.3507160   5.5648140  74.7747680
  72.9735140   6.0535240  74.0432580  73.6080230   6.2373420  75.4054210
  88.9752410   7.8387690  83.8095470  88.2915930   8.5086800  83.8012140
  89.5146700   8.0368340  83.0440330  86.5111150   9.6831820  82.5240650
  86.5238310   9.2794110  81.6562910  85.9586370  10.4579110  82.4202080
  87.8056570   6.4048040  77.6130820  87.6952900   5.4622370  77.7380240
  87.8024820   6.7663680  78.4993580  85.9096590   4.5861660  83.8523260
  86.3265380   4.3721770  83.0176720  86.6336410   4.8434450  84.4231880
  83.3476850   2.0313360  76.9693310  82.4206130   1.9650740  77.1981780
  83.5001670   2.9693490  76.8548550  89.8558690   2.9848880  83.9439500
  89.0277320   3.0541970  83.4689630  90.4509170   3.5703190  83.4755330
  87.3774140   3.5933660  77.4728560  86.7586560   3.2553210  76.8254860
  87.3598590   2.9493420  78.1807750  78.9533490   2.5578100  79.7513040
  78.5490490   1.8455350  79.2558940  79.0396610   2.2131340  80.6401080
  79.4215190   6.2445660  81.9152250  79.1243480   5.6391130  81.2360030
  80.3715010   6.2822970  81.8041610  87.5100800   9.8177530  85.5775350
  87.0331360  10.6249720  85.3847960  86.8262590   9.1655860  85.7301560
  78.5133620   5.9827350  88.5660050  77.6162150   6.2067320  88.8133450
  78.5386490   6.1062290  87.6171450  85.5538840   2.8320470  74.4801310
  85.9932120   1.9942900  74.3339130  86.2667260   3.4649870  74.5665450
  77.3404840   2.8540670  87.1417420  77.2012610   3.7263470  87.5104820
  76.4586200   2.5113480  86.9965360  83.6634220   7.7716540  78.4482550
  84.1030130   8.5140870  78.0337940  83.6021110   8.0143110  79.3721510
  79.1385190   8.7962370  89.3502570  79.1100620   9.2005320  88.4831000
  78.9750160   7.8672730  89.1874170  91.0900010   9.5789470  90.6466740
  91.5659730  10.0572360  91.3255820  91.7107170   9.5106960  89.9212240
  73.2923490   4.6238220  83.0588330  73.3703910   4.7586990  82.1144050
  73.9065170   3.9154110  83.2516450  74.5371120   6.3238410  79.4694510
  74.1299200   6.4653000  78.6148110  75.4284130   6.0398570  79.2665720
  90.4933260   6.7702320  87.8066750  90.6196320   6.5314200  86.8883930
  90.5354640   5.9386860  88.2788830  84.3550000  10.4730320  86.3761560
  84.8694670  10.3838330  87.1783990  83.5119080  10.8190020  86.6689470
  86.3304400  10.7585660  75.8045560  86.1705540  10.4688600  76.7027390
  86.1651110   9.9825790  75.2690790  78.8092780  10.5384190  77.5817180
  78.6335260   9.6219730  77.3684980  77.9548520  10.8971480  77.8214980
  86.0330530   8.2673220  74.3643560  85.3395690   8.2650510  73.7045840
  86.7753390   7.8432540  73.9337730  85.5980460   9.8935930  78.4392050
  86.0537410   9.1125310  78.7530670  85.9372980  10.6042750  78.9833230
  73.3483010   5.6652390  85.5982790  73.5114050   5.1957750  84.7802160
  73.8135460   5.1575950  86.2631630  74.9221990   5.0403820  87.7578600
  74.5376780   4.3997490  88.3561560  75.2334180   5.7439940  88.3273330
  77.3900290   5.1349990  76.1538280  76.6162550   4.5947610  75.9937000
  78.1194920   4.6156600  75.8156040  88.1488270   4.1315350  81.9464670
  88.8687390   4.6270640  81.5560780  87.9470090   3.4533240  81.3018540
  83.5307070   4.2024410  87.8333670  83.4644380   3.2820080  87.5791260
  82.9012210   4.2999850  88.5478310  77.4337690   4.8030370  79.7917090
  77.9516360   3.9998630  79.7373980  76.9821710   4.7409510  80.6333920
  82.3207190   6.0696650  75.0644390  82.6622890   6.8138880  74.5687710
  81.4919900   6.3827770  75.4269220  78.1195350   2.2275980  89.5882340
  77.8195490   2.3733160  88.6910160  78.8906590   1.6681270  89.4955730
  83.4623800   7.0244980  87.5837470  83.4768340   6.0925940  87.3656380
  82.7548900   7.1104740  88.2227240  89.6735010   3.6652320  86.9306050
  88.9483200   4.2581100  86.7335440  90.2010470   3.6575860  86.1319420
  89.6248120   8.0627060  76.5818210  88.9824280   7.4082680  76.8561930
  89.2378780   8.4682150  75.8058880  85.2034600   5.3912490  80.4289900
  85.5558420   4.7940620  79.7691270  84.3196930   5.0656720  80.5998150
  81.2897880   6.1510180  77.8360310  81.9769010   6.6979390  78.2167900
  80.5030300   6.6950910  77.8709920  73.4290280   1.7683000  73.3277390
  74.2985130   2.0507800  73.6113310  72.9380600   2.5818870  73.2126200
  80.5925090   3.1556210  77.4485670  81.0487870   3.9661460  77.6745860
  80.2413300   2.8379350  78.2804160  82.8957700   8.6662550  84.6777970
  83.5399920   8.8721930  85.3551390  83.2587140   7.9050950  84.2248820
  84.1689780   6.6694900  83.3955420  84.8112010   5.9688060  83.5087590
  84.6939130   7.4493340  83.2152310  88.0145500   6.9543520  73.1194560
  87.7883080   6.2373960  73.7119200  87.6241700   6.7055960  72.2816310
  85.9427400   7.4689800  86.5991480  86.2783640   8.0556490  87.2769400
  85.0227740   7.3382510  86.8289270  73.7961530  10.9810380  73.8939020
  74.1559170  11.5799720  73.2396290  73.6553870  11.5270270  74.6674050
  87.5961750   4.8715460  74.7808720  87.3083450   5.3328150  75.5686600
  88.3913920   4.4113230  75.0492940  73.7803390   9.2465240  88.3681420
  73.8894510   8.3059980  88.2276810  73.1283950   9.5119990  87.7195150
  81.7715980   7.5181130  89.7679540  81.4512850   6.7990370  90.3125230
  81.0974340   8.1936200  89.8415600  79.8130150   8.3641580  74.7112690
  79.8040250   9.0971270  74.0957200  78.8928510   8.1173160  74.8039650
  75.4136790   3.5856470  75.4559450  74.8064740   4.3255370  75.4654750
  75.8886140   3.6755830  74.6297650  82.7989750   8.4269820  73.3737880
  82.9001730   8.2233810  72.4439860  81.8991490   8.1728100  73.5785660
  81.4407860  10.9456140  78.0685550  81.6949360  10.9077530  77.1464920
  80.4920340  10.8189470  78.0613800  77.4242080   3.5467620  73.2048020
  78.1905350   3.4348980  73.7673450  77.5016770   2.8505590  72.5524790
  89.4486020   9.0356870  81.3198320  89.5733440   9.8588040  81.7922130
  90.3151580   8.8247600  80.9722470  76.9203550  11.1288080  80.9915450
  77.6566030  10.5803540  81.2624020  77.3044470  11.9944090  80.8521440
  73.8049030   7.1961650  76.8656960  72.8788810   7.4382790  76.8562370
  74.2705460   8.0235910  76.7441710  75.9261830  10.3134150  90.1801030
  76.7274560  10.6346200  90.5936430  75.4113650   9.9529730  90.9020940
  80.0305860  10.3018390  72.8141020  80.8234470  10.5907220  72.3622810
  79.5110210   9.8710560  72.1353500  84.7626460   6.4214020  90.1276440
  84.1564620   6.4445620  89.3872190  84.4580570   5.6897060  90.6643690
  86.1926830  10.1494310  88.7385850  87.1448580  10.0652330  88.6886090
  86.0455050  10.8136020  89.4119640  89.0836030   9.5288520  74.2377760
  88.7977540   9.1153660  73.4231940  88.8855580  10.4576230  74.1178280
  73.6459640   2.8007610  89.1237080  74.1498660   2.2214890  89.6953310
  72.9067060   3.0847840  89.6613450  80.5483260   5.5221800  72.6783370
  80.4433900   4.9074150  73.4044750  80.3807480   4.9987690  71.8946380
  80.6997580   4.2078600  88.6572600  79.9343250   4.7763600  88.5727270
  80.8813540   3.9154810  87.7640830  83.7885990   4.5841830  73.2825360
  83.2396090   5.0311130  73.9268100  84.4105250   4.0791080  73.8063030
  87.8420930   5.9383930  89.2147620  88.5830400   6.2759690  88.7115080
  87.0793610   6.1075990  88.6617390  79.4561110   3.5432750  75.1790660
  79.8777530   3.3772620  76.0222050  79.5811950   2.7332980  74.6845800
  81.9688750   2.5670360  72.4267760  82.4894410   1.8519380  72.0608910
  82.6157150   3.2056230  72.7268270  86.5166590   3.9898760  87.7502830
  86.9307610   4.1443840  88.5993250  85.5817590   4.1153980  87.9128610
  81.2781820   3.9419240  85.7198760  81.6969930   4.7851970  85.5475000
  80.3590450   4.0791280  85.4905540  85.9533620   2.2272610  85.6799110
  85.4268840   2.7515230  85.0764250  86.2964960   2.8600000  86.3108840
  79.1289240  10.2472250  86.8356490  78.5910330  10.9718310  86.5165190
  79.3823200   9.7702590  86.0453830  81.9851450  11.4823460  87.0943140
  81.9110150  12.3858600  87.4015510  81.0830290  11.1635360  87.0665210
  82.5336780  10.6481970  74.7169500  83.4287570  10.9866940  74.7388260
  82.5654410   9.9261380  74.0893780  76.1732940   6.0209020  72.9456500
  76.6107810   6.5638690  73.6014080  76.6580670   5.1955970  72.9552840
  73.3878740   8.8098050  80.3976760  73.7181750   7.9419110  80.1655400
  73.8169740   9.0156570  81.2281720  77.9840660   7.1407060  78.0578730
  77.6836200   7.0172030  78.9582640  77.8778150   6.2815650  77.6494460
  73.8768950   9.6768640  83.1358390  73.4399940   9.8569440  83.9682540
  74.4446630  10.4343260  82.9940110  89.5131130   9.1785640  87.4235700
  88.9133120   9.2378200  86.6799620  89.6425030   8.2390620  87.5532550
  90.7532580   6.9203460  72.7605410  89.9225540   6.9880110  73.2312640
  90.9304410   7.8107580  72.4572270  90.2089040   3.6650940  75.2639610
  90.9707950   4.2347590  75.3699300  90.2243410   3.0978140  76.0347920
  73.7093380   2.1888870  79.4947270  73.0542220   1.9200510  78.8506970
  74.5471330   2.0793350  79.0449250  91.2149010   4.5201040  80.1081540
  91.5857840   3.7368360  79.7017510  91.8550940   5.2090140  79.9298840
  88.1982770   5.9037620  85.5211860  87.3842610   6.3334780  85.7837650
  88.6056970   6.5156030  84.9080910  90.2608210   3.9585310  72.4212130
  90.5357050   4.8664190  72.2931350  90.0718950   3.8947840  73.3574120
  74.7469310   2.5741440  84.0350610  75.1142350   2.4868840  84.9146630
  74.1780130   1.8107990  83.9357470  88.2558820  10.6556220  79.0480130
  88.8517890  10.3340790  78.3714550  88.5136970  10.1828040  79.8393400
  76.1621390   7.0874130  89.1970760  76.1191020   6.7167040  90.0785220
  76.2932400   8.0251700  89.3372580  79.8627420   8.6433720  84.7980480
  79.6218780   8.9108280  83.9111000  80.8030060   8.8139450  84.8531340
  91.1231580  10.6628100  85.5991120  90.6289860  11.0596970  84.8818250
  90.5144870  10.0377310  85.9928400  76.0009420  10.0336380  86.3168540
  75.4069740   9.9021080  87.0558580  75.9933260   9.1974520  85.8510640
  88.8071030  11.3051520  82.8777860  88.3474000  12.0567330  82.5035880
  88.1783490  10.5857990  82.8192660  75.6321650   7.3994760  85.2676580
  74.9055710   6.7800050  85.2002530  75.6930800   7.7935370  84.3974660
  79.2366750   9.6139760  82.0525990  79.7531770   9.0027120  81.5274250
  79.8864130  10.1168540  82.5437000  81.9762250  10.5048250  82.8794970
  82.2640060  10.2502550  82.0027980  82.4885470   9.9525610  83.4700540
  73.9151650  10.7169150  78.4773340  73.7473690  10.0839830  79.1755230
  73.0486160  10.9228550  78.1267530  75.5214350   9.4102380  75.9223480
  74.9961970   9.7910410  75.2185440  75.4458930  10.0353150  76.6433190
  82.0434610  11.4264350  90.2463170  82.9701920  11.1908620  90.2899130
  82.0285040  12.2536350  89.7649200  90.2779670  10.9689920  77.2437420
  90.4531860  10.2827660  76.5998340  89.5801240  11.4936970  76.8514090
  78.1207320  11.3584760  74.7972730  78.8526140  11.0744040  74.2496620
  78.3800990  11.1198040  75.6872110  77.2822110   7.4749490  74.8019060
  76.6530990   7.9434590  75.3504890  77.3969940   6.6298710  75.2365250
  88.6112170  10.6534210  90.0704210  89.4037490  10.1583440  89.8630170
  88.9045320  11.3324350  90.6779820  82.8689870   3.3034170  62.8329530
  82.0931970   2.8234610  63.1228100  83.5202800   2.6239820  62.6585690
  76.8855700   3.6153980  63.7105290  76.0540580   3.3602690  64.1101800
  77.4936680   3.6864750  64.4463210  86.8897300   7.7094360  61.6128660
  86.4278830   6.9381600  61.9415830  87.7022850   7.7360430  62.1181110
  76.8656960   7.6494070  63.9063310  77.1685000   6.7591810  63.7273530
  77.6100550   8.2064290  63.6785560  83.1160610   9.9952370  61.2332650
  82.4972050  10.4509870  60.6627090  83.9712390  10.1503830  60.8322350
  82.3098860   5.9791360  62.8399690  82.2407140   5.0381300  62.6788820
  83.0718720   6.0692770  63.4122260  83.9823960   4.8791610  58.6264560
  83.3641230   5.3441060  58.0627280  84.4947210   5.5719090  59.0434070
  78.8455720   4.4067480  65.3048160  78.5125100   5.0336400  65.9469230
  79.0222400   4.9329360  64.5249830  78.0574820   6.3748280  67.1197340
  78.6748820   7.0499360  66.8381790  77.1967940   6.7836260  67.0284840
  73.3507160   5.5648140  56.0004190  72.9735140   6.0535240  55.2689090
  73.6080230   6.2373420  56.6310720  88.9752410   7.8387690  65.0351980
  88.2915930   8.5086800  65.0268650  89.5146700   8.0368340  64.2696840
  86.5111150   9.6831820  63.7497160  86.5238310   9.2794110  62.8819420
  85.9586370  10.4579110  63.6458590  87.8056570   6.4048040  58.8387330
  87.6952900   5.4622370  58.9636750  87.8024820   6.7663680  59.7250090
  85.9096590   4.5861660  65.0779770  86.3265380   4.3721770  64.2433230
  86.6336410   4.8434450  65.6488390  83.3476850   2.0313360  58.1949820
  82.4206130   1.9650740  58.4238290  83.5001670   2.9693490  58.0805060
  89.8558690   2.9848880  65.1696010  89.0277320   3.0541970  64.6946140
  90.4509170   3.5703190  64.7011840  87.3774140   3.5933660  58.6985070
  86.7586560   3.2553210  58.0511370  87.3598590   2.9493420  59.4064260
  78.9533490   2.5578100  60.9769550  78.5490490   1.8455350  60.4815450
  79.0396610   2.2131340  61.8657590  79.4215190   6.2445660  63.1408760
  79.1243480   5.6391130  62.4616540  80.3715010   6.2822970  63.0298120
  87.5100800   9.8177530  66.8031860  87.0331360  10.6249720  66.6104470
  86.8262590   9.1655860  66.9558070  78.5133620   5.9827350  69.7916560
  77.6162150   6.2067320  70.0389960  78.5386490   6.1062290  68.8427960
  85.5538840   2.8320470  55.7057820  85.9932120   1.9942900  55.5595640
  86.2667260   3.4649870  55.7921960  77.3404840   2.8540670  68.3673930
  77.2012610   3.7263470  68.7361330  76.4586200   2.5113480  68.2221870
  83.6634220   7.7716540  59.6739060  84.1030130   8.5140870  59.2594450
  83.6021110   8.0143110  60.5978020  79.1385190   8.7962370  70.5759080
  79.1100620   9.2005320  69.7087510  78.9750160   7.8672730  70.4130680
  91.0900010   9.5789470  71.8723250  91.5659730  10.0572360  72.5512330
  91.7107170   9.5106960  71.1468750  73.2923490   4.6238220  64.2844840
  73.3703910   4.7586990  63.3400560  73.9065170   3.9154110  64.4772960
  74.5371120   6.3238410  60.6951020  74.1299200   6.4653000  59.8404620
  75.4284130   6.0398570  60.4922230  90.4933260   6.7702320  69.0323260
  90.6196320   6.5314200  68.1140440  90.5354640   5.9386860  69.5045340
  84.3550000  10.4730320  67.6018070  84.8694670  10.3838330  68.4040500
  83.5119080  10.8190020  67.8945980  86.3304400  10.7585660  57.0302070
  86.1705540  10.4688600  57.9283900  86.1651110   9.9825790  56.4947300
  78.8092780  10.5384190  58.8073690  78.6335260   9.6219730  58.5941490
  77.9548520  10.8971480  59.0471490  86.0330530   8.2673220  55.5900070
  85.3395690   8.2650510  54.9302350  86.7753390   7.8432540  55.1594240
  85.5980460   9.8935930  59.6648560  86.0537410   9.1125310  59.9787180
  85.9372980  10.6042750  60.2089740  73.3483010   5.6652390  66.8239300
  73.5114050   5.1957750  66.0058670  73.8135460   5.1575950  67.4888140
  74.9221990   5.0403820  68.9835110  74.5376780   4.3997490  69.5818070
  75.2334180   5.7439940  69.5529840  77.3900290   5.1349990  57.3794790
  76.6162550   4.5947610  57.2193510  78.1194920   4.6156600  57.0412550
  88.1488270   4.1315350  63.1721180  88.8687390   4.6270640  62.7817290
  87.9470090   3.4533240  62.5275050  83.5307070   4.2024410  69.0590180
  83.4644380   3.2820080  68.8047770  82.9012210   4.2999850  69.7734820
  77.4337690   4.8030370  61.0173600  77.9516360   3.9998630  60.9630490
  76.9821710   4.7409510  61.8590430  82.3207190   6.0696650  56.2900900
  82.6622890   6.8138880  55.7944220  81.4919900   6.3827770  56.6525730
  78.1195350   2.2275980  70.8138850  77.8195490   2.3733160  69.9166670
  78.8906590   1.6681270  70.7212240  83.4623800   7.0244980  68.8093980
  83.4768340   6.0925940  68.5912890  82.7548900   7.1104740  69.4483750
  89.6735010   3.6652320  68.1562560  88.9483200   4.2581100  67.9591950
  90.2010470   3.6575860  67.3575930  89.6248120   8.0627060  57.8074720
  88.9824280   7.4082680  58.0818440  89.2378780   8.4682150  57.0315390
  85.2034600   5.3912490  61.6546410  85.5558420   4.7940620  60.9947780
  84.3196930   5.0656720  61.8254660  81.2897880   6.1510180  59.0616820
  81.9769010   6.6979390  59.4424410  80.5030300   6.6950910  59.0966430
  73.4290280   1.7683000  54.5533900  74.2985130   2.0507800  54.8369820
  72.9380600   2.5818870  54.4382710  80.5925090   3.1556210  58.6742180
  81.0487870   3.9661460  58.9002370  80.2413300   2.8379350  59.5060670
  82.8957700   8.6662550  65.9034480  83.5399920   8.8721930  66.5807900
  83.2587140   7.9050950  65.4505330  84.1689780   6.6694900  64.6211930
  84.8112010   5.9688060  64.7344100  84.6939130   7.4493340  64.4408820
  88.0145500   6.9543520  54.3451070  87.7883080   6.2373960  54.9375710
  87.6241700   6.7055960  53.5072820  85.9427400   7.4689800  67.8247990
  86.2783640   8.0556490  68.5025910  85.0227740   7.3382510  68.0545780
  73.7961530  10.9810380  55.1195530  74.1559170  11.5799720  54.4652800
  73.6553870  11.5270270  55.8930560  87.5961750   4.8715460  56.0065230
  87.3083450   5.3328150  56.7943110  88.3913920   4.4113230  56.2749450
  73.7803390   9.2465240  69.5937930  73.8894510   8.3059980  69.4533320
  73.1283950   9.5119990  68.9451660  81.7715980   7.5181130  70.9936050
  81.4512850   6.7990370  71.5381740  81.0974340   8.1936200  71.0672110
  79.8130150   8.3641580  55.9369200  79.8040250   9.0971270  55.3213710
  78.8928510   8.1173160  56.0296160  75.4136790   3.5856470  56.6815960
  74.8064740   4.3255370  56.6911260  75.8886140   3.6755830  55.8554160
  82.7989750   8.4269820  54.5994390  82.9001730   8.2233810  53.6696370
  81.8991490   8.1728100  54.8042170  81.4407860  10.9456140  59.2942060
  81.6949360  10.9077530  58.3721430  80.4920340  10.8189470  59.2870310
  77.4242080   3.5467620  54.4304530  78.1905350   3.4348980  54.9929960
  77.5016770   2.8505590  53.7781300  89.4486020   9.0356870  62.5454830
  89.5733440   9.8588040  63.0178640  90.3151580   8.8247600  62.1978980
  76.9203550  11.1288080  62.2171960  77.6566030  10.5803540  62.4880530
  77.3044470  11.9944090  62.0777950  73.8049030   7.1961650  58.0913470
  72.8788810   7.4382790  58.0818880  74.2705460   8.0235910  57.9698220
  75.9261830  10.3134150  71.4057540  76.7274560  10.6346200  71.8192940
  75.4113650   9.9529730  72.1277450  80.0305860  10.3018390  54.0397530
  80.8234470  10.5907220  53.5879320  79.5110210   9.8710560  53.3610010
  84.7626460   6.4214020  71.3532950  84.1564620   6.4445620  70.6128700
  84.4580570   5.6897060  71.8900200  86.1926830  10.1494310  69.9642360
  87.1448580  10.0652330  69.9142600  86.0455050  10.8136020  70.6376150
  89.0836030   9.5288520  55.4634270  88.7977540   9.1153660  54.6488450
  88.8855580  10.4576230  55.3434790  73.6459640   2.8007610  70.3493590
  74.1498660   2.2214890  70.9209820  72.9067060   3.0847840  70.8869960
  80.5483260   5.5221800  53.9039880  80.4433900   4.9074150  54.6301260
  80.3807480   4.9987690  53.1202890  80.6997580   4.2078600  69.8829110
  79.9343250   4.7763600  69.7983780  80.8813540   3.9154810  68.9897340
  83.7885990   4.5841830  54.5081870  83.2396090   5.0311130  55.1524610
  84.4105250   4.0791080  55.0319540  87.8420930   5.9383930  70.4404130
  88.5830400   6.2759690  69.9371590  87.0793610   6.1075990  69.8873900
  79.4561110   3.5432750  56.4047170  79.8777530   3.3772620  57.2478560
  79.5811950   2.7332980  55.9102310  81.9688750   2.5670360  53.6524270
  82.4894410   1.8519380  53.2865420  82.6157150   3.2056230  53.9524780
  86.5166590   3.9898760  68.9759340  86.9307610   4.1443840  69.8249760
  85.5817590   4.1153980  69.1385120  81.2781820   3.9419240  66.9455270
  81.6969930   4.7851970  66.7731510  80.3590450   4.0791280  66.7162050
  85.9533620   2.2272610  66.9055620  85.4268840   2.7515230  66.3020760
  86.2964960   2.8600000  67.5365350  79.1289240  10.2472250  68.0613000
  78.5910330  10.9718310  67.7421700  79.3823200   9.7702590  67.2710340
  81.9851450  11.4823460  68.3199650  81.9110150  12.3858600  68.6272020
  81.0830290  11.1635360  68.2921720  82.5336780  10.6481970  55.9426010
  83.4287570  10.9866940  55.9644770  82.5654410   9.9261380  55.3150290
  76.1732940   6.0209020  54.1713010  76.6107810   6.5638690  54.8270590
  76.6580670   5.1955970  54.1809350  73.3878740   8.8098050  61.6233270
  73.7181750   7.9419110  61.3911910  73.8169740   9.0156570  62.4538230
  77.9840660   7.1407060  59.2835240  77.6836200   7.0172030  60.1839150
  77.8778150   6.2815650  58.8750970  73.8768950   9.6768640  64.3614900
  73.4399940   9.8569440  65.1939050  74.4446630  10.4343260  64.2196620
  89.5131130   9.1785640  68.6492210  88.9133120   9.2378200  67.9056130
  89.6425030   8.2390620  68.7789060  90.7532580   6.9203460  53.9861920
  89.9225540   6.9880110  54.4569150  90.9304410   7.8107580  53.6828780
  90.2089040   3.6650940  56.4896120  90.9707950   4.2347590  56.5955810
  90.2243410   3.0978140  57.2604430  73.7093380   2.1888870  60.7203780
  73.0542220   1.9200510  60.0763480  74.5471330   2.0793350  60.2705760
  91.2149010   4.5201040  61.3338050  91.5857840   3.7368360  60.9274020
  91.8550940   5.2090140  61.1555350  88.1982770   5.9037620  66.7468370
  87.3842610   6.3334780  67.0094160  88.6056970   6.5156030  66.1337420
  90.2608210   3.9585310  53.6468640  90.5357050   4.8664190  53.5187860
  90.0718950   3.8947840  54.5830630  74.7469310   2.5741440  65.2607120
  75.1142350   2.4868840  66.1403140  74.1780130   1.8107990  65.1613980
  88.2558820  10.6556220  60.2736640  88.8517890  10.3340790  59.5971060
  88.5136970  10.1828040  61.0649910  76.1621390   7.0874130  70.4227270
  76.1191020   6.7167040  71.3041730  76.2932400   8.0251700  70.5629090
  79.8627420   8.6433720  66.0236990  79.6218780   8.9108280  65.1367510
  80.8030060   8.8139450  66.0787850  91.1231580  10.6628100  66.8247630
  90.6289860  11.0596970  66.1074760  90.5144870  10.0377310  67.2184910
  76.0009420  10.0336380  67.5425050  75.4069740   9.9021080  68.2815090
  75.9933260   9.1974520  67.0767150  88.8071030  11.3051520  64.1034370
  88.3474000  12.0567330  63.7292390  88.1783490  10.5857990  64.0449170
  75.6321650   7.3994760  66.4933090  74.9055710   6.7800050  66.4259040
  75.6930800   7.7935370  65.6231170  79.2366750   9.6139760  63.2782500
  79.7531770   9.0027120  62.7530760  79.8864130  10.1168540  63.7693510
  81.9762250  10.5048250  64.1051480  82.2640060  10.2502550  63.2284490
  82.4885470   9.9525610  64.6957050  73.9151650  10.7169150  59.7029850
  73.7473690  10.0839830  60.4011740  73.0486160  10.9228550  59.3524040
  75.5214350   9.4102380  57.1479990  74.9961970   9.7910410  56.4441950
  75.4458930  10.0353150  57.8689700  82.0434610  11.4264350  71.4719680
  82.9701920  11.1908620  71.5155640  82.0285040  12.2536350  70.9905710
  90.2779670  10.9689920  58.4693930  90.4531860  10.2827660  57.8254850
  89.5801240  11.4936970  58.0770600  78.1207320  11.3584760  56.0229240
  78.8526140  11.0744040  55.4753130  78.3800990  11.1198040  56.9128620
  77.2822110   7.4749490  56.0275570  76.6530990   7.9434590  56.5761400
  77.3969940   6.6298710  56.4621760  88.6112170  10.6534210  71.2960720
  89.4037490  10.1583440  71.0886680  88.9045320  11.3324350  71.9036330
  82.8689870   3.3034170  44.0586040  82.0931970   2.8234610  44.3484610
  83.5202800   2.6239820  43.8842200  76.8855700   3.6153980  44.9361800
  76.0540580   3.3602690  45.3358310  77.4936680   3.6864750  45.6719720
  86.8897300   7.7094360  42.8385170  86.4278830   6.9381600  43.1672340
  87.7022850   7.7360430  43.3437620  76.8656960   7.6494070  45.1319820
  77.1685000   6.7591810  44.9530040  77.6100550   8.2064290  44.9042070
  83.1160610   9.9952370  42.4589160  82.4972050  10.4509870  41.8883600
  83.9712390  10.1503830  42.0578860  82.3098860   5.9791360  44.0656200
  82.2407140   5.0381300  43.9045330  83.0718720   6.0692770  44.6378770
  83.9823960   4.8791610  39.8521070  83.3641230   5.3441060  39.2883790
  84.4947210   5.5719090  40.2690580  78.8455720   4.4067480  46.5304670
  78.5125100   5.0336400  47.1725740  79.0222400   4.9329360  45.7506340
  78.0574820   6.3748280  48.3453850  78.6748820   7.0499360  48.0638300
  77.1967940   6.7836260  48.2541350  73.3507160   5.5648140  37.2260700
  72.9735140   6.0535240  36.4945600  73.6080230   6.2373420  37.8567230
  88.9752410   7.8387690  46.2608490  88.2915930   8.5086800  46.2525160
  89.5146700   8.0368340  45.4953350  86.5111150   9.6831820  44.9753670
  86.5238310   9.2794110  44.1075930  85.9586370  10.4579110  44.8715100
  87.8056570   6.4048040  40.0643840  87.6952900   5.4622370  40.1893260
  87.8024820   6.7663680  40.9506600  85.9096590   4.5861660  46.3036280
  86.3265380   4.3721770  45.4689740  86.6336410   4.8434450  46.8744900
  83.3476850   2.0313360  39.4206330  82.4206130   1.9650740  39.6494800
  83.5001670   2.9693490  39.3061570  89.8558690   2.9848880  46.3952520
  89.0277320   3.0541970  45.9202650  90.4509170   3.5703190  45.9268350
  87.3774140   3.5933660  39.9241580  86.7586560   3.2553210  39.2767880
  87.3598590   2.9493420  40.6320770  78.9533490   2.5578100  42.2026060
  78.5490490   1.8455350  41.7071960  79.0396610   2.2131340  43.0914100
  79.4215190   6.2445660  44.3665270  79.1243480   5.6391130  43.6873050
  80.3715010   6.2822970  44.2554630  87.5100800   9.8177530  48.0288370
  87.0331360  10.6249720  47.8360980  86.8262590   9.1655860  48.1814580
  78.5133620   5.9827350  51.0173070  77.6162150   6.2067320  51.2646470
  78.5386490   6.1062290  50.0684470  85.5538840   2.8320470  36.9314330
  85.9932120   1.9942900  36.7852150  86.2667260   3.4649870  37.0178470
  77.3404840   2.8540670  49.5930440  77.2012610   3.7263470  49.9617840
  76.4586200   2.5113480  49.4478380  83.6634220   7.7716540  40.8995570
  84.1030130   8.5140870  40.4850960  83.6021110   8.0143110  41.8234530
  79.1385190   8.7962370  51.8015590  79.1100620   9.2005320  50.9344020
  78.9750160   7.8672730  51.6387190  91.0900010   9.5789470  53.0979760
  91.5659730  10.0572360  53.7768840  91.7107170   9.5106960  52.3725260
  73.2923490   4.6238220  45.5101350  73.3703910   4.7586990  44.5657070
  73.9065170   3.9154110  45.7029470  74.5371120   6.3238410  41.9207530
  74.1299200   6.4653000  41.0661130  75.4284130   6.0398570  41.7178740
  90.4933260   6.7702320  50.2579770  90.6196320   6.5314200  49.3396950
  90.5354640   5.9386860  50.7301850  84.3550000  10.4730320  48.8274580
  84.8694670  10.3838330  49.6297010  83.5119080  10.8190020  49.1202490
  86.3304400  10.7585660  38.2558580  86.1705540  10.4688600  39.1540410
  86.1651110   9.9825790  37.7203810  78.8092780  10.5384190  40.0330200
  78.6335260   9.6219730  39.8198000  77.9548520  10.8971480  40.2728000
  86.0330530   8.2673220  36.8156580  85.3395690   8.2650510  36.1558860
  86.7753390   7.8432540  36.3850750  85.5980460   9.8935930  40.8905070
  86.0537410   9.1125310  41.2043690  85.9372980  10.6042750  41.4346250
  73.3483010   5.6652390  48.0495810  73.5114050   5.1957750  47.2315180
  73.8135460   5.1575950  48.7144650  74.9221990   5.0403820  50.2091620
  74.5376780   4.3997490  50.8074580  75.2334180   5.7439940  50.7786350
  77.3900290   5.1349990  38.6051300  76.6162550   4.5947610  38.4450020
  78.1194920   4.6156600  38.2669060  88.1488270   4.1315350  44.3977690
  88.8687390   4.6270640  44.0073800  87.9470090   3.4533240  43.7531560
  83.5307070   4.2024410  50.2846690  83.4644380   3.2820080  50.0304280
  82.9012210   4.2999850  50.9991330  77.4337690   4.8030370  42.2430110
  77.9516360   3.9998630  42.1887000  76.9821710   4.7409510  43.0846940
  82.3207190   6.0696650  37.5157410  82.6622890   6.8138880  37.0200730
  81.4919900   6.3827770  37.8782240  78.1195350   2.2275980  52.0395360
  77.8195490   2.3733160  51.1423180  78.8906590   1.6681270  51.9468750
  83.4623800   7.0244980  50.0350490  83.4768340   6.0925940  49.8169400
  82.7548900   7.1104740  50.6740260  89.6735010   3.6652320  49.3819070
  88.9483200   4.2581100  49.1848460  90.2010470   3.6575860  48.5832440
  89.6248120   8.0627060  39.0331230  88.9824280   7.4082680  39.3074950
  89.2378780   8.4682150  38.2571900  85.2034600   5.3912490  42.8802920
  85.5558420   4.7940620  42.2204290  84.3196930   5.0656720  43.0511170
  81.2897880   6.1510180  40.2873330  81.9769010   6.6979390  40.6680920
  80.5030300   6.6950910  40.3222940  73.4290280   1.7683000  35.7790410
  74.2985130   2.0507800  36.0626330  72.9380600   2.5818870  35.6639220
  80.5925090   3.1556210  39.8998690  81.0487870   3.9661460  40.1258880
  80.2413300   2.8379350  40.7317180  82.8957700   8.6662550  47.1290990
  83.5399920   8.8721930  47.8064410  83.2587140   7.9050950  46.6761840
  84.1689780   6.6694900  45.8468440  84.8112010   5.9688060  45.9600610
  84.6939130   7.4493340  45.6665330  88.0145500   6.9543520  35.5707580
  87.7883080   6.2373960  36.1632220  87.6241700   6.7055960  34.7329330
  85.9427400   7.4689800  49.0504500  86.2783640   8.0556490  49.7282420
  85.0227740   7.3382510  49.2802290  73.7961530  10.9810380  36.3452040
  74.1559170  11.5799720  35.6909310  73.6553870  11.5270270  37.1187070
  87.5961750   4.8715460  37.2321740  87.3083450   5.3328150  38.0199620
  88.3913920   4.4113230  37.5005960  73.7803390   9.2465240  50.8194440
  73.8894510   8.3059980  50.6789830  73.1283950   9.5119990  50.1708170
  81.7715980   7.5181130  52.2192560  81.4512850   6.7990370  52.7638250
  81.0974340   8.1936200  52.2928620  79.8130150   8.3641580  37.1625710
  79.8040250   9.0971270  36.5470220  78.8928510   8.1173160  37.2552670
  75.4136790   3.5856470  37.9072470  74.8064740   4.3255370  37.9167770
  75.8886140   3.6755830  37.0810670  82.7989750   8.4269820  35.8250900
  82.9001730   8.2233810  34.8952880  81.8991490   8.1728100  36.0298680
  81.4407860  10.9456140  40.5198570  81.6949360  10.9077530  39.5977940
  80.4920340  10.8189470  40.5126820  77.4242080   3.5467620  35.6561040
  78.1905350   3.4348980  36.2186470  77.5016770   2.8505590  35.0037810
  89.4486020   9.0356870  43.7711340  89.5733440   9.8588040  44.2435150
  90.3151580   8.8247600  43.4235490  76.9203550  11.1288080  43.4428470
  77.6566030  10.5803540  43.7137040  77.3044470  11.9944090  43.3034460
  73.8049030   7.1961650  39.3169980  72.8788810   7.4382790  39.3075390
  74.2705460   8.0235910  39.1954730  75.9261830  10.3134150  52.6314050
  76.7274560  10.6346200  53.0449450  75.4113650   9.9529730  53.3533960
  80.0305860  10.3018390  35.2654040  80.8234470  10.5907220  34.8135830
  79.5110210   9.8710560  34.5866520  84.7626460   6.4214020  52.5789460
  84.1564620   6.4445620  51.8385210  84.4580570   5.6897060  53.1156710
  86.1926830  10.1494310  51.1898870  87.1448580  10.0652330  51.1399110
  86.0455050  10.8136020  51.8632660  89.0836030   9.5288520  36.6890780
  88.7977540   9.1153660  35.8744960  88.8855580  10.4576230  36.5691300
  73.6459640   2.8007610  51.5750100  74.1498660   2.2214890  52.1466330
  72.9067060   3.0847840  52.1126470  80.5483260   5.5221800  35.1296390
  80.4433900   4.9074150  35.8557770  80.3807480   4.9987690  34.3459400
  80.6997580   4.2078600  51.1085620  79.9343250   4.7763600  51.0240290
  80.8813540   3.9154810  50.2153850  83.7885990   4.5841830  35.7338380
  83.2396090   5.0311130  36.3781120  84.4105250   4.0791080  36.2576050
  87.8420930   5.9383930  51.6660640  88.5830400   6.2759690  51.1628100
  87.0793610   6.1075990  51.1130410  79.4561110   3.5432750  37.6303680
  79.8777530   3.3772620  38.4735070  79.5811950   2.7332980  37.1358820
  81.9688750   2.5670360  34.8780780  82.4894410   1.8519380  34.5121930
  82.6157150   3.2056230  35.1781290  86.5166590   3.9898760  50.2015850
  86.9307610   4.1443840  51.0506270  85.5817590   4.1153980  50.3641630
  81.2781820   3.9419240  48.1711780  81.6969930   4.7851970  47.9988020
  80.3590450   4.0791280  47.9418560  85.9533620   2.2272610  48.1312130
  85.4268840   2.7515230  47.5277270  86.2964960   2.8600000  48.7621860
  79.1289240  10.2472250  49.2869510  78.5910330  10.9718310  48.9678210
  79.3823200   9.7702590  48.4966850  81.9851450  11.4823460  49.5456160
  81.9110150  12.3858600  49.8528530  81.0830290  11.1635360  49.5178230
  82.5336780  10.6481970  37.1682520  83.4287570  10.9866940  37.1901280
  82.5654410   9.9261380  36.5406800  76.1732940   6.0209020  35.3969520
  76.6107810   6.5638690  36.0527100  76.6580670   5.1955970  35.4065860
  73.3878740   8.8098050  42.8489780  73.7181750   7.9419110  42.6168420
  73.8169740   9.0156570  43.6794740  77.9840660   7.1407060  40.5091750
  77.6836200   7.0172030  41.4095660  77.8778150   6.2815650  40.1007480
  73.8768950   9.6768640  45.5871410  73.4399940   9.8569440  46.4195560
  74.4446630  10.4343260  45.4453130  89.5131130   9.1785640  49.8748720
  88.9133120   9.2378200  49.1312640  89.6425030   8.2390620  50.0045570
  90.7532580   6.9203460  35.2118430  89.9225540   6.9880110  35.6825660
  90.9304410   7.8107580  34.9085290  90.2089040   3.6650940  37.7152630
  90.9707950   4.2347590  37.8212320  90.2243410   3.0978140  38.4860940
  73.7093380   2.1888870  41.9460290  73.0542220   1.9200510  41.3019990
  74.5471330   2.0793350  41.4962270  91.2149010   4.5201040  42.5594560
  91.5857840   3.7368360  42.1530530  91.8550940   5.2090140  42.3811860
  88.1982770   5.9037620  47.9724880  87.3842610   6.3334780  48.2350670
  88.6056970   6.5156030  47.3593930  90.2608210   3.9585310  34.8725150
  90.5357050   4.8664190  34.7444370  90.0718950   3.8947840  35.8087140
  74.7469310   2.5741440  46.4863630  75.1142350   2.4868840  47.3659650
  74.1780130   1.8107990  46.3870490  88.2558820  10.6556220  41.4993150
  88.8517890  10.3340790  40.8227570  88.5136970  10.1828040  42.2906420
  76.1621390   7.0874130  51.6483780  76.1191020   6.7167040  52.5298240
  76.2932400   8.0251700  51.7885600  79.8627420   8.6433720  47.2493500
  79.6218780   8.9108280  46.3624020  80.8030060   8.8139450  47.3044360
  91.1231580  10.6628100  48.0504140  90.6289860  11.0596970  47.3331270
  90.5144870  10.0377310  48.4441420  76.0009420  10.0336380  48.7681560
  75.4069740   9.9021080  49.5071600  75.9933260   9.1974520  48.3023660
  88.8071030  11.3051520  45.3290880  88.3474000  12.0567330  44.9548900
  88.1783490  10.5857990  45.2705680  75.6321650   7.3994760  47.7189600
  74.9055710   6.7800050  47.6515550  75.6930800   7.7935370  46.8487680
  79.2366750   9.6139760  44.5039010  79.7531770   9.0027120  43.9787270
  79.8864130  10.1168540  44.9950020  81.9762250  10.5048250  45.3307990
  82.2640060  10.2502550  44.4541000  82.4885470   9.9525610  45.9213560
  73.9151650  10.7169150  40.9286360  73.7473690  10.0839830  41.6268250
  73.0486160  10.9228550  40.5780550  75.5214350   9.4102380  38.3736500
  74.9961970   9.7910410  37.6698460  75.4458930  10.0353150  39.0946210
  82.0434610  11.4264350  52.6976190  82.9701920  11.1908620  52.7412150
  82.0285040  12.2536350  52.2162220  90.2779670  10.9689920  39.6950440
  90.4531860  10.2827660  39.0511360  89.5801240  11.4936970  39.3027110
  78.1207320  11.3584760  37.2485750  78.8526140  11.0744040  36.7009640
  78.3800990  11.1198040  38.1385130  77.2822110   7.4749490  37.2532080
  76.6530990   7.9434590  37.8017910  77.3969940   6.6298710  37.6878270
  88.6112170  10.6534210  52.5217230  89.4037490  10.1583440  52.3143190
  88.9045320  11.3324350  53.1292840  82.8689870   3.3034170  25.2842550
  82.0931970   2.8234610  25.5741120  83.5202800   2.6239820  25.1098710
  76.8855700   3.6153980  26.1618310  76.0540580   3.3602690  26.5614820
  77.4936680   3.6864750  26.8976230  86.8897300   7.7094360  24.0641680
  86.4278830   6.9381600  24.3928850  87.7022850   7.7360430  24.5694130
  76.8656960   7.6494070  26.3576330  77.1685000   6.7591810  26.1786550
  77.6100550   8.2064290  26.1298580  83.1160610   9.9952370  23.6845670
  82.4972050  10.4509870  23.1140110  83.9712390  10.1503830  23.2835370
  82.3098860   5.9791360  25.2912710  82.2407140   5.0381300  25.1301840
  83.0718720   6.0692770  25.8635280  83.9823960   4.8791610  21.0777580
  83.3641230   5.3441060  20.5140300  84.4947210   5.5719090  21.4947090
  78.8455720   4.4067480  27.7561180  78.5125100   5.0336400  28.3982250
  79.0222400   4.9329360  26.9762850  78.0574820   6.3748280  29.5710360
  78.6748820   7.0499360  29.2894810  77.1967940   6.7836260  29.4797860
  73.3507160   5.5648140  18.4517210  72.9735140   6.0535240  17.7202110
  73.6080230   6.2373420  19.0823740  88.9752410   7.8387690  27.4865000
  88.2915930   8.5086800  27.4781670  89.5146700   8.0368340  26.7209860
  86.5111150   9.6831820  26.2010180  86.5238310   9.2794110  25.3332440
  85.9586370  10.4579110  26.0971610  87.8056570   6.4048040  21.2900350
  87.6952900   5.4622370  21.4149770  87.8024820   6.7663680  22.1763110
  85.9096590   4.5861660  27.5292790  86.3265380   4.3721770  26.6946250
  86.6336410   4.8434450  28.1001410  83.3476850   2.0313360  20.6462840
  82.4206130   1.9650740  20.8751310  83.5001670   2.9693490  20.5318080
  89.8558690   2.9848880  27.6209030  89.0277320   3.0541970  27.1459160
  90.4509170   3.5703190  27.1524860  87.3774140   3.5933660  21.1498090
  86.7586560   3.2553210  20.5024390  87.3598590   2.9493420  21.8577280
  78.9533490   2.5578100  23.4282570  78.5490490   1.8455350  22.9328470
  79.0396610   2.2131340  24.3170610  79.4215190   6.2445660  25.5921780
  79.1243480   5.6391130  24.9129560  80.3715010   6.2822970  25.4811140
  87.5100800   9.8177530  29.2544880  87.0331360  10.6249720  29.0617490
  86.8262590   9.1655860  29.4071090  78.5133620   5.9827350  32.2429580
  77.6162150   6.2067320  32.4902980  78.5386490   6.1062290  31.2940980
  85.5538840   2.8320470  18.1570840  85.9932120   1.9942900  18.0108660
  86.2667260   3.4649870  18.2434980  77.3404840   2.8540670  30.8186950
  77.2012610   3.7263470  31.1874350  76.4586200   2.5113480  30.6734890
  83.6634220   7.7716540  22.1252080  84.1030130   8.5140870  21.7107470
  83.6021110   8.0143110  23.0491040  79.1385190   8.7962370  33.0272100
  79.1100620   9.2005320  32.1600530  78.9750160   7.8672730  32.8643700
  91.0900010   9.5789470  34.3236270  91.5659730  10.0572360  35.0025350
  91.7107170   9.5106960  33.5981770  73.2923490   4.6238220  26.7357860
  73.3703910   4.7586990  25.7913580  73.9065170   3.9154110  26.9285980
  74.5371120   6.3238410  23.1464040  74.1299200   6.4653000  22.2917640
  75.4284130   6.0398570  22.9435250  90.4933260   6.7702320  31.4836280
  90.6196320   6.5314200  30.5653460  90.5354640   5.9386860  31.9558360
  84.3550000  10.4730320  30.0531090  84.8694670  10.3838330  30.8553520
  83.5119080  10.8190020  30.3459000  86.3304400  10.7585660  19.4815090
  86.1705540  10.4688600  20.3796920  86.1651110   9.9825790  18.9460320
  78.8092780  10.5384190  21.2586710  78.6335260   9.6219730  21.0454510
  77.9548520  10.8971480  21.4984510  86.0330530   8.2673220  18.0413090
  85.3395690   8.2650510  17.3815370  86.7753390   7.8432540  17.6107260
  85.5980460   9.8935930  22.1161580  86.0537410   9.1125310  22.4300200
  85.9372980  10.6042750  22.6602760  73.3483010   5.6652390  29.2752320
  73.5114050   5.1957750  28.4571690  73.8135460   5.1575950  29.9401160
  74.9221990   5.0403820  31.4348130  74.5376780   4.3997490  32.0331090
  75.2334180   5.7439940  32.0042860  77.3900290   5.1349990  19.8307810
  76.6162550   4.5947610  19.6706530  78.1194920   4.6156600  19.4925570
  88.1488270   4.1315350  25.6234200  88.8687390   4.6270640  25.2330310
  87.9470090   3.4533240  24.9788070  83.5307070   4.2024410  31.5103200
  83.4644380   3.2820080  31.2560790  82.9012210   4.2999850  32.2247840
  77.4337690   4.8030370  23.4686620  77.9516360   3.9998630  23.4143510
  76.9821710   4.7409510  24.3103450  82.3207190   6.0696650  18.7413920
  82.6622890   6.8138880  18.2457240  81.4919900   6.3827770  19.1038750
  78.1195350   2.2275980  33.2651870  77.8195490   2.3733160  32.3679690
  78.8906590   1.6681270  33.1725260  83.4623800   7.0244980  31.2607000
  83.4768340   6.0925940  31.0425910  82.7548900   7.1104740  31.8996770
  89.6735010   3.6652320  30.6075580  88.9483200   4.2581100  30.4104970
  90.2010470   3.6575860  29.8088950  89.6248120   8.0627060  20.2587740
  88.9824280   7.4082680  20.5331460  89.2378780   8.4682150  19.4828410
  85.2034600   5.3912490  24.1059430  85.5558420   4.7940620  23.4460800
  84.3196930   5.0656720  24.2767680  81.2897880   6.1510180  21.5129840
  81.9769010   6.6979390  21.8937430  80.5030300   6.6950910  21.5479450
  73.4290280   1.7683000  17.0046920  74.2985130   2.0507800  17.2882840
  72.9380600   2.5818870  16.8895730  80.5925090   3.1556210  21.1255200
  81.0487870   3.9661460  21.3515390  80.2413300   2.8379350  21.9573690
  82.8957700   8.6662550  28.3547500  83.5399920   8.8721930  29.0320920
  83.2587140   7.9050950  27.9018350  84.1689780   6.6694900  27.0724950
  84.8112010   5.9688060  27.1857120  84.6939130   7.4493340  26.8921840
  88.0145500   6.9543520  16.7964090  87.7883080   6.2373960  17.3888730
  87.6241700   6.7055960  15.9585840  85.9427400   7.4689800  30.2761010
  86.2783640   8.0556490  30.9538930  85.0227740   7.3382510  30.5058800
  73.7961530  10.9810380  17.5708550  74.1559170  11.5799720  16.9165820
  73.6553870  11.5270270  18.3443580  87.5961750   4.8715460  18.4578250
  87.3083450   5.3328150  19.2456130  88.3913920   4.4113230  18.7262470
  73.7803390   9.2465240  32.0450950  73.8894510   8.3059980  31.9046340
  73.1283950   9.5119990  31.3964680  81.7715980   7.5181130  33.4449070
  81.4512850   6.7990370  33.9894760  81.0974340   8.1936200  33.5185130
  79.8130150   8.3641580  18.3882220  79.8040250   9.0971270  17.7726730
  78.8928510   8.1173160  18.4809180  75.4136790   3.5856470  19.1328980
  74.8064740   4.3255370  19.1424280  75.8886140   3.6755830  18.3067180
  82.7989750   8.4269820  17.0507410  82.9001730   8.2233810  16.1209390
  81.8991490   8.1728100  17.2555190  81.4407860  10.9456140  21.7455080
  81.6949360  10.9077530  20.8234450  80.4920340  10.8189470  21.7383330
  77.4242080   3.5467620  16.8817550  78.1905350   3.4348980  17.4442980
  77.5016770   2.8505590  16.2294320  89.4486020   9.0356870  24.9967850
  89.5733440   9.8588040  25.4691660  90.3151580   8.8247600  24.6492000
  76.9203550  11.1288080  24.6684980  77.6566030  10.5803540  24.9393550
  77.3044470  11.9944090  24.5290970  73.8049030   7.1961650  20.5426490
  72.8788810   7.4382790  20.5331900  74.2705460   8.0235910  20.4211240
  75.9261830  10.3134150  33.8570560  76.7274560  10.6346200  34.2705960
  75.4113650   9.9529730  34.5790470  80.0305860  10.3018390  16.4910550
  80.8234470  10.5907220  16.0392340  79.5110210   9.8710560  15.8123030
  84.7626460   6.4214020  33.8045970  84.1564620   6.4445620  33.0641720
  84.4580570   5.6897060  34.3413220  86.1926830  10.1494310  32.4155380
  87.1448580  10.0652330  32.3655620  86.0455050  10.8136020  33.0889170
  89.0836030   9.5288520  17.9147290  88.7977540   9.1153660  17.1001470
  88.8855580  10.4576230  17.7947810  73.6459640   2.8007610  32.8006610
  74.1498660   2.2214890  33.3722840  72.9067060   3.0847840  33.3382980
  80.5483260   5.5221800  16.3552900  80.4433900   4.9074150  17.0814280
  80.3807480   4.9987690  15.5715910  80.6997580   4.2078600  32.3342130
  79.9343250   4.7763600  32.2496800  80.8813540   3.9154810  31.4410360
  83.7885990   4.5841830  16.9594890  83.2396090   5.0311130  17.6037630
  84.4105250   4.0791080  17.4832560  87.8420930   5.9383930  32.8917150
  88.5830400   6.2759690  32.3884610  87.0793610   6.1075990  32.3386920
  79.4561110   3.5432750  18.8560190  79.8777530   3.3772620  19.6991580
  79.5811950   2.7332980  18.3615330  81.9688750   2.5670360  16.1037290
  82.4894410   1.8519380  15.7378440  82.6157150   3.2056230  16.4037800
  86.5166590   3.9898760  31.4272360  86.9307610   4.1443840  32.2762780
  85.5817590   4.1153980  31.5898140  81.2781820   3.9419240  29.3968290
  81.6969930   4.7851970  29.2244530  80.3590450   4.0791280  29.1675070
  85.9533620   2.2272610  29.3568640  85.4268840   2.7515230  28.7533780
  86.2964960   2.8600000  29.9878370  79.1289240  10.2472250  30.5126020
  78.5910330  10.9718310  30.1934720  79.3823200   9.7702590  29.7223360
  81.9851450  11.4823460  30.7712670  81.9110150  12.3858600  31.0785040
  81.0830290  11.1635360  30.7434740  82.5336780  10.6481970  18.3939030
  83.4287570  10.9866940  18.4157790  82.5654410   9.9261380  17.7663310
  76.1732940   6.0209020  16.6226030  76.6107810   6.5638690  17.2783610
  76.6580670   5.1955970  16.6322370  73.3878740   8.8098050  24.0746290
  73.7181750   7.9419110  23.8424930  73.8169740   9.0156570  24.9051250
  77.9840660   7.1407060  21.7348260  77.6836200   7.0172030  22.6352170
  77.8778150   6.2815650  21.3263990  73.8768950   9.6768640  26.8127920
  73.4399940   9.8569440  27.6452070  74.4446630  10.4343260  26.6709640
  89.5131130   9.1785640  31.1005230  88.9133120   9.2378200  30.3569150
  89.6425030   8.2390620  31.2302080  90.7532580   6.9203460  16.4374940
  89.9225540   6.9880110  16.9082170  90.9304410   7.8107580  16.1341800
  90.2089040   3.6650940  18.9409140  90.9707950   4.2347590  19.0468830
  90.2243410   3.0978140  19.7117450  73.7093380   2.1888870  23.1716800
  73.0542220   1.9200510  22.5276500  74.5471330   2.0793350  22.7218780
  91.2149010   4.5201040  23.7851070  91.5857840   3.7368360  23.3787040
  91.8550940   5.2090140  23.6068370  88.1982770   5.9037620  29.1981390
  87.3842610   6.3334780  29.4607180  88.6056970   6.5156030  28.5850440
  90.2608210   3.9585310  16.0981660  90.5357050   4.8664190  15.9700880
  90.0718950   3.8947840  17.0343650  74.7469310   2.5741440  27.7120140
  75.1142350   2.4868840  28.5916160  74.1780130   1.8107990  27.6127000
  88.2558820  10.6556220  22.7249660  88.8517890  10.3340790  22.0484080
  88.5136970  10.1828040  23.5162930  76.1621390   7.0874130  32.8740290
  76.1191020   6.7167040  33.7554750  76.2932400   8.0251700  33.0142110
  79.8627420   8.6433720  28.4750010  79.6218780   8.9108280  27.5880530
  80.8030060   8.8139450  28.5300870  91.1231580  10.6628100  29.2760650
  90.6289860  11.0596970  28.5587780  90.5144870  10.0377310  29.6697930
  76.0009420  10.0336380  29.9938070  75.4069740   9.9021080  30.7328110
  75.9933260   9.1974520  29.5280170  88.8071030  11.3051520  26.5547390
  88.3474000  12.0567330  26.1805410  88.1783490  10.5857990  26.4962190
  75.6321650   7.3994760  28.9446110  74.9055710   6.7800050  28.8772060
  75.6930800   7.7935370  28.0744190  79.2366750   9.6139760  25.7295520
  79.7531770   9.0027120  25.2043780  79.8864130  10.1168540  26.2206530
  81.9762250  10.5048250  26.5564500  82.2640060  10.2502550  25.6797510
  82.4885470   9.9525610  27.1470070  73.9151650  10.7169150  22.1542870
  73.7473690  10.0839830  22.8524760  73.0486160  10.9228550  21.8037060
  75.5214350   9.4102380  19.5993010  74.9961970   9.7910410  18.8954970
  75.4458930  10.0353150  20.3202720  82.0434610  11.4264350  33.9232700
  82.9701920  11.1908620  33.9668660  82.0285040  12.2536350  33.4418730
  90.2779670  10.9689920  20.9206950  90.4531860  10.2827660  20.2767870
  89.5801240  11.4936970  20.5283620  78.1207320  11.3584760  18.4742260
  78.8526140  11.0744040  17.9266150  78.3800990  11.1198040  19.3641640
  77.2822110   7.4749490  18.4788590  76.6530990   7.9434590  19.0274420
  77.3969940   6.6298710  18.9134780  88.6112170  10.6534210  33.7473740
  89.4037490  10.1583440  33.5399700  88.9045320  11.3324350  34.3549350
  82.8689870   3.3034170   6.5099060  82.0931970   2.8234610   6.7997630
  83.5202800   2.6239820   6.3355220  76.8855700   3.6153980   7.3874820
  76.0540580   3.3602690   7.7871330  77.4936680   3.6864750   8.1232740
  86.8897300   7.7094360   5.2898190  86.4278830   6.9381600   5.6185360
  87.7022850   7.7360430   5.7950640  76.8656960   7.6494070   7.5832840
  77.1685000   6.7591810   7.4043060  77.6100550   8.2064290   7.3555090
  83.1160610   9.9952370   4.9102180  82.4972050  10.4509870   4.3396620
  83.9712390  10.1503830   4.5091880  82.3098860   5.9791360   6.5169220
  82.2407140   5.0381300   6.3558350  83.0718720   6.0692770   7.0891790
  83.9823960   4.8791610   2.3034090  83.3641230   5.3441060   1.7396810
  84.4947210   5.5719090   2.7203600  78.8455720   4.4067480   8.9817690
  78.5125100   5.0336400   9.6238760  79.0222400   4.9329360   8.2019360
  78.0574820   6.3748280  10.7966870  78.6748820   7.0499360  10.5151320
  77.1967940   6.7836260  10.7054370  88.9752410   7.8387690   8.7121510
  88.2915930   8.5086800   8.7038180  89.5146700   8.0368340   7.9466370
  86.5111150   9.6831820   7.4266690  86.5238310   9.2794110   6.5588950
  85.9586370  10.4579110   7.3228120  87.8056570   6.4048040   2.5156860
  87.6952900   5.4622370   2.6406280  87.8024820   6.7663680   3.4019620
  85.9096590   4.5861660   8.7549300  86.3265380   4.3721770   7.9202760
  86.6336410   4.8434450   9.3257920  83.3476850   2.0313360   1.8719350
  82.4206130   1.9650740   2.1007820  83.5001670   2.9693490   1.7574590
  89.8558690   2.9848880   8.8465540  89.0277320   3.0541970   8.3715670
  90.4509170   3.5703190   8.3781370  87.3774140   3.5933660   2.3754600
  86.7586560   3.2553210   1.7280900  87.3598590   2.9493420   3.0833790
  78.9533490   2.5578100   4.6539080  78.5490490   1.8455350   4.1584980
  79.0396610   2.2131340   5.5427120  79.4215190   6.2445660   6.8178290
  79.1243480   5.6391130   6.1386070  80.3715010   6.2822970   6.7067650
  87.5100800   9.8177530  10.4801390  87.0331360  10.6249720  10.2874000
  86.8262590   9.1655860  10.6327600  78.5133620   5.9827350  13.4686090
  77.6162150   6.2067320  13.7159490  78.5386490   6.1062290  12.5197490
  77.3404840   2.8540670  12.0443460  77.2012610   3.7263470  12.4130860
  76.4586200   2.5113480  11.8991400  83.6634220   7.7716540   3.3508590
  84.1030130   8.5140870   2.9363980  83.6021110   8.0143110   4.2747550
  79.1385190   8.7962370  14.2528610  79.1100620   9.2005320  13.3857040
  78.9750160   7.8672730  14.0900210  91.0900010   9.5789470  15.5492780
  91.5659730  10.0572360  16.2281860  91.7107170   9.5106960  14.8238280
  73.2923490   4.6238220   7.9614370  73.3703910   4.7586990   7.0170090
  73.9065170   3.9154110   8.1542490  74.5371120   6.3238410   4.3720550
  74.1299200   6.4653000   3.5174150  75.4284130   6.0398570   4.1691760
  90.4933260   6.7702320  12.7092790  90.6196320   6.5314200  11.7909970
  90.5354640   5.9386860  13.1814870  84.3550000  10.4730320  11.2787600
  84.8694670  10.3838330  12.0810030  83.5119080  10.8190020  11.5715510
  78.8092780  10.5384190   2.4843220  78.6335260   9.6219730   2.2711020
  77.9548520  10.8971480   2.7241020  85.5980460   9.8935930   3.3418090
  86.0537410   9.1125310   3.6556710  85.9372980  10.6042750   3.8859270
  73.3483010   5.6652390  10.5008830  73.5114050   5.1957750   9.6828200
  73.8135460   5.1575950  11.1657670  74.9221990   5.0403820  12.6604640
  74.5376780   4.3997490  13.2587600  75.2334180   5.7439940  13.2299370
  88.1488270   4.1315350   6.8490710  88.8687390   4.6270640   6.4586820
  87.9470090   3.4533240   6.2044580  83.5307070   4.2024410  12.7359710
  83.4644380   3.2820080  12.4817300  82.9012210   4.2999850  13.4504350
  77.4337690   4.8030370   4.6943130  77.9516360   3.9998630   4.6400020
  76.9821710   4.7409510   5.5359960  78.1195350   2.2275980  14.4908380
  77.8195490   2.3733160  13.5936200  78.8906590   1.6681270  14.3981770
  83.4623800   7.0244980  12.4863510  83.4768340   6.0925940  12.2682420
  82.7548900   7.1104740  13.1253280  89.6735010   3.6652320  11.8332090
  88.9483200   4.2581100  11.6361480  90.2010470   3.6575860  11.0345460
  85.2034600   5.3912490   5.3315940  85.5558420   4.7940620   4.6717310
  84.3196930   5.0656720   5.5024190  81.2897880   6.1510180   2.7386350
  81.9769010   6.6979390   3.1193940  80.5030300   6.6950910   2.7735960
  80.5925090   3.1556210   2.3511710  81.0487870   3.9661460   2.5771900
  80.2413300   2.8379350   3.1830200  82.8957700   8.6662550   9.5804010
  83.5399920   8.8721930  10.2577430  83.2587140   7.9050950   9.1274860
  84.1689780   6.6694900   8.2981460  84.8112010   5.9688060   8.4113630
  84.6939130   7.4493340   8.1178350  85.9427400   7.4689800  11.5017520
  86.2783640   8.0556490  12.1795440  85.0227740   7.3382510  11.7315310
  73.7803390   9.2465240  13.2707460  73.8894510   8.3059980  13.1302850
  73.1283950   9.5119990  12.6221190  81.7715980   7.5181130  14.6705580
  81.4512850   6.7990370  15.2151270  81.0974340   8.1936200  14.7441640
  81.4407860  10.9456140   2.9711590  81.6949360  10.9077530   2.0490960
  80.4920340  10.8189470   2.9639840  89.4486020   9.0356870   6.2224360
  89.5733440   9.8588040   6.6948170  90.3151580   8.8247600   5.8748510
  76.9203550  11.1288080   5.8941490  77.6566030  10.5803540   6.1650060
  77.3044470  11.9944090   5.7547480  73.8049030   7.1961650   1.7683000
  72.8788810   7.4382790   1.7588410  74.2705460   8.0235910   1.6467750
  75.9261830  10.3134150  15.0827070  76.7274560  10.6346200  15.4962470
  75.4113650   9.9529730  15.8046980  84.7626460   6.4214020  15.0302480
  84.1564620   6.4445620  14.2898230  84.4580570   5.6897060  15.5669730
  86.1926830  10.1494310  13.6411890  87.1448580  10.0652330  13.5912130
  86.0455050  10.8136020  14.3145680  73.6459640   2.8007610  14.0263120
  74.1498660   2.2214890  14.5979350  72.9067060   3.0847840  14.5639490
  80.6997580   4.2078600  13.5598640  79.9343250   4.7763600  13.4753310
  80.8813540   3.9154810  12.6666870  87.8420930   5.9383930  14.1173660
  88.5830400   6.2759690  13.6141120  87.0793610   6.1075990  13.5643430
  86.5166590   3.9898760  12.6528870  86.9307610   4.1443840  13.5019290
  85.5817590   4.1153980  12.8154650  81.2781820   3.9419240  10.6224800
  81.6969930   4.7851970  10.4501040  80.3590450   4.0791280  10.3931580
  85.9533620   2.2272610  10.5825150  85.4268840   2.7515230   9.9790290
  86.2964960   2.8600000  11.2134880  79.1289240  10.2472250  11.7382530
  78.5910330  10.9718310  11.4191230  79.3823200   9.7702590  10.9479870
  81.9851450  11.4823460  11.9969180  81.9110150  12.3858600  12.3041550
  81.0830290  11.1635360  11.9691250  73.3878740   8.8098050   5.3002800
  73.7181750   7.9419110   5.0681440  73.8169740   9.0156570   6.1307760
  77.9840660   7.1407060   2.9604770  77.6836200   7.0172030   3.8608680
  77.8778150   6.2815650   2.5520500  73.8768950   9.6768640   8.0384430
  73.4399940   9.8569440   8.8708580  74.4446630  10.4343260   7.8966150
  89.5131130   9.1785640  12.3261740  88.9133120   9.2378200  11.5825660
  89.6425030   8.2390620  12.4558590  73.7093380   2.1888870   4.3973310
  73.0542220   1.9200510   3.7533010  74.5471330   2.0793350   3.9475290
  91.2149010   4.5201040   5.0107580  91.5857840   3.7368360   4.6043550
  91.8550940   5.2090140   4.8324880  88.1982770   5.9037620  10.4237900
  87.3842610   6.3334780  10.6863690  88.6056970   6.5156030   9.8106950
  74.7469310   2.5741440   8.9376650  75.1142350   2.4868840   9.8172670
  74.1780130   1.8107990   8.8383510  88.2558820  10.6556220   3.9506170
  88.8517890  10.3340790   3.2740590  88.5136970  10.1828040   4.7419440
  76.1621390   7.0874130  14.0996800  76.1191020   6.7167040  14.9811260
  76.2932400   8.0251700  14.2398620  79.8627420   8.6433720   9.7006520
  79.6218780   8.9108280   8.8137040  80.8030060   8.8139450   9.7557380
  91.1231580  10.6628100  10.5017160  90.6289860  11.0596970   9.7844290
  90.5144870  10.0377310  10.8954440  76.0009420  10.0336380  11.2194580
  75.4069740   9.9021080  11.9584620  75.9933260   9.1974520  10.7536680
  88.8071030  11.3051520   7.7803900  88.3474000  12.0567330   7.4061920
  88.1783490  10.5857990   7.7218700  75.6321650   7.3994760  10.1702620
  74.9055710   6.7800050  10.1028570  75.6930800   7.7935370   9.3000700
  79.2366750   9.6139760   6.9552030  79.7531770   9.0027120   6.4300290
  79.8864130  10.1168540   7.4463040  81.9762250  10.5048250   7.7821010
  82.2640060  10.2502550   6.9054020  82.4885470   9.9525610   8.3726580
  73.9151650  10.7169150   3.3799380  73.7473690  10.0839830   4.0781270
  73.0486160  10.9228550   3.0293570  82.0434610  11.4264350  15.1489210
  82.9701920  11.1908620  15.1925170  82.0285040  12.2536350  14.6675240
  90.2779670  10.9689920   2.1463460  90.4531860  10.2827660   1.5024380
  89.5801240  11.4936970   1.7540130  88.6112170  10.6534210  14.9730250
  89.4037490  10.1583440  14.7656210  88.9045320  11.3324350  15.5805860
  65.9628340  95.3972600  98.5007240  65.8822390  94.4827210  98.2298950
  65.5492760  95.8939670  97.7946950  56.5204160  92.4473320  95.0434660
  55.6320860  92.7889290  94.9414540  56.8045350  92.2473640  94.1515490
  54.4837170  95.0478970 100.9274360  55.0553280  94.2801170 100.9278000
  54.4838710  95.3467730 100.0180970  55.7262040  90.4563330 102.7143290
  55.5464880  89.5589080 102.9946050  55.3242120  91.0035200 103.3890240
  64.5660540  92.6579190 100.6155600  64.9425360  91.7851070 100.5029270
  64.4680050  92.9937890  99.7246040  58.6965550  91.0304820  96.0773040
  58.8032300  91.9308550  96.3841800  57.7857910  90.9822790  95.7867690
  68.3484660  90.1529630  97.5483940  69.1694280  89.6626200  97.5909420
  68.3818740  90.7427290  98.3015780  56.3448710  92.9523830 101.3225630
  57.0258820  93.2162200 101.9413030  56.0296760  92.1124700 101.6563640
  60.5373280  93.9991190 100.4098220  61.0451500  94.4972160 101.0503240
  61.0686520  93.2226390 100.2337580  72.6384210  92.1696380 104.1127570
  71.9336380  92.5578090 103.5942680  72.9042130  92.8646670 104.7148500
  58.8209380  88.6389750 104.6761640  58.8227820  89.1562140 103.8707540
  57.9913690  88.1619930 104.6531570  68.5846140  92.0930010 100.3211480
  67.8801710  92.3814900 100.9014590  68.9458300  92.9030120  99.9611040
  58.5024710  90.3499710 102.6832090  58.8441520  91.1941760 102.3885960
  57.5640520  90.4983450 102.7997430  71.6533060  91.5384800 100.7120690
  70.7057970  91.5723780 100.8436120  71.9783050  92.3523750 101.0970050
  62.1852600  87.8381980  99.0076680  62.4927580  87.2828870  98.2912180
  61.2553300  87.9726440  98.8249670  64.5733360  95.9030810  95.7436800
  63.6462640  95.8368190  95.9725270  64.7258180  96.8410940  95.6292040
  64.5602440  92.1747810  92.7403960  63.6206110  92.3361770  92.8256420
  64.8785700  92.8933490  92.1939950  68.0457210  93.6435650 103.6637860
  67.6328390  94.4689360 103.9177850  67.3133160  93.0580690 103.4714220
  60.1790000  96.4295550  98.5256530  59.7747000  95.7172800  98.0302430
  60.2653120  96.0848790  99.4144570  58.8918620  93.2038760 102.3055570
  59.4433210  93.3134100 101.5308820  59.4062130  93.5776360 103.0210800
  70.3612490  87.9580730  91.5685840  70.0485150  88.0507560  92.4684910
  71.1224960  88.5361760  91.5183270  56.8794630  95.3240530  96.0263180
  56.7592230  96.0502620  95.4144450  56.5695520  94.5543440  95.5491090
  59.3458290  88.6675600  99.4086850  58.9026440  89.4485140  99.0771370
  59.9043280  88.9905490 100.1157790  62.4617110  88.2886300  94.2892680
  61.8371290  88.2846170  95.0145990  62.3747230  87.4217260  93.8928650
  61.3834190  89.2122930 101.2676450  61.6806520  90.1185760 101.1868470
  61.9319750  88.7241710 100.6536020  59.1372510  93.7909170  97.1368100
  58.9113430  93.5746340  98.0414720  58.3565040  94.2237630  96.7914070
  66.3670270  93.7972540  95.7358750  65.7679160  94.5208340  95.5522370
  66.9149880  93.7349320  94.9535200  64.9735140  92.4336080  97.7662030
  65.3664710  92.7508280  96.9530720  65.3351990  91.5547960  97.8806550
  54.0099310  89.0236880  99.9892230  53.7212360  89.5939740 100.7017210
  54.7545070  88.5441330 100.3523460  54.1969540  92.9657000  91.1994950
  54.1144210  93.9087760  91.3409940  53.8452600  92.8231910  90.3207300
  65.5590280  95.0241830 101.8612810  64.8271400  95.5328640 102.2102910
  65.1614620  94.2071810 101.5601590  61.9967670  91.6996030 100.2665300
  62.0003730  91.2585980  99.4169840  62.8918790  92.0213360 100.3737120
  57.8470050  91.5822520  99.2259510  57.5070100  92.0597750  99.9826560
  57.0847370  91.1287640  98.8660610  62.0587820  92.7008110  93.2572060
  62.1800640  92.6594590  94.2057880  61.6736330  93.5632260  93.1018790
  66.0216190  90.4775510 101.2735750  66.0388930  90.9284160 102.1177600
  65.7731770  89.5781150 101.4869190  61.0709320  95.0109250  92.6555360
  60.5026220  94.5627500  92.0291270  61.7798320  95.3702030  92.1220510
  62.2975640  95.7597810 102.0130710  62.6645770  95.2856380 102.7592050
  62.1080700  96.6339380 102.3539050  55.1616130  90.5041500  98.1424180
  54.8763050  90.1397170  98.9802800  55.0994990  89.7721960  97.5287320
  60.0875010  94.8006450 104.3314920  59.7832080  95.6798430 104.5565280
  61.0421470  94.8606240 104.3672360  64.8354720  89.3970760  94.8637550
  64.0219330  88.8983930  94.7882860  64.6416670  90.2369010  94.4473900
  67.5503110  93.7690410  93.1599710  68.4382730  94.0807640  92.9851050
  67.5208200  92.8962660  92.7680290  69.8217380  95.0802250  92.6279570
  69.7381100  95.5116470  91.7776010  70.5411570  95.5400600  93.0606390
  54.6546790  95.6400450  92.1020880  55.5241640  95.9225250  92.3856800
  54.1637110  96.4536320  91.9869690  57.7193380  87.3711310  96.6951680
  57.5908010  87.3629210  97.6436600  56.8955400  87.7094400  96.3442690
  66.2126090  91.6224740 103.9059830  66.5806910  90.8019950 104.2339400
  65.3524290  91.6826630 104.3215480  69.5788120  90.5781680  94.7147390
  68.9501280  90.6827350  94.0005620  69.0840040  90.7978460  95.5041270
  61.5472150  92.8567630  96.1305270  60.8388300  93.3253970  96.5718880
  61.8316630  92.1989640  96.7650460  63.1728080  94.2764330 104.1297800
  63.6713330  94.7510150 104.7949650  63.3151030  93.3527850 104.3367830
  65.5787580  89.5818290  97.5701060  65.4555360  89.6004420  96.6210570
  66.5272140  89.6297230  97.6899460  59.7507170  91.1652710  93.5055980
  60.5997700  91.6022860  93.4396170  59.3838440  91.4772970  94.3328040
  68.6716950  95.7365470  98.4187550  67.7307090  95.7515700  98.5935240
  68.9861020  94.9501430  98.8647850  57.3445350  94.8510140  92.6624400
  57.4248940  93.9037650  92.7741800  58.2365100  95.1817020  92.7685060
  62.0978780  88.9182360 103.8729810  61.6496080  88.9406620 103.0275360
  61.4643980  88.5201380 104.4700110  59.5776520  93.4883430  90.8992310
  59.3765580  92.6250790  91.2605650  59.4068570  93.4016790  89.9613910
  67.0564830  88.2991660  93.4279190  67.3367120  87.4559560  93.7838610
  66.2830560  88.5314770  93.9417940  58.3759320  90.5884050  90.8870190
  58.6785220  90.5951480  89.9789340  59.1153910  90.2381910  91.3837850
  61.5944250  89.5318670  91.8726390  61.2466250  88.8542660  91.2928840
  61.7957020  89.0708180  92.6869780  54.9349890  96.0606320  98.2690760
  54.2798730  95.7917960  97.6250460  55.7727840  95.9510800  97.8192740
  67.8840330  90.8547610  92.4909250  68.3025210  90.6678590  91.6505910
  67.5776390  90.0026660  92.8012180  71.3830060  95.7671750  96.1885050
  71.0073660  94.9999680  95.7566340  70.6533180  96.1494450  96.6759980
  55.9725820  96.4458890 102.8094100  56.3398860  96.3586290 103.6890120
  55.4036640  95.6825440 102.7100960  54.1487970  93.2705250  94.2116090
  53.2452050  93.5335450  94.0367750  54.6328590  93.5416420  93.4316050
  70.6581020  93.9929240  99.4892290  71.1818500  93.4991890  98.8582460
  71.2440440  94.1279600 100.2339860  70.8370740  94.0769110 103.0111840
  69.8873450  94.0432650 103.1256830  71.0183750  94.9869220 102.7761610
  56.6915180  92.3270790  92.1210470  57.4006880  91.9054010  91.6357750
  55.9755120  92.3946020  91.4893820  56.3389340  88.3810120  91.1613120
  57.0617470  88.9219060  91.4794340  56.6113860  88.1073540  90.2854660
  70.1480990  93.2502590  95.4284700  70.6440110  93.0173460  96.2133580
  69.9497060  92.4114430  95.0122340  56.0281530  87.6316310 101.0635740
  56.6757720  87.0813690 100.6230900  56.4483370  87.8859460 101.8851550
  71.5768150  91.8863540  97.9622380  71.4667430  91.7319580  98.9004650
  72.3375740  91.3584480  97.7197790  69.9233870  87.8257670 104.4205380
  70.5606090  88.4391810 104.7864570  70.0708760  87.8618330 103.4754610
  72.4658420  89.7171460  91.2028520  73.3907730  89.5852640  90.9946810
  72.4434210  89.7964280  92.1564970  72.5396910  90.4882120  93.8285230
  71.7448410  90.4227240  94.3578140  72.7440190  91.4232760  93.8170580
  55.7813530  87.7871980 103.8061060  55.4328350  88.2435800 104.5719240
  55.4501230  86.8929110 103.8883490  66.6720950  87.1986060 103.2942060
  65.7980790  87.5321170 103.0914990  66.5631700  86.7259240 104.1193930
  67.5792930  89.4056930 104.6783780  67.2506290  88.5908690 104.2985510
  68.5275230  89.3626740 104.5549470  64.4195770  88.1155900 102.2334970
  63.6367560  88.5901400 102.5131730  64.1258700  87.2110730 102.1248150
  68.9716840  88.8179000 100.2784060  69.4124930  88.7624100  99.4305660
  68.7024430  89.7337010 100.3494240  70.8355410  88.4494240  98.2892880
  70.7743810  87.5055460  98.1423900  71.6147440  88.5574330  98.8346340
  55.7636180  88.4203380  94.7548690  56.5215540  88.5332260  94.1812720
  55.3013350  89.2572580  94.7092120  62.3049990  90.5342650  97.7451000
  61.4924500  90.1599540  97.4046880  62.8091630  89.7787730  98.0472190
  66.8074970  87.1985100  98.9834070  67.4104340  87.7705310  99.4582590
  66.0667960  87.7624540  98.7607970  69.9509570  87.6006660  94.2574350
  70.1460200  88.4990110  94.5241780  69.1639440  87.3693740  94.7507300
  58.1361330  88.9467430  93.2950660  58.6654090  88.1597230  93.1658610
  58.7689650  89.6258620  93.5286190  60.3299170  88.6842570  96.3496050
  59.7001910  87.9829880  96.5166180  59.7904310  89.4446700  96.1329210
  65.9628340  95.3972600  79.7263750  65.8822390  94.4827210  79.4555460
  65.5492760  95.8939670  79.0203460  56.5204160  92.4473320  76.2691170
  55.6320860  92.7889290  76.1671050  56.8045350  92.2473640  75.3772000
  54.4837170  95.0478970  82.1530870  55.0553280  94.2801170  82.1534510
  54.4838710  95.3467730  81.2437480  55.7262040  90.4563330  83.9399800
  55.5464880  89.5589080  84.2202560  55.3242120  91.0035200  84.6146750
  64.5660540  92.6579190  81.8412110  64.9425360  91.7851070  81.7285780
  64.4680050  92.9937890  80.9502550  58.6965550  91.0304820  77.3029550
  58.8032300  91.9308550  77.6098310  57.7857910  90.9822790  77.0124200
  68.3484660  90.1529630  78.7740450  69.1694280  89.6626200  78.8165930
  68.3818740  90.7427290  79.5272290  56.3448710  92.9523830  82.5482140
  57.0258820  93.2162200  83.1669540  56.0296760  92.1124700  82.8820150
  60.5373280  93.9991190  81.6354730  61.0451500  94.4972160  82.2759750
  61.0686520  93.2226390  81.4594090  72.6384210  92.1696380  85.3384080
  71.9336380  92.5578090  84.8199190  72.9042130  92.8646670  85.9405010
  58.8209380  88.6389750  85.9018150  58.8227820  89.1562140  85.0964050
  57.9913690  88.1619930  85.8788080  68.5846140  92.0930010  81.5467990
  67.8801710  92.3814900  82.1271100  68.9458300  92.9030120  81.1867550
  58.5024710  90.3499710  83.9088600  58.8441520  91.1941760  83.6142470
  57.5640520  90.4983450  84.0253940  71.6533060  91.5384800  81.9377200
  70.7057970  91.5723780  82.0692630  71.9783050  92.3523750  82.3226560
  62.1852600  87.8381980  80.2333190  62.4927580  87.2828870  79.5168690
  61.2553300  87.9726440  80.0506180  64.5733360  95.9030810  76.9693310
  63.6462640  95.8368190  77.1981780  64.7258180  96.8410940  76.8548550
  64.5602440  92.1747810  73.9660470  63.6206110  92.3361770  74.0512930
  64.8785700  92.8933490  73.4196460  68.0457210  93.6435650  84.8894370
  67.6328390  94.4689360  85.1434360  67.3133160  93.0580690  84.6970730
  60.1790000  96.4295550  79.7513040  59.7747000  95.7172800  79.2558940
  60.2653120  96.0848790  80.6401080  58.8918620  93.2038760  83.5312080
  59.4433210  93.3134100  82.7565330  59.4062130  93.5776360  84.2467310
  70.3612490  87.9580730  72.7942350  70.0485150  88.0507560  73.6941420
  71.1224960  88.5361760  72.7439780  56.8794630  95.3240530  77.2519690
  56.7592230  96.0502620  76.6400960  56.5695520  94.5543440  76.7747600
  71.5713780  92.6952230  88.7716490  70.9558050  93.2031900  88.2431950
  71.2510200  91.7950560  88.7142430  59.3458290  88.6675600  80.6343360
  58.9026440  89.4485140  80.3027880  59.9043280  88.9905490  81.3414300
  63.6328100  91.5344120  86.2378680  63.1707470  91.7427140  87.0498620
  63.2306210  90.7203470  85.9349350  68.6332610  92.7553070  87.3675340
  67.7826200  92.4558820  87.6884410  68.4734400  92.9995080  86.4559160
  65.7282320  94.2554820  89.4674130  66.0535730  93.4218570  89.1276360
  66.5162650  94.7783340  89.6152460  62.4617110  88.2886300  75.5149190
  61.8371290  88.2846170  76.2402500  62.3747230  87.4217260  75.1185160
  61.3834190  89.2122930  82.4932960  61.6806520  90.1185760  82.4124980
  61.9319750  88.7241710  81.8792530  59.1372510  93.7909170  78.3624610
  58.9113430  93.5746340  79.2671230  58.3565040  94.2237630  78.0170580
  66.3670270  93.7972540  76.9615260  65.7679160  94.5208340  76.7778880
  66.9149880  93.7349320  76.1791710  61.5771720  94.6894750  89.0284880
  61.4815320  93.7489480  88.8785280  62.4203700  94.9109820  88.6332950
  64.9735140  92.4336080  78.9918540  65.3664710  92.7508280  78.1787230
  65.3351990  91.5547960  79.1063060  56.7082260  91.1008420  87.1818660
  56.3145650  91.9483630  87.3891440  56.0200660  90.4634790  87.3727300
  63.2827310  91.1843390  90.2515400  62.5925630  90.9915590  90.8861490
  64.0259610  91.4678030  90.7839700  54.0099310  89.0236880  81.2148740
  53.7212360  89.5939740  81.9273720  54.7545070  88.5441330  81.5779970
  54.1969540  92.9657000  72.4251460  54.1144210  93.9087760  72.5666450
  53.8452600  92.8231910  71.5463810  65.5590280  95.0241830  83.0869320
  64.8271400  95.5328640  83.4359420  65.1614620  94.2071810  82.7858100
  61.9967670  91.6996030  81.4921810  62.0003730  91.2585980  80.6426350
  62.8918790  92.0213360  81.5993630  57.8470050  91.5822520  80.4516020
  57.5070100  92.0597750  81.2083070  57.0847370  91.1287640  80.0917120
  62.0587820  92.7008110  74.4828570  62.1800640  92.6594590  75.4314390
  61.6736330  93.5632260  74.3275300  66.0216190  90.4775510  82.4992260
  66.0388930  90.9284160  83.3434110  65.7731770  89.5781150  82.7125700
  61.0709320  95.0109250  73.8811870  60.5026220  94.5627500  73.2547780
  61.7798320  95.3702030  73.3477020  69.4486940  87.8907690  88.3378640
  69.7732710  87.1597350  88.8636620  69.4843450  87.5721330  87.4359630
  62.2975640  95.7597810  83.2387220  62.6645770  95.2856380  83.9848560
  62.1080700  96.6339380  83.5795560  55.1616130  90.5041500  79.3680690
  54.8763050  90.1397170  80.2059310  55.0994990  89.7721960  78.7543830
  60.0875010  94.8006450  85.5571430  59.7832080  95.6798430  85.7821790
  61.0421470  94.8606240  85.5928870  64.8354720  89.3970760  76.0894060
  64.0219330  88.8983930  76.0139370  64.6416670  90.2369010  75.6730410
  67.5503110  93.7690410  74.3856220  68.4382730  94.0807640  74.2107560
  67.5208200  92.8962660  73.9936800  56.1438740  95.6409190  86.7042790
  55.7853680  96.3063040  87.2916130  55.8493300  94.8092740  87.0755410
  59.3451860  96.0993430  89.5882340  59.0452000  96.2450610  88.6910160
  60.1163100  95.5398720  89.4955730  69.8217380  95.0802250  73.8536080
  69.7381100  95.5116470  73.0032520  70.5411570  95.5400600  74.2862900
  54.6546790  95.6400450  73.3277390  55.5241640  95.9225250  73.6113310
  54.1637110  96.4536320  73.2126200  57.7193380  87.3711310  77.9208190
  57.5908010  87.3629210  78.8693110  56.8955400  87.7094400  77.5699200
  54.7187310  89.1302430  87.3814890  54.0045830  89.3299350  87.9867500
  55.1382350  88.3542000  87.7529690  66.2126090  91.6224740  85.1316340
  66.5806910  90.8019950  85.4595910  65.3524290  91.6826630  85.5471990
  69.5788120  90.5781680  75.9403900  68.9501280  90.6827350  75.2262130
  69.0840040  90.7978460  76.7297780  61.5472150  92.8567630  77.3561780
  60.8388300  93.3253970  77.7975390  61.8316630  92.1989640  77.9906970
  63.1728080  94.2764330  85.3554310  63.6713330  94.7510150  86.0206160
  63.3151030  93.3527850  85.5624340  65.5787580  89.5818290  78.7957570
  65.4555360  89.6004420  77.8467080  66.5272140  89.6297230  78.9155970
  59.7507170  91.1652710  74.7312490  60.5997700  91.6022860  74.6652680
  59.3838440  91.4772970  75.5584550  70.3794940  90.4932290  86.1982700
  69.8768540  91.2337690  86.5376510  71.1951600  90.8816290  85.8819490
  68.6716950  95.7365470  79.6444060  67.7307090  95.7515700  79.8191750
  68.9861020  94.9501430  80.0904360  57.3445350  94.8510140  73.8880910
  57.4248940  93.9037650  73.9998310  58.2365100  95.1817020  73.9941570
  54.8716150  96.6725060  89.1237080  55.3755170  96.0932340  89.6953310
  54.1323570  96.9565290  89.6613450  56.9039230  94.8154650  90.0187150
  56.9444570  94.5168520  90.9272380  57.7584730  95.2162260  89.8594670
  58.8445040  93.3946750  87.9861640  58.3141500  92.9037700  87.3584980
  59.5133110  93.8230950  87.4519570  68.2145270  95.2012370  89.7541980
  68.7966040  94.4464690  89.6662460  68.3907040  95.7319810  88.9773460
  59.3317340  90.3609120  88.0658930  59.2374210  89.7429870  87.3409800
  58.7514730  91.0875410  87.8388840  62.0978780  88.9182360  85.0986320
  61.6496080  88.9406620  84.2531870  61.4643980  88.5201380  85.6956620
  64.8402230  95.5452870  87.1036600  64.9598440  94.9494010  87.8431440
  65.6996230  95.5822560  86.6837900  67.1790130  96.0990060  85.6799110
  66.6525350  96.6232680  85.0764250  67.5221470  96.7317450  86.3108840
  59.5776520  93.4883430  72.1248820  59.3765580  92.6250790  72.4862160
  59.4068570  93.4016790  71.1870420  61.6071000  92.0874220  88.3612420
  62.1970690  91.7790070  89.0490240  60.7891240  91.6153970  88.5172320
  66.4264430  91.7040030  88.5945440  65.7379950  91.0421570  88.5295430
  67.1470450  91.2578300  89.0393900  67.0564830  88.2991660  74.6535700
  67.3367120  87.4559560  75.0095120  66.2830560  88.5314770  75.1674450
  58.3759320  90.5884050  72.1126700  58.6785220  90.5951480  71.2045850
  59.1153910  90.2381910  72.6094360  61.5944250  89.5318670  73.0982900
  61.2466250  88.8542660  72.5185350  61.7957020  89.0708180  73.9126290
  54.9349890  96.0606320  79.4947270  54.2798730  95.7917960  78.8506970
  55.7727840  95.9510800  79.0449250  67.8840330  90.8547610  73.7165760
  68.3025210  90.6678590  72.8762420  67.5776390  90.0026660  74.0268690
  71.3830060  95.7671750  77.4141560  71.0073660  94.9999680  76.9822850
  70.6533180  96.1494450  77.9016490  55.9725820  96.4458890  84.0350610
  56.3398860  96.3586290  84.9146630  55.4036640  95.6825440  83.9357470
  70.7729680  94.9143270  87.0481080  70.5415770  94.6856020  86.1479030
  71.0334230  95.8342820  87.0025970  55.5241820  93.3567980  87.9409030
  54.6297870  93.3234740  88.2802740  56.0639370  93.5554770  88.7060280
  69.2117750  90.1399700  89.8260780  70.0887930  90.1483100  90.2094780
  69.2238590  89.4030540  89.2153130  54.1487970  93.2705250  75.4372600
  53.2452050  93.5335450  75.2624260  54.6328590  93.5416420  74.6572560
  70.6581020  93.9929240  80.7148800  71.1818500  93.4991890  80.0838970
  71.2440440  94.1279600  81.4596370  70.8370740  94.0769110  84.2368350
  69.8873450  94.0432650  84.3513340  71.0183750  94.9869220  84.0018120
  56.6915180  92.3270790  73.3466980  57.4006880  91.9054010  72.8614260
  55.9755120  92.3946020  72.7150330  56.3389340  88.3810120  72.3869630
  57.0617470  88.9219060  72.7050850  56.6113860  88.1073540  71.5111170
  70.1480990  93.2502590  76.6541210  70.6440110  93.0173460  77.4390090
  69.9497060  92.4114430  76.2378850  56.0281530  87.6316310  82.2892250
  56.6757720  87.0813690  81.8487410  56.4483370  87.8859460  83.1108060
  71.5768150  91.8863540  79.1878890  71.4667430  91.7319580  80.1261160
  72.3375740  91.3584480  78.9454300  69.9233870  87.8257670  85.6461890
  70.5606090  88.4391810  86.0121080  70.0708760  87.8618330  84.7011120
  72.4658420  89.7171460  72.4285030  73.3907730  89.5852640  72.2203320
  72.4434210  89.7964280  73.3821480  72.5396910  90.4882120  75.0541740
  71.7448410  90.4227240  75.5834650  72.7440190  91.4232760  75.0427090
  55.7813530  87.7871980  85.0317570  55.4328350  88.2435800  85.7975750
  55.4501230  86.8929110  85.1140000  63.2938350  88.9783860  88.5536990
  63.2327240  89.5705690  89.3032400  64.2338730  88.8709820  88.4087250
  65.9312910  88.6353920  88.1929280  66.5453320  88.9533210  87.5310360
  66.4762470  88.1502510  88.8125140  56.4534170  87.3148180  88.3068340
  57.0017160  87.1336230  87.5434450  56.5189480  86.5242290  88.8424650
  66.6720950  87.1986060  84.5198570  65.7980790  87.5321170  84.3171500
  66.5631700  86.7259240  85.3450440  67.5792930  89.4056930  85.9040290
  67.2506290  88.5908690  85.5242020  68.5275230  89.3626740  85.7805980
  64.4195770  88.1155900  83.4591480  63.6367560  88.5901400  83.7388240
  64.1258700  87.2110730  83.3504660  68.9716840  88.8179000  81.5040570
  69.4124930  88.7624100  80.6562170  68.7024430  89.7337010  81.5750750
  70.8355410  88.4494240  79.5149390  70.7743810  87.5055460  79.3680410
  71.6147440  88.5574330  80.0602850  55.7636180  88.4203380  75.9805200
  56.5215540  88.5332260  75.4069230  55.3013350  89.2572580  75.9348630
  62.3049990  90.5342650  78.9707510  61.4924500  90.1599540  78.6303390
  62.8091630  89.7787730  79.2728700  66.8074970  87.1985100  80.2090580
  67.4104340  87.7705310  80.6839100  66.0667960  87.7624540  79.9864480
  69.9509570  87.6006660  75.4830860  70.1460200  88.4990110  75.7498290
  69.1639440  87.3693740  75.9763810  58.1361330  88.9467430  74.5207170
  58.6654090  88.1597230  74.3915120  58.7689650  89.6258620  74.7542700
  60.3299170  88.6842570  77.5752560  59.7001910  87.9829880  77.7422690
  59.7904310  89.4446700  77.3585720  60.4554730  87.9626550  90.0105050
  60.1739000  88.4660150  89.2465870  60.8374430  87.1648300  89.6447180
  67.0570190  87.3780130  90.5885520  66.9435640  87.6974740  91.4837040
  67.8739930  87.7792640  90.2922800  65.9628340  95.3972600  60.9520260
  65.8822390  94.4827210  60.6811970  65.5492760  95.8939670  60.2459970
  56.5204160  92.4473320  57.4947680  55.6320860  92.7889290  57.3927560
  56.8045350  92.2473640  56.6028510  54.4837170  95.0478970  63.3787380
  55.0553280  94.2801170  63.3791020  54.4838710  95.3467730  62.4693990
  55.7262040  90.4563330  65.1656310  55.5464880  89.5589080  65.4459070
  55.3242120  91.0035200  65.8403260  64.5660540  92.6579190  63.0668620
  64.9425360  91.7851070  62.9542290  64.4680050  92.9937890  62.1759060
  58.6965550  91.0304820  58.5286060  58.8032300  91.9308550  58.8354820
  57.7857910  90.9822790  58.2380710  68.3484660  90.1529630  59.9996960
  69.1694280  89.6626200  60.0422440  68.3818740  90.7427290  60.7528800
  56.3448710  92.9523830  63.7738650  57.0258820  93.2162200  64.3926050
  56.0296760  92.1124700  64.1076660  60.5373280  93.9991190  62.8611240
  61.0451500  94.4972160  63.5016260  61.0686520  93.2226390  62.6850600
  72.6384210  92.1696380  66.5640590  71.9336380  92.5578090  66.0455700
  72.9042130  92.8646670  67.1661520  58.8209380  88.6389750  67.1274660
  58.8227820  89.1562140  66.3220560  57.9913690  88.1619930  67.1044590
  68.5846140  92.0930010  62.7724500  67.8801710  92.3814900  63.3527610
  68.9458300  92.9030120  62.4124060  58.5024710  90.3499710  65.1345110
  58.8441520  91.1941760  64.8398980  57.5640520  90.4983450  65.2510450
  71.6533060  91.5384800  63.1633710  70.7057970  91.5723780  63.2949140
  71.9783050  92.3523750  63.5483070  62.1852600  87.8381980  61.4589700
  62.4927580  87.2828870  60.7425200  61.2553300  87.9726440  61.2762690
  64.5733360  95.9030810  58.1949820  63.6462640  95.8368190  58.4238290
  64.7258180  96.8410940  58.0805060  64.5602440  92.1747810  55.1916980
  63.6206110  92.3361770  55.2769440  64.8785700  92.8933490  54.6452970
  68.0457210  93.6435650  66.1150880  67.6328390  94.4689360  66.3690870
  67.3133160  93.0580690  65.9227240  60.1790000  96.4295550  60.9769550
  59.7747000  95.7172800  60.4815450  60.2653120  96.0848790  61.8657590
  58.8918620  93.2038760  64.7568590  59.4433210  93.3134100  63.9821840
  59.4062130  93.5776360  65.4723820  70.3612490  87.9580730  54.0198860
  70.0485150  88.0507560  54.9197930  71.1224960  88.5361760  53.9696290
  56.8794630  95.3240530  58.4776200  56.7592230  96.0502620  57.8657470
  56.5695520  94.5543440  58.0004110  71.5713780  92.6952230  69.9973000
  70.9558050  93.2031900  69.4688460  71.2510200  91.7950560  69.9398940
  59.3458290  88.6675600  61.8599870  58.9026440  89.4485140  61.5284390
  59.9043280  88.9905490  62.5670810  63.6328100  91.5344120  67.4635190
  63.1707470  91.7427140  68.2755130  63.2306210  90.7203470  67.1605860
  68.6332610  92.7553070  68.5931850  67.7826200  92.4558820  68.9140920
  68.4734400  92.9995080  67.6815670  65.7282320  94.2554820  70.6930640
  66.0535730  93.4218570  70.3532870  66.5162650  94.7783340  70.8408970
  62.4617110  88.2886300  56.7405700  61.8371290  88.2846170  57.4659010
  62.3747230  87.4217260  56.3441670  61.3834190  89.2122930  63.7189470
  61.6806520  90.1185760  63.6381490  61.9319750  88.7241710  63.1049040
  59.1372510  93.7909170  59.5881120  58.9113430  93.5746340  60.4927740
  58.3565040  94.2237630  59.2427090  66.3670270  93.7972540  58.1871770
  65.7679160  94.5208340  58.0035390  66.9149880  93.7349320  57.4048220
  61.5771720  94.6894750  70.2541390  61.4815320  93.7489480  70.1041790
  62.4203700  94.9109820  69.8589460  64.9735140  92.4336080  60.2175050
  65.3664710  92.7508280  59.4043740  65.3351990  91.5547960  60.3319570
  56.7082260  91.1008420  68.4075170  56.3145650  91.9483630  68.6147950
  56.0200660  90.4634790  68.5983810  63.2827310  91.1843390  71.4771910
  62.5925630  90.9915590  72.1118000  64.0259610  91.4678030  72.0096210
  54.0099310  89.0236880  62.4405250  53.7212360  89.5939740  63.1530230
  54.7545070  88.5441330  62.8036480  54.1969540  92.9657000  53.6507970
  54.1144210  93.9087760  53.7922960  53.8452600  92.8231910  52.7720320
  65.5590280  95.0241830  64.3125830  64.8271400  95.5328640  64.6615930
  65.1614620  94.2071810  64.0114610  61.9967670  91.6996030  62.7178320
  62.0003730  91.2585980  61.8682860  62.8918790  92.0213360  62.8250140
  57.8470050  91.5822520  61.6772530  57.5070100  92.0597750  62.4339580
  57.0847370  91.1287640  61.3173630  62.0587820  92.7008110  55.7085080
  62.1800640  92.6594590  56.6570900  61.6736330  93.5632260  55.5531810
  66.0216190  90.4775510  63.7248770  66.0388930  90.9284160  64.5690620
  65.7731770  89.5781150  63.9382210  61.0709320  95.0109250  55.1068380
  60.5026220  94.5627500  54.4804290  61.7798320  95.3702030  54.5733530
  69.4486940  87.8907690  69.5635150  69.7732710  87.1597350  70.0893130
  69.4843450  87.5721330  68.6616140  62.2975640  95.7597810  64.4643730
  62.6645770  95.2856380  65.2105070  62.1080700  96.6339380  64.8052070
  55.1616130  90.5041500  60.5937200  54.8763050  90.1397170  61.4315820
  55.0994990  89.7721960  59.9800340  60.0875010  94.8006450  66.7827940
  59.7832080  95.6798430  67.0078300  61.0421470  94.8606240  66.8185380
  64.8354720  89.3970760  57.3150570  64.0219330  88.8983930  57.2395880
  64.6416670  90.2369010  56.8986920  67.5503110  93.7690410  55.6112730
  68.4382730  94.0807640  55.4364070  67.5208200  92.8962660  55.2193310
  56.1438740  95.6409190  67.9299300  55.7853680  96.3063040  68.5172640
  55.8493300  94.8092740  68.3011920  59.3451860  96.0993430  70.8138850
  59.0452000  96.2450610  69.9166670  60.1163100  95.5398720  70.7212240
  69.8217380  95.0802250  55.0792590  69.7381100  95.5116470  54.2289030
  70.5411570  95.5400600  55.5119410  54.6546790  95.6400450  54.5533900
  55.5241640  95.9225250  54.8369820  54.1637110  96.4536320  54.4382710
  57.7193380  87.3711310  59.1464700  57.5908010  87.3629210  60.0949620
  56.8955400  87.7094400  58.7955710  54.7187310  89.1302430  68.6071400
  54.0045830  89.3299350  69.2124010  55.1382350  88.3542000  68.9786200
  66.2126090  91.6224740  66.3572850  66.5806910  90.8019950  66.6852420
  65.3524290  91.6826630  66.7728500  69.5788120  90.5781680  57.1660410
  68.9501280  90.6827350  56.4518640  69.0840040  90.7978460  57.9554290
  61.5472150  92.8567630  58.5818290  60.8388300  93.3253970  59.0231900
  61.8316630  92.1989640  59.2163480  63.1728080  94.2764330  66.5810820
  63.6713330  94.7510150  67.2462670  63.3151030  93.3527850  66.7880850
  65.5787580  89.5818290  60.0214080  65.4555360  89.6004420  59.0723590
  66.5272140  89.6297230  60.1412480  59.7507170  91.1652710  55.9569000
  60.5997700  91.6022860  55.8909190  59.3838440  91.4772970  56.7841060
  70.3794940  90.4932290  67.4239210  69.8768540  91.2337690  67.7633020
  71.1951600  90.8816290  67.1076000  68.6716950  95.7365470  60.8700570
  67.7307090  95.7515700  61.0448260  68.9861020  94.9501430  61.3160870
  57.3445350  94.8510140  55.1137420  57.4248940  93.9037650  55.2254820
  58.2365100  95.1817020  55.2198080  54.8716150  96.6725060  70.3493590
  55.3755170  96.0932340  70.9209820  54.1323570  96.9565290  70.8869960
  56.9039230  94.8154650  71.2443660  56.9444570  94.5168520  72.1528890
  57.7584730  95.2162260  71.0851180  58.8445040  93.3946750  69.2118150
  58.3141500  92.9037700  68.5841490  59.5133110  93.8230950  68.6776080
  68.2145270  95.2012370  70.9798490  68.7966040  94.4464690  70.8918970
  68.3907040  95.7319810  70.2029970  59.3317340  90.3609120  69.2915440
  59.2374210  89.7429870  68.5666310  58.7514730  91.0875410  69.0645350
  62.0978780  88.9182360  66.3242830  61.6496080  88.9406620  65.4788380
  61.4643980  88.5201380  66.9213130  64.8402230  95.5452870  68.3293110
  64.9598440  94.9494010  69.0687950  65.6996230  95.5822560  67.9094410
  67.1790130  96.0990060  66.9055620  66.6525350  96.6232680  66.3020760
  67.5221470  96.7317450  67.5365350  59.5776520  93.4883430  53.3505330
  59.3765580  92.6250790  53.7118670  59.4068570  93.4016790  52.4126930
  61.6071000  92.0874220  69.5868930  62.1970690  91.7790070  70.2746750
  60.7891240  91.6153970  69.7428830  66.4264430  91.7040030  69.8201950
  65.7379950  91.0421570  69.7551940  67.1470450  91.2578300  70.2650410
  67.0564830  88.2991660  55.8792210  67.3367120  87.4559560  56.2351630
  66.2830560  88.5314770  56.3930960  58.3759320  90.5884050  53.3383210
  58.6785220  90.5951480  52.4302360  59.1153910  90.2381910  53.8350870
  61.5944250  89.5318670  54.3239410  61.2466250  88.8542660  53.7441860
  61.7957020  89.0708180  55.1382800  54.9349890  96.0606320  60.7203780
  54.2798730  95.7917960  60.0763480  55.7727840  95.9510800  60.2705760
  67.8840330  90.8547610  54.9422270  68.3025210  90.6678590  54.1018930
  67.5776390  90.0026660  55.2525200  71.3830060  95.7671750  58.6398070
  71.0073660  94.9999680  58.2079360  70.6533180  96.1494450  59.1273000
  55.9725820  96.4458890  65.2607120  56.3398860  96.3586290  66.1403140
  55.4036640  95.6825440  65.1613980  70.7729680  94.9143270  68.2737590
  70.5415770  94.6856020  67.3735540  71.0334230  95.8342820  68.2282480
  55.5241820  93.3567980  69.1665540  54.6297870  93.3234740  69.5059250
  56.0639370  93.5554770  69.9316790  69.2117750  90.1399700  71.0517290
  70.0887930  90.1483100  71.4351290  69.2238590  89.4030540  70.4409640
  54.1487970  93.2705250  56.6629110  53.2452050  93.5335450  56.4880770
  54.6328590  93.5416420  55.8829070  70.6581020  93.9929240  61.9405310
  71.1818500  93.4991890  61.3095480  71.2440440  94.1279600  62.6852880
  70.8370740  94.0769110  65.4624860  69.8873450  94.0432650  65.5769850
  71.0183750  94.9869220  65.2274630  56.6915180  92.3270790  54.5723490
  57.4006880  91.9054010  54.0870770  55.9755120  92.3946020  53.9406840
  56.3389340  88.3810120  53.6126140  57.0617470  88.9219060  53.9307360
  56.6113860  88.1073540  52.7367680  70.1480990  93.2502590  57.8797720
  70.6440110  93.0173460  58.6646600  69.9497060  92.4114430  57.4635360
  56.0281530  87.6316310  63.5148760  56.6757720  87.0813690  63.0743920
  56.4483370  87.8859460  64.3364570  71.5768150  91.8863540  60.4135400
  71.4667430  91.7319580  61.3517670  72.3375740  91.3584480  60.1710810
  69.9233870  87.8257670  66.8718400  70.5606090  88.4391810  67.2377590
  70.0708760  87.8618330  65.9267630  72.4658420  89.7171460  53.6541540
  73.3907730  89.5852640  53.4459830  72.4434210  89.7964280  54.6077990
  72.5396910  90.4882120  56.2798250  71.7448410  90.4227240  56.8091160
  72.7440190  91.4232760  56.2683600  55.7813530  87.7871980  66.2574080
  55.4328350  88.2435800  67.0232260  55.4501230  86.8929110  66.3396510
  63.2938350  88.9783860  69.7793500  63.2327240  89.5705690  70.5288910
  64.2338730  88.8709820  69.6343760  65.9312910  88.6353920  69.4185790
  66.5453320  88.9533210  68.7566870  66.4762470  88.1502510  70.0381650
  56.4534170  87.3148180  69.5324850  57.0017160  87.1336230  68.7690960
  56.5189480  86.5242290  70.0681160  66.6720950  87.1986060  65.7455080
  65.7980790  87.5321170  65.5428010  66.5631700  86.7259240  66.5706950
  67.5792930  89.4056930  67.1296800  67.2506290  88.5908690  66.7498530
  68.5275230  89.3626740  67.0062490  64.4195770  88.1155900  64.6847990
  63.6367560  88.5901400  64.9644750  64.1258700  87.2110730  64.5761170
  68.9716840  88.8179000  62.7297080  69.4124930  88.7624100  61.8818680
  68.7024430  89.7337010  62.8007260  70.8355410  88.4494240  60.7405900
  70.7743810  87.5055460  60.5936920  71.6147440  88.5574330  61.2859360
  55.7636180  88.4203380  57.2061710  56.5215540  88.5332260  56.6325740
  55.3013350  89.2572580  57.1605140  62.3049990  90.5342650  60.1964020
  61.4924500  90.1599540  59.8559900  62.8091630  89.7787730  60.4985210
  66.8074970  87.1985100  61.4347090  67.4104340  87.7705310  61.9095610
  66.0667960  87.7624540  61.2120990  69.9509570  87.6006660  56.7087370
  70.1460200  88.4990110  56.9754800  69.1639440  87.3693740  57.2020320
  58.1361330  88.9467430  55.7463680  58.6654090  88.1597230  55.6171630
  58.7689650  89.6258620  55.9799210  60.3299170  88.6842570  58.8009070
  59.7001910  87.9829880  58.9679200  59.7904310  89.4446700  58.5842230
  60.4554730  87.9626550  71.2361560  60.1739000  88.4660150  70.4722380
  60.8374430  87.1648300  70.8703690  67.0570190  87.3780130  71.8142030
  66.9435640  87.6974740  72.7093550  67.8739930  87.7792640  71.5179310
  65.9628340  95.3972600  42.1776770  65.8822390  94.4827210  41.9068480
  65.5492760  95.8939670  41.4716480  56.5204160  92.4473320  38.7204190
  55.6320860  92.7889290  38.6184070  56.8045350  92.2473640  37.8285020
  54.4837170  95.0478970  44.6043890  55.0553280  94.2801170  44.6047530
  54.4838710  95.3467730  43.6950500  55.7262040  90.4563330  46.3912820
  55.5464880  89.5589080  46.6715580  55.3242120  91.0035200  47.0659770
  64.5660540  92.6579190  44.2925130  64.9425360  91.7851070  44.1798800
  64.4680050  92.9937890  43.4015570  58.6965550  91.0304820  39.7542570
  58.8032300  91.9308550  40.0611330  57.7857910  90.9822790  39.4637220
  68.3484660  90.1529630  41.2253470  69.1694280  89.6626200  41.2678950
  68.3818740  90.7427290  41.9785310  56.3448710  92.9523830  44.9995160
  57.0258820  93.2162200  45.6182560  56.0296760  92.1124700  45.3333170
  60.5373280  93.9991190  44.0867750  61.0451500  94.4972160  44.7272770
  61.0686520  93.2226390  43.9107110  72.6384210  92.1696380  47.7897100
  71.9336380  92.5578090  47.2712210  72.9042130  92.8646670  48.3918030
  58.8209380  88.6389750  48.3531170  58.8227820  89.1562140  47.5477070
  57.9913690  88.1619930  48.3301100  68.5846140  92.0930010  43.9981010
  67.8801710  92.3814900  44.5784120  68.9458300  92.9030120  43.6380570
  58.5024710  90.3499710  46.3601620  58.8441520  91.1941760  46.0655490
  57.5640520  90.4983450  46.4766960  71.6533060  91.5384800  44.3890220
  70.7057970  91.5723780  44.5205650  71.9783050  92.3523750  44.7739580
  62.1852600  87.8381980  42.6846210  62.4927580  87.2828870  41.9681710
  61.2553300  87.9726440  42.5019200  64.5733360  95.9030810  39.4206330
  63.6462640  95.8368190  39.6494800  64.7258180  96.8410940  39.3061570
  64.5602440  92.1747810  36.4173490  63.6206110  92.3361770  36.5025950
  64.8785700  92.8933490  35.8709480  68.0457210  93.6435650  47.3407390
  67.6328390  94.4689360  47.5947380  67.3133160  93.0580690  47.1483750
  60.1790000  96.4295550  42.2026060  59.7747000  95.7172800  41.7071960
  60.2653120  96.0848790  43.0914100  58.8918620  93.2038760  45.9825100
  59.4433210  93.3134100  45.2078350  59.4062130  93.5776360  46.6980330
  70.3612490  87.9580730  35.2455370  70.0485150  88.0507560  36.1454440
  71.1224960  88.5361760  35.1952800  56.8794630  95.3240530  39.7032710
  56.7592230  96.0502620  39.0913980  56.5695520  94.5543440  39.2260620
  71.5713780  92.6952230  51.2229510  70.9558050  93.2031900  50.6944970
  71.2510200  91.7950560  51.1655450  59.3458290  88.6675600  43.0856380
  58.9026440  89.4485140  42.7540900  59.9043280  88.9905490  43.7927320
  63.6328100  91.5344120  48.6891700  63.1707470  91.7427140  49.5011640
  63.2306210  90.7203470  48.3862370  68.6332610  92.7553070  49.8188360
  67.7826200  92.4558820  50.1397430  68.4734400  92.9995080  48.9072180
  65.7282320  94.2554820  51.9187150  66.0535730  93.4218570  51.5789380
  66.5162650  94.7783340  52.0665480  62.4617110  88.2886300  37.9662210
  61.8371290  88.2846170  38.6915520  62.3747230  87.4217260  37.5698180
  61.3834190  89.2122930  44.9445980  61.6806520  90.1185760  44.8638000
  61.9319750  88.7241710  44.3305550  59.1372510  93.7909170  40.8137630
  58.9113430  93.5746340  41.7184250  58.3565040  94.2237630  40.4683600
  66.3670270  93.7972540  39.4128280  65.7679160  94.5208340  39.2291900
  66.9149880  93.7349320  38.6304730  61.5771720  94.6894750  51.4797900
  61.4815320  93.7489480  51.3298300  62.4203700  94.9109820  51.0845970
  64.9735140  92.4336080  41.4431560  65.3664710  92.7508280  40.6300250
  65.3351990  91.5547960  41.5576080  56.7082260  91.1008420  49.6331680
  56.3145650  91.9483630  49.8404460  56.0200660  90.4634790  49.8240320
  63.2827310  91.1843390  52.7028420  62.5925630  90.9915590  53.3374510
  64.0259610  91.4678030  53.2352720  54.0099310  89.0236880  43.6661760
  53.7212360  89.5939740  44.3786740  54.7545070  88.5441330  44.0292990
  54.1969540  92.9657000  34.8764480  54.1144210  93.9087760  35.0179470
  53.8452600  92.8231910  33.9976830  65.5590280  95.0241830  45.5382340
  64.8271400  95.5328640  45.8872440  65.1614620  94.2071810  45.2371120
  61.9967670  91.6996030  43.9434830  62.0003730  91.2585980  43.0939370
  62.8918790  92.0213360  44.0506650  57.8470050  91.5822520  42.9029040
  57.5070100  92.0597750  43.6596090  57.0847370  91.1287640  42.5430140
  62.0587820  92.7008110  36.9341590  62.1800640  92.6594590  37.8827410
  61.6736330  93.5632260  36.7788320  66.0216190  90.4775510  44.9505280
  66.0388930  90.9284160  45.7947130  65.7731770  89.5781150  45.1638720
  61.0709320  95.0109250  36.3324890  60.5026220  94.5627500  35.7060800
  61.7798320  95.3702030  35.7990040  69.4486940  87.8907690  50.7891660
  69.7732710  87.1597350  51.3149640  69.4843450  87.5721330  49.8872650
  62.2975640  95.7597810  45.6900240  62.6645770  95.2856380  46.4361580
  62.1080700  96.6339380  46.0308580  55.1616130  90.5041500  41.8193710
  54.8763050  90.1397170  42.6572330  55.0994990  89.7721960  41.2056850
  60.0875010  94.8006450  48.0084450  59.7832080  95.6798430  48.2334810
  61.0421470  94.8606240  48.0441890  64.8354720  89.3970760  38.5407080
  64.0219330  88.8983930  38.4652390  64.6416670  90.2369010  38.1243430
  67.5503110  93.7690410  36.8369240  68.4382730  94.0807640  36.6620580
  67.5208200  92.8962660  36.4449820  56.1438740  95.6409190  49.1555810
  55.7853680  96.3063040  49.7429150  55.8493300  94.8092740  49.5268430
  59.3451860  96.0993430  52.0395360  59.0452000  96.2450610  51.1423180
  60.1163100  95.5398720  51.9468750  69.8217380  95.0802250  36.3049100
  69.7381100  95.5116470  35.4545540  70.5411570  95.5400600  36.7375920
  54.6546790  95.6400450  35.7790410  55.5241640  95.9225250  36.0626330
  54.1637110  96.4536320  35.6639220  57.7193380  87.3711310  40.3721210
  57.5908010  87.3629210  41.3206130  56.8955400  87.7094400  40.0212220
  54.7187310  89.1302430  49.8327910  54.0045830  89.3299350  50.4380520
  55.1382350  88.3542000  50.2042710  66.2126090  91.6224740  47.5829360
  66.5806910  90.8019950  47.9108930  65.3524290  91.6826630  47.9985010
  69.5788120  90.5781680  38.3916920  68.9501280  90.6827350  37.6775150
  69.0840040  90.7978460  39.1810800  61.5472150  92.8567630  39.8074800
  60.8388300  93.3253970  40.2488410  61.8316630  92.1989640  40.4419990
  63.1728080  94.2764330  47.8067330  63.6713330  94.7510150  48.4719180
  63.3151030  93.3527850  48.0137360  65.5787580  89.5818290  41.2470590
  65.4555360  89.6004420  40.2980100  66.5272140  89.6297230  41.3668990
  59.7507170  91.1652710  37.1825510  60.5997700  91.6022860  37.1165700
  59.3838440  91.4772970  38.0097570  70.3794940  90.4932290  48.6495720
  69.8768540  91.2337690  48.9889530  71.1951600  90.8816290  48.3332510
  68.6716950  95.7365470  42.0957080  67.7307090  95.7515700  42.2704770
  68.9861020  94.9501430  42.5417380  57.3445350  94.8510140  36.3393930
  57.4248940  93.9037650  36.4511330  58.2365100  95.1817020  36.4454590
  54.8716150  96.6725060  51.5750100  55.3755170  96.0932340  52.1466330
  54.1323570  96.9565290  52.1126470  56.9039230  94.8154650  52.4700170
  56.9444570  94.5168520  53.3785400  57.7584730  95.2162260  52.3107690
  58.8445040  93.3946750  50.4374660  58.3141500  92.9037700  49.8098000
  59.5133110  93.8230950  49.9032590  68.2145270  95.2012370  52.2055000
  68.7966040  94.4464690  52.1175480  68.3907040  95.7319810  51.4286480
  59.3317340  90.3609120  50.5171950  59.2374210  89.7429870  49.7922820
  58.7514730  91.0875410  50.2901860  62.0978780  88.9182360  47.5499340
  61.6496080  88.9406620  46.7044890  61.4643980  88.5201380  48.1469640
  64.8402230  95.5452870  49.5549620  64.9598440  94.9494010  50.2944460
  65.6996230  95.5822560  49.1350920  67.1790130  96.0990060  48.1312130
  66.6525350  96.6232680  47.5277270  67.5221470  96.7317450  48.7621860
  59.5776520  93.4883430  34.5761840  59.3765580  92.6250790  34.9375180
  59.4068570  93.4016790  33.6383440  61.6071000  92.0874220  50.8125440
  62.1970690  91.7790070  51.5003260  60.7891240  91.6153970  50.9685340
  66.4264430  91.7040030  51.0458460  65.7379950  91.0421570  50.9808450
  67.1470450  91.2578300  51.4906920  67.0564830  88.2991660  37.1048720
  67.3367120  87.4559560  37.4608140  66.2830560  88.5314770  37.6187470
  58.3759320  90.5884050  34.5639720  58.6785220  90.5951480  33.6558870
  59.1153910  90.2381910  35.0607380  61.5944250  89.5318670  35.5495920
  61.2466250  88.8542660  34.9698370  61.7957020  89.0708180  36.3639310
  54.9349890  96.0606320  41.9460290  54.2798730  95.7917960  41.3019990
  55.7727840  95.9510800  41.4962270  67.8840330  90.8547610  36.1678780
  68.3025210  90.6678590  35.3275440  67.5776390  90.0026660  36.4781710
  71.3830060  95.7671750  39.8654580  71.0073660  94.9999680  39.4335870
  70.6533180  96.1494450  40.3529510  55.9725820  96.4458890  46.4863630
  56.3398860  96.3586290  47.3659650  55.4036640  95.6825440  46.3870490
  70.7729680  94.9143270  49.4994100  70.5415770  94.6856020  48.5992050
  71.0334230  95.8342820  49.4538990  55.5241820  93.3567980  50.3922050
  54.6297870  93.3234740  50.7315760  56.0639370  93.5554770  51.1573300
  69.2117750  90.1399700  52.2773800  70.0887930  90.1483100  52.6607800
  69.2238590  89.4030540  51.6666150  54.1487970  93.2705250  37.8885620
  53.2452050  93.5335450  37.7137280  54.6328590  93.5416420  37.1085580
  70.6581020  93.9929240  43.1661820  71.1818500  93.4991890  42.5351990
  71.2440440  94.1279600  43.9109390  70.8370740  94.0769110  46.6881370
  69.8873450  94.0432650  46.8026360  71.0183750  94.9869220  46.4531140
  56.6915180  92.3270790  35.7980000  57.4006880  91.9054010  35.3127280
  55.9755120  92.3946020  35.1663350  56.3389340  88.3810120  34.8382650
  57.0617470  88.9219060  35.1563870  56.6113860  88.1073540  33.9624190
  70.1480990  93.2502590  39.1054230  70.6440110  93.0173460  39.8903110
  69.9497060  92.4114430  38.6891870  56.0281530  87.6316310  44.7405270
  56.6757720  87.0813690  44.3000430  56.4483370  87.8859460  45.5621080
  71.5768150  91.8863540  41.6391910  71.4667430  91.7319580  42.5774180
  72.3375740  91.3584480  41.3967320  69.9233870  87.8257670  48.0974910
  70.5606090  88.4391810  48.4634100  70.0708760  87.8618330  47.1524140
  72.4658420  89.7171460  34.8798050  73.3907730  89.5852640  34.6716340
  72.4434210  89.7964280  35.8334500  72.5396910  90.4882120  37.5054760
  71.7448410  90.4227240  38.0347670  72.7440190  91.4232760  37.4940110
  55.7813530  87.7871980  47.4830590  55.4328350  88.2435800  48.2488770
  55.4501230  86.8929110  47.5653020  63.2938350  88.9783860  51.0050010
  63.2327240  89.5705690  51.7545420  64.2338730  88.8709820  50.8600270
  65.9312910  88.6353920  50.6442300  66.5453320  88.9533210  49.9823380
  66.4762470  88.1502510  51.2638160  56.4534170  87.3148180  50.7581360
  57.0017160  87.1336230  49.9947470  56.5189480  86.5242290  51.2937670
  66.6720950  87.1986060  46.9711590  65.7980790  87.5321170  46.7684520
  66.5631700  86.7259240  47.7963460  67.5792930  89.4056930  48.3553310
  67.2506290  88.5908690  47.9755040  68.5275230  89.3626740  48.2319000
  64.4195770  88.1155900  45.9104500  63.6367560  88.5901400  46.1901260
  64.1258700  87.2110730  45.8017680  68.9716840  88.8179000  43.9553590
  69.4124930  88.7624100  43.1075190  68.7024430  89.7337010  44.0263770
  70.8355410  88.4494240  41.9662410  70.7743810  87.5055460  41.8193430
  71.6147440  88.5574330  42.5115870  55.7636180  88.4203380  38.4318220
  56.5215540  88.5332260  37.8582250  55.3013350  89.2572580  38.3861650
  62.3049990  90.5342650  41.4220530  61.4924500  90.1599540  41.0816410
  62.8091630  89.7787730  41.7241720  66.8074970  87.1985100  42.6603600
  67.4104340  87.7705310  43.1352120  66.0667960  87.7624540  42.4377500
  69.9509570  87.6006660  37.9343880  70.1460200  88.4990110  38.2011310
  69.1639440  87.3693740  38.4276830  58.1361330  88.9467430  36.9720190
  58.6654090  88.1597230  36.8428140  58.7689650  89.6258620  37.2055720
  60.3299170  88.6842570  40.0265580  59.7001910  87.9829880  40.1935710
  59.7904310  89.4446700  39.8098740  60.4554730  87.9626550  52.4618070
  60.1739000  88.4660150  51.6978890  60.8374430  87.1648300  52.0960200
  67.0570190  87.3780130  53.0398540  66.9435640  87.6974740  53.9350060
  67.8739930  87.7792640  52.7435820  65.9628340  95.3972600  23.4033280
  65.8822390  94.4827210  23.1324990  65.5492760  95.8939670  22.6972990
  56.5204160  92.4473320  19.9460700  55.6320860  92.7889290  19.8440580
  56.8045350  92.2473640  19.0541530  54.4837170  95.0478970  25.8300400
  55.0553280  94.2801170  25.8304040  54.4838710  95.3467730  24.9207010
  55.7262040  90.4563330  27.6169330  55.5464880  89.5589080  27.8972090
  55.3242120  91.0035200  28.2916280  64.5660540  92.6579190  25.5181640
  64.9425360  91.7851070  25.4055310  64.4680050  92.9937890  24.6272080
  58.6965550  91.0304820  20.9799080  58.8032300  91.9308550  21.2867840
  57.7857910  90.9822790  20.6893730  68.3484660  90.1529630  22.4509980
  69.1694280  89.6626200  22.4935460  68.3818740  90.7427290  23.2041820
  56.3448710  92.9523830  26.2251670  57.0258820  93.2162200  26.8439070
  56.0296760  92.1124700  26.5589680  60.5373280  93.9991190  25.3124260
  61.0451500  94.4972160  25.9529280  61.0686520  93.2226390  25.1363620
  72.6384210  92.1696380  29.0153610  71.9336380  92.5578090  28.4968720
  72.9042130  92.8646670  29.6174540  58.8209380  88.6389750  29.5787680
  58.8227820  89.1562140  28.7733580  57.9913690  88.1619930  29.5557610
  68.5846140  92.0930010  25.2237520  67.8801710  92.3814900  25.8040630
  68.9458300  92.9030120  24.8637080  58.5024710  90.3499710  27.5858130
  58.8441520  91.1941760  27.2912000  57.5640520  90.4983450  27.7023470
  71.6533060  91.5384800  25.6146730  70.7057970  91.5723780  25.7462160
  71.9783050  92.3523750  25.9996090  62.1852600  87.8381980  23.9102720
  62.4927580  87.2828870  23.1938220  61.2553300  87.9726440  23.7275710
  64.5733360  95.9030810  20.6462840  63.6462640  95.8368190  20.8751310
  64.7258180  96.8410940  20.5318080  64.5602440  92.1747810  17.6430000
  63.6206110  92.3361770  17.7282460  64.8785700  92.8933490  17.0965990
  68.0457210  93.6435650  28.5663900  67.6328390  94.4689360  28.8203890
  67.3133160  93.0580690  28.3740260  60.1790000  96.4295550  23.4282570
  59.7747000  95.7172800  22.9328470  60.2653120  96.0848790  24.3170610
  58.8918620  93.2038760  27.2081610  59.4433210  93.3134100  26.4334860
  59.4062130  93.5776360  27.9236840  70.3612490  87.9580730  16.4711880
  70.0485150  88.0507560  17.3710950  71.1224960  88.5361760  16.4209310
  56.8794630  95.3240530  20.9289220  56.7592230  96.0502620  20.3170490
  56.5695520  94.5543440  20.4517130  71.5713780  92.6952230  32.4486020
  70.9558050  93.2031900  31.9201480  71.2510200  91.7950560  32.3911960
  59.3458290  88.6675600  24.3112890  58.9026440  89.4485140  23.9797410
  59.9043280  88.9905490  25.0183830  63.6328100  91.5344120  29.9148210
  63.1707470  91.7427140  30.7268150  63.2306210  90.7203470  29.6118880
  68.6332610  92.7553070  31.0444870  67.7826200  92.4558820  31.3653940
  68.4734400  92.9995080  30.1328690  65.7282320  94.2554820  33.1443660
  66.0535730  93.4218570  32.8045890  66.5162650  94.7783340  33.2921990
  62.4617110  88.2886300  19.1918720  61.8371290  88.2846170  19.9172030
  62.3747230  87.4217260  18.7954690  61.3834190  89.2122930  26.1702490
  61.6806520  90.1185760  26.0894510  61.9319750  88.7241710  25.5562060
  59.1372510  93.7909170  22.0394140  58.9113430  93.5746340  22.9440760
  58.3565040  94.2237630  21.6940110  66.3670270  93.7972540  20.6384790
  65.7679160  94.5208340  20.4548410  66.9149880  93.7349320  19.8561240
  61.5771720  94.6894750  32.7054410  61.4815320  93.7489480  32.5554810
  62.4203700  94.9109820  32.3102480  64.9735140  92.4336080  22.6688070
  65.3664710  92.7508280  21.8556760  65.3351990  91.5547960  22.7832590
  56.7082260  91.1008420  30.8588190  56.3145650  91.9483630  31.0660970
  56.0200660  90.4634790  31.0496830  63.2827310  91.1843390  33.9284930
  62.5925630  90.9915590  34.5631020  64.0259610  91.4678030  34.4609230
  54.0099310  89.0236880  24.8918270  53.7212360  89.5939740  25.6043250
  54.7545070  88.5441330  25.2549500  54.1969540  92.9657000  16.1020990
  54.1144210  93.9087760  16.2435980  53.8452600  92.8231910  15.2233340
  65.5590280  95.0241830  26.7638850  64.8271400  95.5328640  27.1128950
  65.1614620  94.2071810  26.4627630  61.9967670  91.6996030  25.1691340
  62.0003730  91.2585980  24.3195880  62.8918790  92.0213360  25.2763160
  57.8470050  91.5822520  24.1285550  57.5070100  92.0597750  24.8852600
  57.0847370  91.1287640  23.7686650  62.0587820  92.7008110  18.1598100
  62.1800640  92.6594590  19.1083920  61.6736330  93.5632260  18.0044830
  66.0216190  90.4775510  26.1761790  66.0388930  90.9284160  27.0203640
  65.7731770  89.5781150  26.3895230  61.0709320  95.0109250  17.5581400
  60.5026220  94.5627500  16.9317310  61.7798320  95.3702030  17.0246550
  69.4486940  87.8907690  32.0148170  69.7732710  87.1597350  32.5406150
  69.4843450  87.5721330  31.1129160  62.2975640  95.7597810  26.9156750
  62.6645770  95.2856380  27.6618090  62.1080700  96.6339380  27.2565090
  55.1616130  90.5041500  23.0450220  54.8763050  90.1397170  23.8828840
  55.0994990  89.7721960  22.4313360  60.0875010  94.8006450  29.2340960
  59.7832080  95.6798430  29.4591320  61.0421470  94.8606240  29.2698400
  64.8354720  89.3970760  19.7663590  64.0219330  88.8983930  19.6908900
  64.6416670  90.2369010  19.3499940  67.5503110  93.7690410  18.0625750
  68.4382730  94.0807640  17.8877090  67.5208200  92.8962660  17.6706330
  56.1438740  95.6409190  30.3812320  55.7853680  96.3063040  30.9685660
  55.8493300  94.8092740  30.7524940  59.3451860  96.0993430  33.2651870
  59.0452000  96.2450610  32.3679690  60.1163100  95.5398720  33.1725260
  69.8217380  95.0802250  17.5305610  69.7381100  95.5116470  16.6802050
  70.5411570  95.5400600  17.9632430  54.6546790  95.6400450  17.0046920
  55.5241640  95.9225250  17.2882840  54.1637110  96.4536320  16.8895730
  57.7193380  87.3711310  21.5977720  57.5908010  87.3629210  22.5462640
  56.8955400  87.7094400  21.2468730  54.7187310  89.1302430  31.0584420
  54.0045830  89.3299350  31.6637030  55.1382350  88.3542000  31.4299220
  66.2126090  91.6224740  28.8085870  66.5806910  90.8019950  29.1365440
  65.3524290  91.6826630  29.2241520  69.5788120  90.5781680  19.6173430
  68.9501280  90.6827350  18.9031660  69.0840040  90.7978460  20.4067310
  61.5472150  92.8567630  21.0331310  60.8388300  93.3253970  21.4744920
  61.8316630  92.1989640  21.6676500  63.1728080  94.2764330  29.0323840
  63.6713330  94.7510150  29.6975690  63.3151030  93.3527850  29.2393870
  65.5787580  89.5818290  22.4727100  65.4555360  89.6004420  21.5236610
  66.5272140  89.6297230  22.5925500  59.7507170  91.1652710  18.4082020
  60.5997700  91.6022860  18.3422210  59.3838440  91.4772970  19.2354080
  70.3794940  90.4932290  29.8752230  69.8768540  91.2337690  30.2146040
  71.1951600  90.8816290  29.5589020  68.6716950  95.7365470  23.3213590
  67.7307090  95.7515700  23.4961280  68.9861020  94.9501430  23.7673890
  57.3445350  94.8510140  17.5650440  57.4248940  93.9037650  17.6767840
  58.2365100  95.1817020  17.6711100  54.8716150  96.6725060  32.8006610
  55.3755170  96.0932340  33.3722840  54.1323570  96.9565290  33.3382980
  56.9039230  94.8154650  33.6956680  56.9444570  94.5168520  34.6041910
  57.7584730  95.2162260  33.5364200  58.8445040  93.3946750  31.6631170
  58.3141500  92.9037700  31.0354510  59.5133110  93.8230950  31.1289100
  68.2145270  95.2012370  33.4311510  68.7966040  94.4464690  33.3431990
  68.3907040  95.7319810  32.6542990  59.3317340  90.3609120  31.7428460
  59.2374210  89.7429870  31.0179330  58.7514730  91.0875410  31.5158370
  62.0978780  88.9182360  28.7755850  61.6496080  88.9406620  27.9301400
  61.4643980  88.5201380  29.3726150  64.8402230  95.5452870  30.7806130
  64.9598440  94.9494010  31.5200970  65.6996230  95.5822560  30.3607430
  67.1790130  96.0990060  29.3568640  66.6525350  96.6232680  28.7533780
  67.5221470  96.7317450  29.9878370  59.5776520  93.4883430  15.8018350
  59.3765580  92.6250790  16.1631690  59.4068570  93.4016790  14.8639950
  61.6071000  92.0874220  32.0381950  62.1970690  91.7790070  32.7259770
  60.7891240  91.6153970  32.1941850  66.4264430  91.7040030  32.2714970
  65.7379950  91.0421570  32.2064960  67.1470450  91.2578300  32.7163430
  67.0564830  88.2991660  18.3305230  67.3367120  87.4559560  18.6864650
  66.2830560  88.5314770  18.8443980  58.3759320  90.5884050  15.7896230
  58.6785220  90.5951480  14.8815380  59.1153910  90.2381910  16.2863890
  61.5944250  89.5318670  16.7752430  61.2466250  88.8542660  16.1954880
  61.7957020  89.0708180  17.5895820  54.9349890  96.0606320  23.1716800
  54.2798730  95.7917960  22.5276500  55.7727840  95.9510800  22.7218780
  67.8840330  90.8547610  17.3935290  68.3025210  90.6678590  16.5531950
  67.5776390  90.0026660  17.7038220  71.3830060  95.7671750  21.0911090
  71.0073660  94.9999680  20.6592380  70.6533180  96.1494450  21.5786020
  55.9725820  96.4458890  27.7120140  56.3398860  96.3586290  28.5916160
  55.4036640  95.6825440  27.6127000  70.7729680  94.9143270  30.7250610
  70.5415770  94.6856020  29.8248560  71.0334230  95.8342820  30.6795500
  55.5241820  93.3567980  31.6178560  54.6297870  93.3234740  31.9572270
  56.0639370  93.5554770  32.3829810  69.2117750  90.1399700  33.5030310
  70.0887930  90.1483100  33.8864310  69.2238590  89.4030540  32.8922660
  54.1487970  93.2705250  19.1142130  53.2452050  93.5335450  18.9393790
  54.6328590  93.5416420  18.3342090  70.6581020  93.9929240  24.3918330
  71.1818500  93.4991890  23.7608500  71.2440440  94.1279600  25.1365900
  70.8370740  94.0769110  27.9137880  69.8873450  94.0432650  28.0282870
  71.0183750  94.9869220  27.6787650  56.6915180  92.3270790  17.0236510
  57.4006880  91.9054010  16.5383790  55.9755120  92.3946020  16.3919860
  56.3389340  88.3810120  16.0639160  57.0617470  88.9219060  16.3820380
  56.6113860  88.1073540  15.1880700  70.1480990  93.2502590  20.3310740
  70.6440110  93.0173460  21.1159620  69.9497060  92.4114430  19.9148380
  56.0281530  87.6316310  25.9661780  56.6757720  87.0813690  25.5256940
  56.4483370  87.8859460  26.7877590  71.5768150  91.8863540  22.8648420
  71.4667430  91.7319580  23.8030690  72.3375740  91.3584480  22.6223830
  69.9233870  87.8257670  29.3231420  70.5606090  88.4391810  29.6890610
  70.0708760  87.8618330  28.3780650  72.4658420  89.7171460  16.1054560
  73.3907730  89.5852640  15.8972850  72.4434210  89.7964280  17.0591010
  72.5396910  90.4882120  18.7311270  71.7448410  90.4227240  19.2604180
  72.7440190  91.4232760  18.7196620  55.7813530  87.7871980  28.7087100
  55.4328350  88.2435800  29.4745280  55.4501230  86.8929110  28.7909530
  63.2938350  88.9783860  32.2306520  63.2327240  89.5705690  32.9801930
  64.2338730  88.8709820  32.0856780  65.9312910  88.6353920  31.8698810
  66.5453320  88.9533210  31.2079890  66.4762470  88.1502510  32.4894670
  56.4534170  87.3148180  31.9837870  57.0017160  87.1336230  31.2203980
  56.5189480  86.5242290  32.5194180  66.6720950  87.1986060  28.1968100
  65.7980790  87.5321170  27.9941030  66.5631700  86.7259240  29.0219970
  67.5792930  89.4056930  29.5809820  67.2506290  88.5908690  29.2011550
  68.5275230  89.3626740  29.4575510  64.4195770  88.1155900  27.1361010
  63.6367560  88.5901400  27.4157770  64.1258700  87.2110730  27.0274190
  68.9716840  88.8179000  25.1810100  69.4124930  88.7624100  24.3331700
  68.7024430  89.7337010  25.2520280  70.8355410  88.4494240  23.1918920
  70.7743810  87.5055460  23.0449940  71.6147440  88.5574330  23.7372380
  55.7636180  88.4203380  19.6574730  56.5215540  88.5332260  19.0838760
  55.3013350  89.2572580  19.6118160  62.3049990  90.5342650  22.6477040
  61.4924500  90.1599540  22.3072920  62.8091630  89.7787730  22.9498230
  66.8074970  87.1985100  23.8860110  67.4104340  87.7705310  24.3608630
  66.0667960  87.7624540  23.6634010  69.9509570  87.6006660  19.1600390
  70.1460200  88.4990110  19.4267820  69.1639440  87.3693740  19.6533340
  58.1361330  88.9467430  18.1976700  58.6654090  88.1597230  18.0684650
  58.7689650  89.6258620  18.4312230  60.3299170  88.6842570  21.2522090
  59.7001910  87.9829880  21.4192220  59.7904310  89.4446700  21.0355250
  60.4554730  87.9626550  33.6874580  60.1739000  88.4660150  32.9235400
  60.8374430  87.1648300  33.3216710  67.0570190  87.3780130  34.2655050
  66.9435640  87.6974740  35.1606570  67.8739930  87.7792640  33.9692330
  65.9628340  95.3972600   4.6289790  65.8822390  94.4827210   4.3581500
  65.5492760  95.8939670   3.9229500  54.4837170  95.0478970   7.0556910
  55.0553280  94.2801170   7.0560550  54.4838710  95.3467730   6.1463520
  55.7262040  90.4563330   8.8425840  55.5464880  89.5589080   9.1228600
  55.3242120  91.0035200   9.5172790  64.5660540  92.6579190   6.7438150
  64.9425360  91.7851070   6.6311820  64.4680050  92.9937890   5.8528590
  58.6965550  91.0304820   2.2055590  58.8032300  91.9308550   2.5124350
  57.7857910  90.9822790   1.9150240  68.3484660  90.1529630   3.6766490
  69.1694280  89.6626200   3.7191970  68.3818740  90.7427290   4.4298330
  56.3448710  92.9523830   7.4508180  57.0258820  93.2162200   8.0695580
  56.0296760  92.1124700   7.7846190  60.5373280  93.9991190   6.5380770
  61.0451500  94.4972160   7.1785790  61.0686520  93.2226390   6.3620130
  72.6384210  92.1696380  10.2410120  71.9336380  92.5578090   9.7225230
  72.9042130  92.8646670  10.8431050  58.8209380  88.6389750  10.8044190
  58.8227820  89.1562140   9.9990090  57.9913690  88.1619930  10.7814120
  68.5846140  92.0930010   6.4494030  67.8801710  92.3814900   7.0297140
  68.9458300  92.9030120   6.0893590  58.5024710  90.3499710   8.8114640
  58.8441520  91.1941760   8.5168510  57.5640520  90.4983450   8.9279980
  71.6533060  91.5384800   6.8403240  70.7057970  91.5723780   6.9718670
  71.9783050  92.3523750   7.2252600  62.1852600  87.8381980   5.1359230
  62.4927580  87.2828870   4.4194730  61.2553300  87.9726440   4.9532220
  64.5733360  95.9030810   1.8719350  63.6462640  95.8368190   2.1007820
  64.7258180  96.8410940   1.7574590  68.0457210  93.6435650   9.7920410
  67.6328390  94.4689360  10.0460400  67.3133160  93.0580690   9.5996770
  60.1790000  96.4295550   4.6539080  59.7747000  95.7172800   4.1584980
  60.2653120  96.0848790   5.5427120  58.8918620  93.2038760   8.4338120
  59.4433210  93.3134100   7.6591370  59.4062130  93.5776360   9.1493350
  56.8794630  95.3240530   2.1545730  56.7592230  96.0502620   1.5427000
  56.5695520  94.5543440   1.6773640  71.5713780  92.6952230  13.6742530
  70.9558050  93.2031900  13.1457990  71.2510200  91.7950560  13.6168470
  59.3458290  88.6675600   5.5369400  58.9026440  89.4485140   5.2053920
  59.9043280  88.9905490   6.2440340  63.6328100  91.5344120  11.1404720
  63.1707470  91.7427140  11.9524660  63.2306210  90.7203470  10.8375390
  68.6332610  92.7553070  12.2701380  67.7826200  92.4558820  12.5910450
  68.4734400  92.9995080  11.3585200  65.7282320  94.2554820  14.3700170
  66.0535730  93.4218570  14.0302400  66.5162650  94.7783340  14.5178500
  61.3834190  89.2122930   7.3959000  61.6806520  90.1185760   7.3151020
  61.9319750  88.7241710   6.7818570  59.1372510  93.7909170   3.2650650
  58.9113430  93.5746340   4.1697270  58.3565040  94.2237630   2.9196620
  61.5771720  94.6894750  13.9310920  61.4815320  93.7489480  13.7811320
  62.4203700  94.9109820  13.5358990  64.9735140  92.4336080   3.8944580
  65.3664710  92.7508280   3.0813270  65.3351990  91.5547960   4.0089100
  56.7082260  91.1008420  12.0844700  56.3145650  91.9483630  12.2917480
  56.0200660  90.4634790  12.2753340  63.2827310  91.1843390  15.1541440
  62.5925630  90.9915590  15.7887530  64.0259610  91.4678030  15.6865740
  54.0099310  89.0236880   6.1174780  53.7212360  89.5939740   6.8299760
  54.7545070  88.5441330   6.4806010  65.5590280  95.0241830   7.9895360
  64.8271400  95.5328640   8.3385460  65.1614620  94.2071810   7.6884140
  61.9967670  91.6996030   6.3947850  62.0003730  91.2585980   5.5452390
  62.8918790  92.0213360   6.5019670  57.8470050  91.5822520   5.3542060
  57.5070100  92.0597750   6.1109110  57.0847370  91.1287640   4.9943160
  66.0216190  90.4775510   7.4018300  66.0388930  90.9284160   8.2460150
  65.7731770  89.5781150   7.6151740  69.4486940  87.8907690  13.2404680
  69.7732710  87.1597350  13.7662660  69.4843450  87.5721330  12.3385670
  62.2975640  95.7597810   8.1413260  62.6645770  95.2856380   8.8874600
  62.1080700  96.6339380   8.4821600  55.1616130  90.5041500   4.2706730
  54.8763050  90.1397170   5.1085350  55.0994990  89.7721960   3.6569870
  60.0875010  94.8006450  10.4597470  59.7832080  95.6798430  10.6847830
  61.0421470  94.8606240  10.4954910  56.1438740  95.6409190  11.6068830
  55.7853680  96.3063040  12.1942170  55.8493300  94.8092740  11.9781450
  59.3451860  96.0993430  14.4908380  59.0452000  96.2450610  13.5936200
  60.1163100  95.5398720  14.3981770  57.7193380  87.3711310   2.8234230
  57.5908010  87.3629210   3.7719150  56.8955400  87.7094400   2.4725240
  54.7187310  89.1302430  12.2840930  54.0045830  89.3299350  12.8893540
  55.1382350  88.3542000  12.6555730  66.2126090  91.6224740  10.0342380
  66.5806910  90.8019950  10.3621950  65.3524290  91.6826630  10.4498030
  61.5472150  92.8567630   2.2587820  60.8388300  93.3253970   2.7001430
  61.8316630  92.1989640   2.8933010  63.1728080  94.2764330  10.2580350
  63.6713330  94.7510150  10.9232200  63.3151030  93.3527850  10.4650380
  65.5787580  89.5818290   3.6983610  65.4555360  89.6004420   2.7493120
  66.5272140  89.6297230   3.8182010  70.3794940  90.4932290  11.1008740
  69.8768540  91.2337690  11.4402550  71.1951600  90.8816290  10.7845530
  68.6716950  95.7365470   4.5470100  67.7307090  95.7515700   4.7217790
  68.9861020  94.9501430   4.9930400  54.8716150  96.6725060  14.0263120
  55.3755170  96.0932340  14.5979350  54.1323570  96.9565290  14.5639490
  56.9039230  94.8154650  14.9213190  56.9444570  94.5168520  15.8298420
  57.7584730  95.2162260  14.7620710  58.8445040  93.3946750  12.8887680
  58.3141500  92.9037700  12.2611020  59.5133110  93.8230950  12.3545610
  68.2145270  95.2012370  14.6568020  68.7966040  94.4464690  14.5688500
  68.3907040  95.7319810  13.8799500  59.3317340  90.3609120  12.9684970
  59.2374210  89.7429870  12.2435840  58.7514730  91.0875410  12.7414880
  62.0978780  88.9182360  10.0012360  61.6496080  88.9406620   9.1557910
  61.4643980  88.5201380  10.5982660  64.8402230  95.5452870  12.0062640
  64.9598440  94.9494010  12.7457480  65.6996230  95.5822560  11.5863940
  67.1790130  96.0990060  10.5825150  66.6525350  96.6232680   9.9790290
  67.5221470  96.7317450  11.2134880  61.6071000  92.0874220  13.2638460
  62.1970690  91.7790070  13.9516280  60.7891240  91.6153970  13.4198360
  66.4264430  91.7040030  13.4971480  65.7379950  91.0421570  13.4321470
  67.1470450  91.2578300  13.9419940  54.9349890  96.0606320   4.3973310
  54.2798730  95.7917960   3.7533010  55.7727840  95.9510800   3.9475290
  71.3830060  95.7671750   2.3167600  71.0073660  94.9999680   1.8848890
  70.6533180  96.1494450   2.8042530  55.9725820  96.4458890   8.9376650
  56.3398860  96.3586290   9.8172670  55.4036640  95.6825440   8.8383510
  70.7729680  94.9143270  11.9507120  70.5415770  94.6856020  11.0505070
  71.0334230  95.8342820  11.9052010  55.5241820  93.3567980  12.8435070
  54.6297870  93.3234740  13.1828780  56.0639370  93.5554770  13.6086320
  69.2117750  90.1399700  14.7286820  70.0887930  90.1483100  15.1120820
  69.2238590  89.4030540  14.1179170  70.6581020  93.9929240   5.6174840
  71.1818500  93.4991890   4.9865010  71.2440440  94.1279600   6.3622410
  70.8370740  94.0769110   9.1394390  69.8873450  94.0432650   9.2539380
  71.0183750  94.9869220   8.9044160  56.0281530  87.6316310   7.1918290
  56.6757720  87.0813690   6.7513450  56.4483370  87.8859460   8.0134100
  71.5768150  91.8863540   4.0904930  71.4667430  91.7319580   5.0287200
  72.3375740  91.3584480   3.8480340  69.9233870  87.8257670  10.5487930
  70.5606090  88.4391810  10.9147120  70.0708760  87.8618330   9.6037160
  55.7813530  87.7871980   9.9343610  55.4328350  88.2435800  10.7001790
  55.4501230  86.8929110  10.0166040  63.2938350  88.9783860  13.4563030
  63.2327240  89.5705690  14.2058440  64.2338730  88.8709820  13.3113290
  65.9312910  88.6353920  13.0955320  66.5453320  88.9533210  12.4336400
  66.4762470  88.1502510  13.7151180  56.4534170  87.3148180  13.2094380
  57.0017160  87.1336230  12.4460490  56.5189480  86.5242290  13.7450690
  66.6720950  87.1986060   9.4224610  65.7980790  87.5321170   9.2197540
  66.5631700  86.7259240  10.2476480  67.5792930  89.4056930  10.8066330
  67.2506290  88.5908690  10.4268060  68.5275230  89.3626740  10.6832020
  64.4195770  88.1155900   8.3617520  63.6367560  88.5901400   8.6414280
  64.1258700  87.2110730   8.2530700  68.9716840  88.8179000   6.4066610
  69.4124930  88.7624100   5.5588210  68.7024430  89.7337010   6.4776790
  70.8355410  88.4494240   4.4175430  70.7743810  87.5055460   4.2706450
  71.6147440  88.5574330   4.9628890  62.3049990  90.5342650   3.8733550
  61.4924500  90.1599540   3.5329430  62.8091630  89.7787730   4.1754740
  66.8074970  87.1985100   5.1116620  67.4104340  87.7705310   5.5865140
  66.0667960  87.7624540   4.8890520  60.3299170  88.6842570   2.4778600
  59.7001910  87.9829880   2.6448730  59.7904310  89.4446700   2.2611760
  60.4554730  87.9626550  14.9131090  60.1739000  88.4660150  14.1491910
  60.8374430  87.1648300  14.5473220  67.0570190  87.3780130  15.4911560
  66.9435640  87.6974740  16.3863080  67.8739930  87.7792640  15.1948840
  65.9628340  76.6229110  98.5007240  65.8822390  75.7083720  98.2298950
  65.5492760  77.1196180  97.7946950  64.0946380  78.4008130 100.3816510
  63.3188480  77.9208570 100.6715080  64.7459310  77.7213780 100.2072670
  58.1112210  78.7127940 101.2592270  57.2797090  78.4576650 101.6588780
  58.7193190  78.7838710 101.9950190  68.1153810  82.8068320  99.1615640
  67.6535340  82.0355560  99.4902810  68.9279360  82.8334390  99.6668090
  58.0913470  82.7468030 101.4550290  58.3941510  81.8565770 101.2760510
  58.8357060  83.3038250 101.2272540  56.5204160  73.6729830  95.0434660
  55.6320860  74.0145800  94.9414540  56.8045350  73.4730150  94.1515490
  54.4837170  76.2735480 100.9274360  55.0553280  75.5057680 100.9278000
  54.4838710  76.5724240 100.0180970  64.3417120  85.0926330  98.7819630
  63.7228560  85.5483830  98.2114070  65.1968900  85.2477790  98.3809330
  63.5355370  81.0765320 100.3886670  63.4663650  80.1355260 100.2275800
  64.2975230  81.1666730 100.9609240  55.7262040  71.6819840 102.7143290
  55.5464880  70.7845590 102.9946050  55.3242120  72.2291710 103.3890240
  64.5660540  73.8835700 100.6155600  64.9425360  73.0107580 100.5029270
  64.4680050  74.2194400  99.7246040  58.6965550  72.2561330  96.0773040
  58.8032300  73.1565060  96.3841800  57.7857910  72.2079300  95.7867690
  68.3484660  71.3786140  97.5483940  69.1694280  70.8882710  97.5909420
  68.3818740  71.9683800  98.3015780  56.3448710  74.1780340 101.3225630
  57.0258820  74.4418710 101.9413030  56.0296760  73.3381210 101.6563640
  60.5373280  75.2247700 100.4098220  61.0451500  75.7228670 101.0503240
  61.0686520  74.4482900 100.2337580  72.6384210  73.3952890 104.1127570
  71.9336380  73.7834600 103.5942680  72.9042130  74.0903180 104.7148500
  58.8209380  69.8646260 104.6761640  58.8227820  70.3818650 103.8707540
  57.9913690  69.3876440 104.6531570  65.2080470  79.9765570  96.1751540
  64.5897740  80.4415020  95.6114260  65.7203720  80.6693050  96.5921050
  60.0712230  79.5041440 102.8535140  59.7381610  80.1310360 103.4956210
  60.2478910  80.0303320 102.0736810  68.5846140  73.3186520 100.3211480
  67.8801710  73.6071410 100.9014590  68.9458300  74.1286630  99.9611040
  58.5024710  71.5756220 102.6832090  58.8441520  72.4198270 102.3885960
  57.5640520  71.7239960 102.7997430  59.2831330  81.4722240 104.6684320
  59.9005330  82.1473320 104.3868770  58.4224450  81.8810220 104.5771820
  54.5763670  80.6622100  93.5491170  54.1991650  81.1509200  92.8176070
  54.8336740  81.3347380  94.1797700  70.2008920  82.9361650 102.5838960
  69.5172440  83.6060760 102.5755630  70.7403210  83.1342300 101.8183820
  71.6533060  72.7641310 100.7120690  70.7057970  72.7980290 100.8436120
  71.9783050  73.5780260 101.0970050  62.1852600  69.0638490  99.0076680
  62.4927580  68.5085380  98.2912180  61.2553300  69.1982950  98.8249670
  67.7367660  84.7805780 101.2984140  67.7494820  84.3768070 100.4306400
  67.1842880  85.5553070 101.1945570  69.0313080  81.5022000  96.3874310
  68.9209410  80.5596330  96.5123730  69.0281330  81.8637640  97.2737070
  67.1353100  79.6835620 102.6266750  67.5521890  79.4695730 101.7920210
  67.8592920  79.9408410 103.1975370  64.5733360  77.1287320  95.7436800
  63.6462640  77.0624700  95.9725270  64.7258180  78.0667450  95.6292040
  64.5602440  73.4004320  92.7403960  63.6206110  73.5618280  92.8256420
  64.8785700  74.1190000  92.1939950  71.0815200  78.0822840 102.7182990
  70.2533830  78.1515930 102.2433120  71.6765680  78.6677150 102.2498820
  68.6030650  78.6907620  96.2472050  67.9843070  78.3527170  95.5998350
  68.5855100  78.0467380  96.9551240  68.0457210  74.8692160 103.6637860
  67.6328390  75.6945870 103.9177850  67.3133160  74.2837200 103.4714220
  60.1790000  77.6552060  98.5256530  59.7747000  76.9429310  98.0302430
  60.2653120  77.3105300  99.4144570  60.6471700  81.3419620 100.6895740
  60.3499990  80.7365090 100.0103520  61.5971520  81.3796930 100.5785100
  58.8918620  74.4295270 102.3055570  59.4433210  74.5390610 101.5308820
  59.4062130  74.8032870 103.0210800  68.7357310  84.9151490 104.3518840
  68.2587870  85.7223680 104.1591450  68.0519100  84.2629820 104.5045050
  66.7795350  77.9294430  93.2544800  67.2188630  77.0916860  93.1082620
  67.4923770  78.5623830  93.3408940  64.8890730  82.8690500  97.2226040
  65.3286640  83.6114830  96.8081430  64.8277620  83.1117070  98.1465000
  70.3612490  69.1837240  91.5685840  70.0485150  69.2764070  92.4684910
  71.1224960  69.7618270  91.5183270  56.8794630  76.5497040  96.0263180
  56.7592230  77.2759130  95.4144450  56.5695520  75.7799950  95.5491090
  54.5180000  79.7212180 101.8331820  54.5960420  79.8560950 100.8887540
  55.1321680  79.0128070 102.0259940  55.7627630  81.4212370  98.2438000
  55.3555710  81.5626960  97.3891600  56.6540640  81.1372530  98.0409210
  67.5560910  85.8559620  94.5789050  67.3962050  85.5662560  95.4770880
  67.3907620  85.0799750  94.0434280  60.0349290  85.6358150  96.3560670
  59.8591770  84.7193690  96.1428470  59.1805030  85.9945440  96.5958470
  67.2587040  83.3647180  93.1387050  66.5652200  83.3624470  92.4789330
  68.0009900  82.9406500  92.7081220  66.8236970  84.9909890  97.2135540
  67.2793920  84.2099270  97.5274160  67.1629490  85.7016710  97.7576720
  59.3458290  69.8932110  99.4086850  58.9026440  70.6741650  99.0771370
  59.9043280  70.2162000 100.1157790  62.4617110  69.5142810  94.2892680
  61.8371290  69.5102680  95.0145990  62.3747230  68.6473770  93.8928650
  61.3834190  70.4379440 101.2676450  61.6806520  71.3442270 101.1868470
  61.9319750  69.9498220 100.6536020  59.1372510  75.0165680  97.1368100
  58.9113430  74.8002850  98.0414720  58.3565040  75.4494140  96.7914070
  66.3670270  75.0229050  95.7358750  65.7679160  75.7464850  95.5522370
  66.9149880  74.9605830  94.9535200  64.9735140  73.6592590  97.7662030
  65.3664710  73.9764790  96.9530720  65.3351990  72.7804470  97.8806550
  54.0099310  70.2493390  99.9892230  53.7212360  70.8196250 100.7017210
  54.7545070  69.7697840 100.3523460  54.1969540  74.1913510  91.1994950
  54.1144210  75.1344270  91.3409940  53.8452600  74.0488420  90.3207300
  65.5590280  76.2498340 101.8612810  64.8271400  76.7585150 102.2102910
  65.1614620  75.4328320 101.5601590  61.9967670  72.9252540 100.2665300
  62.0003730  72.4842490  99.4169840  62.8918790  73.2469870 100.3737120
  57.8470050  72.8079030  99.2259510  57.5070100  73.2854260  99.9826560
  57.0847370  72.3544150  98.8660610  62.0587820  73.9264620  93.2572060
  62.1800640  73.8851100  94.2057880  61.6736330  74.7888770  93.1018790
  66.0216190  71.7032020 101.2735750  66.0388930  72.1540670 102.1177600
  65.7731770  70.8037660 101.4869190  61.0709320  76.2365760  92.6555360
  60.5026220  75.7884010  92.0291270  61.7798320  76.5958540  92.1220510
  62.2975640  76.9854320 102.0130710  62.6645770  76.5112890 102.7592050
  62.1080700  77.8595890 102.3539050  55.1616130  71.7298010  98.1424180
  54.8763050  71.3653680  98.9802800  55.0994990  70.9978470  97.5287320
  60.0875010  76.0262960 104.3314920  59.7832080  76.9054940 104.5565280
  61.0421470  76.0862750 104.3672360  58.6156800  80.2323950  94.9281770
  57.8419060  79.6921570  94.7680490  59.3451430  79.7130560  94.5899530
  69.3744780  79.2289310 100.7208160  70.0943900  79.7244600 100.3304270
  69.1726600  78.5507200 100.0762030  64.8354720  70.6227270  94.8637550
  64.0219330  70.1240440  94.7882860  64.6416670  71.4625520  94.4473900
  67.5503110  74.9946920  93.1599710  68.4382730  75.3064150  92.9851050
  67.5208200  74.1219170  92.7680290  58.6594200  79.9004330  98.5660580
  59.1772870  79.0972590  98.5117470  58.2078220  79.8383470  99.4077410
  63.5463700  81.1670610  93.8387880  63.8879400  81.9112840  93.3431200
  62.7176410  81.4801730  94.2012710  69.8217380  76.3058760  92.6279570
  69.7381100  76.7372980  91.7776010  70.5411570  76.7657110  93.0606390
  70.8504630  83.1601020  95.3561700  70.2080790  82.5056640  95.6305420
  70.4635290  83.5656110  94.5802370  66.4291110  80.4886450  99.2033390
  66.7814930  79.8914580  98.5434760  65.5453440  80.1630680  99.3741640
  62.5154390  81.2484140  96.6103800  63.2025520  81.7953350  96.9911390
  61.7286810  81.7924870  96.6453410  54.6546790  76.8656960  92.1020880
  55.5241640  77.1481760  92.3856800  54.1637110  77.6792830  91.9869690
  61.8181600  78.2530170  96.2229160  62.2744380  79.0635420  96.4489350
  61.4669810  77.9353310  97.0547650  64.1214210  83.7636510 103.4521460
  64.7656430  83.9695890 104.1294880  64.4843650  83.0024910 102.9992310
  57.7193380  68.5967820  96.6951680  57.5908010  68.5885720  97.6436600
  56.8955400  68.9350910  96.3442690  65.3946290  81.7668860 102.1698910
  66.0368520  81.0662020 102.2831080  65.9195640  82.5467300 101.9895800
  69.2402010  82.0517480  91.8938050  69.0139590  81.3347920  92.4862690
  68.8498210  81.8029920  91.0559800  55.0218040  86.0784340  92.6682510
  55.3815680  86.6773680  92.0139780  54.8810380  86.6244230  93.4417540
  68.8218260  79.9689420  93.5552210  68.5339960  80.4302110  94.3430090
  69.6170430  79.5087190  93.8236430  61.0386660  83.4615540  93.4856180
  61.0296760  84.1945230  92.8700690  60.1185020  83.2147120  93.5783140
  56.6393300  78.6830430  94.2302940  56.0321250  79.4229330  94.2398240
  57.1142650  78.7729790  93.4041140  66.2126090  72.8481250 103.9059830
  66.5806910  72.0276460 104.2339400  65.3524290  72.9083140 104.3215480
  69.5788120  71.8038190  94.7147390  68.9501280  71.9083860  94.0005620
  69.0840040  72.0234970  95.5041270  64.0246260  83.5243780  92.1481370
  64.1258240  83.3207770  91.2183350  63.1248000  83.2702060  92.3529150
  61.5472150  74.0824140  96.1305270  60.8388300  74.5510480  96.5718880
  61.8316630  73.4246150  96.7650460  63.1728080  75.5020840 104.1297800
  63.6713330  75.9766660 104.7949650  63.3151030  74.5784360 104.3367830
  65.5787580  70.8074800  97.5701060  65.4555360  70.8260930  96.6210570
  66.5272140  70.8553740  97.6899460  62.6664370  86.0430100  96.8429040
  62.9205870  86.0051490  95.9208410  61.7176850  85.9163430  96.8357290
  59.7507170  72.3909220  93.5055980  60.5997700  72.8279370  93.4396170
  59.3838440  72.7029480  94.3328040  68.6716950  76.9621980  98.4187550
  67.7307090  76.9772210  98.5935240  68.9861020  76.1757940  98.8647850
  58.6498590  78.6441580  91.9791510  59.4161860  78.5322940  92.5416940
  58.7273280  77.9479550  91.3268280  57.3445350  76.0766650  92.6624400
  57.4248940  75.1294160  92.7741800  58.2365100  76.4073530  92.7685060
  70.6742530  84.1330830 100.0941810  70.7989950  84.9562000 100.5665620
  71.5408090  83.9221560  99.7465960  58.1460060  86.2262040  99.7658940
  58.8822540  85.6777500 100.0367510  58.5300980  87.0918050  99.6264930
  55.0305540  82.2935610  95.6400450  54.1045320  82.5356750  95.6305860
  55.4961970  83.1209870  95.5185200  61.2562370  85.3992350  91.5884510
  62.0490980  85.6881180  91.1366300  60.7366720  84.9684520  90.9096990
  70.3092540  84.6262480  93.0121250  70.0234050  84.2127620  92.1975430
  70.1112090  85.5550190  92.8921770  61.7739770  80.6195760  91.4526860
  61.6690410  80.0048110  92.1788240  61.6063990  80.0961650  90.6689870
  65.0142500  79.6815790  92.0568850  64.4652600  80.1285090  92.7011590
  65.6361760  79.1765040  92.5806520  60.6817620  78.6406710  93.9534150
  61.1034040  78.4746580  94.7965540  60.8068460  77.8306940  93.4589290
  63.1945260  77.6644320  91.2011250  63.7150920  76.9493340  90.8352400
  63.8413660  78.3030190  91.5011760  62.0978780  70.1438870 103.8729810
  61.6496080  70.1663130 103.0275360  61.4643980  69.7457890 104.4700110
  62.5038330  79.0393200 104.4942250  62.9226440  79.8825930 104.3218490
  61.5846960  79.1765240 104.2649030  59.5776520  74.7139940  90.8992310
  59.3765580  73.8507300  91.2605650  59.4068570  74.6273300  89.9613910
  67.0564830  69.5248170  93.4279190  67.3367120  68.6816070  93.7838610
  66.2830560  69.7571280  93.9417940  58.3759320  71.8140560  90.8870190
  58.6785220  71.8207990  89.9789340  59.1153910  71.4638420  91.3837850
  61.5944250  70.7575180  91.8726390  61.2466250  70.0799170  91.2928840
  61.7957020  70.2964690  92.6869780  63.7593290  85.7455930  93.4912990
  64.6544080  86.0840900  93.5131750  63.7910920  85.0235340  92.8637270
  57.3989450  81.1182980  91.7199990  57.8364320  81.6612650  92.3757570
  57.8837180  80.2929930  91.7296330  54.6135250  83.9072010  99.1720250
  54.9438260  83.0393070  98.9398890  55.0426250  84.1130530 100.0025210
  59.2097170  82.2381020  96.8322220  58.9092710  82.1145990  97.7326130
  59.1034660  81.3789610  96.4237950  55.1025460  84.7742600 101.9101880
  54.6656450  84.9543400 102.7426030  55.6703140  85.5317220 101.7683600
  71.9789090  82.0177420  91.5348900  71.1482050  82.0854070  92.0056130
  72.1560920  82.9081540  91.2315760  71.4345550  78.7624900  94.0383100
  72.1964460  79.3321550  94.1442790  71.4499920  78.1952100  94.8091410
  54.9349890  77.2862830  98.2690760  54.2798730  77.0174470  97.6250460
  55.7727840  77.1767310  97.8192740  72.4405520  79.6175000  98.8825030
  72.8114350  78.8342320  98.4761000  73.0807450  80.3064100  98.7042330
  69.4239280  81.0011580 104.2955350  68.6099120  81.4308740 104.5581140
  69.8313480  81.6129990 103.6824400  71.4864720  79.0559270  91.1955620
  71.7613560  79.9638150  91.0674840  71.2975460  78.9921800  92.1317610
  67.8840330  72.0804120  92.4909250  68.3025210  71.8935100  91.6505910
  67.5776390  71.2283170  92.8012180  71.3830060  76.9928260  96.1885050
  71.0073660  76.2256190  95.7566340  70.6533180  77.3750960  96.6759980
  55.9725820  77.6715400 102.8094100  56.3398860  77.5842800 103.6890120
  55.4036640  76.9081950 102.7100960  54.1487970  74.4961760  94.2116090
  53.2452050  74.7591960  94.0367750  54.6328590  74.7672930  93.4316050
  70.6581020  75.2185750  99.4892290  71.1818500  74.7248400  98.8582460
  71.2440440  75.3536110 100.2339860  70.8370740  75.3025620 103.0111840
  69.8873450  75.2689160 103.1256830  71.0183750  76.2125730 102.7761610
  56.6915180  73.5527300  92.1210470  57.4006880  73.1310520  91.6357750
  55.9755120  73.6202530  91.4893820  56.3389340  69.6066630  91.1613120
  57.0617470  70.1475570  91.4794340  56.6113860  69.3330050  90.2854660
  70.1480990  74.4759100  95.4284700  70.6440110  74.2429970  96.2133580
  69.9497060  73.6370940  95.0122340  56.0281530  68.8572820 101.0635740
  56.6757720  68.3070200 100.6230900  56.4483370  69.1115970 101.8851550
  71.5768150  73.1120050  97.9622380  71.4667430  72.9576090  98.9004650
  72.3375740  72.5840990  97.7197790  69.9233870  69.0514180 104.4205380
  70.5606090  69.6648320 104.7864570  70.0708760  69.0874840 103.4754610
  72.4658420  70.9427970  91.2028520  73.3907730  70.8109150  90.9946810
  72.4434210  71.0220790  92.1564970  72.5396910  71.7138630  93.8285230
  71.7448410  71.6483750  94.3578140  72.7440190  72.6489270  93.8170580
  69.4815330  85.7530180  97.8223620  70.0774400  85.4314750  97.1458040
  69.7393480  85.2802000  98.6136890  55.7813530  69.0128490 103.8061060
  55.4328350  69.4692310 104.5719240  55.4501230  68.1185620 103.8883490
  61.0883930  83.7407680 103.5723970  60.8475290  84.0082240 102.6854490
  62.0286570  83.9113410 103.6274830  72.3488090  85.7602060 104.3734610
  71.8546370  86.1570930 103.6561740  71.7401380  85.1351270 104.7671890
  66.6720950  68.4242570 103.2942060  65.7980790  68.7577680 103.0914990
  66.5631700  67.9515750 104.1193930  67.5792930  70.6313440 104.6783780
  67.2506290  69.8165200 104.2985510  68.5275230  70.5883250 104.5549470
  70.0327540  86.4025480 101.6521350  69.5730510  87.1541290 101.2779370
  69.4040000  85.6831950 101.5936150  56.8578160  82.4968720 104.0420070
  56.1312220  81.8774010 103.9746020  56.9187310  82.8909330 103.1718150
  60.4623260  84.7113720 100.8269480  60.9788280  84.1001080 100.3017740
  61.1120640  85.2142500 101.3180490  63.2018760  85.6022210 101.6538460
  63.4896570  85.3476510 100.7771470  63.7141980  85.0499570 102.2444030
  64.4195770  69.3412410 102.2334970  63.6367560  69.8157910 102.5131730
  64.1258700  68.4367240 102.1248150  68.9716840  70.0435510 100.2784060
  69.4124930  69.9880610  99.4305660  68.7024430  70.9593520 100.3494240
  70.8355410  69.6750750  98.2892880  70.7743810  68.7311970  98.1423900
  71.6147440  69.7830840  98.8346340  55.1408160  85.8143110  97.2516830
  54.9730200  85.1813790  97.9498720  54.2742670  86.0202510  96.9011020
  55.7636180  69.6459890  94.7548690  56.5215540  69.7588770  94.1812720
  55.3013350  70.4829090  94.7092120  62.3049990  71.7599160  97.7451000
  61.4924500  71.3856050  97.4046880  62.8091630  71.0044240  98.0472190
  66.8074970  68.4241610  98.9834070  67.4104340  68.9961820  99.4582590
  66.0667960  68.9881050  98.7607970  69.9509570  68.8263170  94.2574350
  70.1460200  69.7246620  94.5241780  69.1639440  68.5950250  94.7507300
  56.7470860  84.5076340  94.6966970  56.2218480  84.8884370  93.9928930
  56.6715440  85.1327110  95.4176680  58.1361330  70.1723940  93.2950660
  58.6654090  69.3853740  93.1658610  58.7689650  70.8515130  93.5286190
  60.3299170  69.9099080  96.3496050  59.7001910  69.2086390  96.5166180
  59.7904310  70.6703210  96.1329210  71.5036180  86.0663880  96.0180910
  71.6788370  85.3801620  95.3741830  70.8057750  86.5910930  95.6257580
  59.3463830  86.4558720  93.5716220  60.0782650  86.1718000  93.0240110
  59.6057500  86.2172000  94.4615600  58.5078620  82.5723450  93.5762550
  57.8787500  83.0408550  94.1248380  58.6226450  81.7272670  94.0108740
  65.9628340  76.6229110  79.7263750  65.8822390  75.7083720  79.4555460
  65.5492760  77.1196180  79.0203460  64.0946380  78.4008130  81.6073020
  63.3188480  77.9208570  81.8971590  64.7459310  77.7213780  81.4329180
  58.1112210  78.7127940  82.4848780  57.2797090  78.4576650  82.8845290
  58.7193190  78.7838710  83.2206700  68.1153810  82.8068320  80.3872150
  67.6535340  82.0355560  80.7159320  68.9279360  82.8334390  80.8924600
  58.0913470  82.7468030  82.6806800  58.3941510  81.8565770  82.5017020
  58.8357060  83.3038250  82.4529050  56.5204160  73.6729830  76.2691170
  55.6320860  74.0145800  76.1671050  56.8045350  73.4730150  75.3772000
  54.4837170  76.2735480  82.1530870  55.0553280  75.5057680  82.1534510
  54.4838710  76.5724240  81.2437480  64.3417120  85.0926330  80.0076140
  63.7228560  85.5483830  79.4370580  65.1968900  85.2477790  79.6065840
  63.5355370  81.0765320  81.6143180  63.4663650  80.1355260  81.4532310
  64.2975230  81.1666730  82.1865750  55.7262040  71.6819840  83.9399800
  55.5464880  70.7845590  84.2202560  55.3242120  72.2291710  84.6146750
  64.5660540  73.8835700  81.8412110  64.9425360  73.0107580  81.7285780
  64.4680050  74.2194400  80.9502550  58.6965550  72.2561330  77.3029550
  58.8032300  73.1565060  77.6098310  57.7857910  72.2079300  77.0124200
  56.3448710  74.1780340  82.5482140  57.0258820  74.4418710  83.1669540
  56.0296760  73.3381210  82.8820150  60.5373280  75.2247700  81.6354730
  61.0451500  75.7228670  82.2759750  61.0686520  74.4482900  81.4594090
  72.6384210  73.3952890  85.3384080  71.9336380  73.7834600  84.8199190
  72.9042130  74.0903180  85.9405010  58.8209380  69.8646260  85.9018150
  58.8227820  70.3818650  85.0964050  57.9913690  69.3876440  85.8788080
  65.2080470  79.9765570  77.4008050  64.5897740  80.4415020  76.8370770
  65.7203720  80.6693050  77.8177560  60.0712230  79.5041440  84.0791650
  59.7381610  80.1310360  84.7212720  60.2478910  80.0303320  83.2993320
  68.5846140  73.3186520  81.5467990  67.8801710  73.6071410  82.1271100
  68.9458300  74.1286630  81.1867550  58.5024710  71.5756220  83.9088600
  58.8441520  72.4198270  83.6142470  57.5640520  71.7239960  84.0253940
  59.2831330  81.4722240  85.8940830  59.9005330  82.1473320  85.6125280
  58.4224450  81.8810220  85.8028330  54.5763670  80.6622100  74.7747680
  54.1991650  81.1509200  74.0432580  54.8336740  81.3347380  75.4054210
  70.2008920  82.9361650  83.8095470  69.5172440  83.6060760  83.8012140
  70.7403210  83.1342300  83.0440330  71.6533060  72.7641310  81.9377200
  70.7057970  72.7980290  82.0692630  71.9783050  73.5780260  82.3226560
  62.1852600  69.0638490  80.2333190  62.4927580  68.5085380  79.5168690
  61.2553300  69.1982950  80.0506180  67.7367660  84.7805780  82.5240650
  67.7494820  84.3768070  81.6562910  67.1842880  85.5553070  82.4202080
  69.0313080  81.5022000  77.6130820  68.9209410  80.5596330  77.7380240
  69.0281330  81.8637640  78.4993580  67.1353100  79.6835620  83.8523260
  67.5521890  79.4695730  83.0176720  67.8592920  79.9408410  84.4231880
  64.5733360  77.1287320  76.9693310  63.6462640  77.0624700  77.1981780
  64.7258180  78.0667450  76.8548550  71.0815200  78.0822840  83.9439500
  70.2533830  78.1515930  83.4689630  71.6765680  78.6677150  83.4755330
  68.6030650  78.6907620  77.4728560  67.9843070  78.3527170  76.8254860
  68.5855100  78.0467380  78.1807750  68.0457210  74.8692160  84.8894370
  67.6328390  75.6945870  85.1434360  67.3133160  74.2837200  84.6970730
  60.1790000  77.6552060  79.7513040  59.7747000  76.9429310  79.2558940
  60.2653120  77.3105300  80.6401080  60.6471700  81.3419620  81.9152250
  60.3499990  80.7365090  81.2360030  61.5971520  81.3796930  81.8041610
  58.8918620  74.4295270  83.5312080  59.4433210  74.5390610  82.7565330
  59.4062130  74.8032870  84.2467310  68.7357310  84.9151490  85.5775350
  68.2587870  85.7223680  85.3847960  68.0519100  84.2629820  85.7301560
  59.7390130  81.0801310  88.5660050  58.8418660  81.3041280  88.8133450
  59.7643000  81.2036250  87.6171450  66.7795350  77.9294430  74.4801310
  67.2188630  77.0916860  74.3339130  67.4923770  78.5623830  74.5665450
  58.5661350  77.9514630  87.1417420  58.4269120  78.8237430  87.5104820
  57.6842710  77.6087440  86.9965360  64.8890730  82.8690500  78.4482550
  65.3286640  83.6114830  78.0337940  64.8277620  83.1117070  79.3721510
  60.3641700  83.8936330  89.3502570  60.3357130  84.2979280  88.4831000
  60.2006670  82.9646690  89.1874170  56.8794630  76.5497040  77.2519690
  56.7592230  77.2759130  76.6400960  56.5695520  75.7799950  76.7747600
  72.3156520  84.6763430  90.6466740  72.7916240  85.1546320  91.3255820
  72.9363680  84.6080920  89.9212240  54.5180000  79.7212180  83.0588330
  54.5960420  79.8560950  82.1144050  55.1321680  79.0128070  83.2516450
  55.7627630  81.4212370  79.4694510  55.3555710  81.5626960  78.6148110
  56.6540640  81.1372530  79.2665720  71.7189770  81.8676280  87.8066750
  71.8452830  81.6288160  86.8883930  71.7611150  81.0360820  88.2788830
  65.5806510  85.5704280  86.3761560  66.0951180  85.4812290  87.1783990
  64.7375590  85.9163980  86.6689470  67.5560910  85.8559620  75.8045560
  67.3962050  85.5662560  76.7027390  67.3907620  85.0799750  75.2690790
  60.0349290  85.6358150  77.5817180  59.8591770  84.7193690  77.3684980
  59.1805030  85.9945440  77.8214980  67.2587040  83.3647180  74.3643560
  66.5652200  83.3624470  73.7045840  68.0009900  82.9406500  73.9337730
  66.8236970  84.9909890  78.4392050  67.2793920  84.2099270  78.7530670
  67.1629490  85.7016710  78.9833230  71.5713780  73.9208740  88.7716490
  70.9558050  74.4288410  88.2431950  71.2510200  73.0207070  88.7142430
  54.5739520  80.7626350  85.5982790  54.7370560  80.2931710  84.7802160
  55.0391970  80.2549910  86.2631630  59.3458290  69.8932110  80.6343360
  58.9026440  70.6741650  80.3027880  59.9043280  70.2162000  81.3414300
  63.6328100  72.7600630  86.2378680  63.1707470  72.9683650  87.0498620
  63.2306210  71.9459980  85.9349350  68.6332610  73.9809580  87.3675340
  67.7826200  73.6815330  87.6884410  68.4734400  74.2251590  86.4559160
  65.7282320  75.4811330  89.4674130  66.0535730  74.6475080  89.1276360
  66.5162650  76.0039850  89.6152460  61.3834190  70.4379440  82.4932960
  61.6806520  71.3442270  82.4124980  61.9319750  69.9498220  81.8792530
  59.1372510  75.0165680  78.3624610  58.9113430  74.8002850  79.2671230
  58.3565040  75.4494140  78.0170580  66.3670270  75.0229050  76.9615260
  65.7679160  75.7464850  76.7778880  66.9149880  74.9605830  76.1791710
  61.5771720  75.9151260  89.0284880  61.4815320  74.9745990  88.8785280
  62.4203700  76.1366330  88.6332950  64.9735140  73.6592590  78.9918540
  65.3664710  73.9764790  78.1787230  65.3351990  72.7804470  79.1063060
  56.7082260  72.3264930  87.1818660  56.3145650  73.1740140  87.3891440
  56.0200660  71.6891300  87.3727300  63.2827310  72.4099900  90.2515400
  62.5925630  72.2172100  90.8861490  64.0259610  72.6934540  90.7839700
  54.0099310  70.2493390  81.2148740  53.7212360  70.8196250  81.9273720
  54.7545070  69.7697840  81.5779970  54.1969540  74.1913510  72.4251460
  54.1144210  75.1344270  72.5666450  53.8452600  74.0488420  71.5463810
  65.5590280  76.2498340  83.0869320  64.8271400  76.7585150  83.4359420
  65.1614620  75.4328320  82.7858100  61.9967670  72.9252540  81.4921810
  62.0003730  72.4842490  80.6426350  62.8918790  73.2469870  81.5993630
  57.8470050  72.8079030  80.4516020  57.5070100  73.2854260  81.2083070
  57.0847370  72.3544150  80.0917120  62.0587820  73.9264620  74.4828570
  62.1800640  73.8851100  75.4314390  61.6736330  74.7888770  74.3275300
  66.0216190  71.7032020  82.4992260  66.0388930  72.1540670  83.3434110
  65.7731770  70.8037660  82.7125700  61.0709320  76.2365760  73.8811870
  60.5026220  75.7884010  73.2547780  61.7798320  76.5958540  73.3477020
  69.4486940  69.1164200  88.3378640  69.7732710  68.3853860  88.8636620
  69.4843450  68.7977840  87.4359630  56.1478500  80.1377780  87.7578600
  55.7633290  79.4971450  88.3561560  56.4590690  80.8413900  88.3273330
  62.2975640  76.9854320  83.2387220  62.6645770  76.5112890  83.9848560
  62.1080700  77.8595890  83.5795560  55.1616130  71.7298010  79.3680690
  54.8763050  71.3653680  80.2059310  55.0994990  70.9978470  78.7543830
  60.0875010  76.0262960  85.5571430  59.7832080  76.9054940  85.7821790
  61.0421470  76.0862750  85.5928870  58.6156800  80.2323950  76.1538280
  57.8419060  79.6921570  75.9937000  59.3451430  79.7130560  75.8156040
  69.3744780  79.2289310  81.9464670  70.0943900  79.7244600  81.5560780
  69.1726600  78.5507200  81.3018540  64.7563580  79.2998370  87.8333670
  64.6900890  78.3794040  87.5791260  64.1268720  79.3973810  88.5478310
  58.6594200  79.9004330  79.7917090  59.1772870  79.0972590  79.7373980
  58.2078220  79.8383470  80.6333920  63.5463700  81.1670610  75.0644390
  63.8879400  81.9112840  74.5687710  62.7176410  81.4801730  75.4269220
  56.1438740  76.8665700  86.7042790  55.7853680  77.5319550  87.2916130
  55.8493300  76.0349250  87.0755410  59.3451860  77.3249940  89.5882340
  59.0452000  77.4707120  88.6910160  60.1163100  76.7655230  89.4955730
  64.6880310  82.1218940  87.5837470  64.7024850  81.1899900  87.3656380
  63.9805410  82.2078700  88.2227240  70.8991520  78.7626280  86.9306050
  70.1739710  79.3555060  86.7335440  71.4266980  78.7549820  86.1319420
  70.8504630  83.1601020  76.5818210  70.2080790  82.5056640  76.8561930
  70.4635290  83.5656110  75.8058880  66.4291110  80.4886450  80.4289900
  66.7814930  79.8914580  79.7691270  65.5453440  80.1630680  80.5998150
  62.5154390  81.2484140  77.8360310  63.2025520  81.7953350  78.2167900
  61.7286810  81.7924870  77.8709920  54.6546790  76.8656960  73.3277390
  55.5241640  77.1481760  73.6113310  54.1637110  77.6792830  73.2126200
  61.8181600  78.2530170  77.4485670  62.2744380  79.0635420  77.6745860
  61.4669810  77.9353310  78.2804160  64.1214210  83.7636510  84.6777970
  64.7656430  83.9695890  85.3551390  64.4843650  83.0024910  84.2248820
  57.7193380  68.5967820  77.9208190  57.5908010  68.5885720  78.8693110
  56.8955400  68.9350910  77.5699200  65.3946290  81.7668860  83.3955420
  66.0368520  81.0662020  83.5087590  65.9195640  82.5467300  83.2152310
  67.1683910  82.5663760  86.5991480  67.5040150  83.1530450  87.2769400
  66.2484250  82.4356470  86.8289270  55.0218040  86.0784340  73.8939020
  55.3815680  86.6773680  73.2396290  54.8810380  86.6244230  74.6674050
  54.7187310  70.3558940  87.3814890  54.0045830  70.5555860  87.9867500
  55.1382350  69.5798510  87.7529690  68.8218260  79.9689420  74.7808720
  68.5339960  80.4302110  75.5686600  69.6170430  79.5087190  75.0492940
  55.0059900  84.3439200  88.3681420  55.1151020  83.4033940  88.2276810
  54.3540460  84.6093950  87.7195150  62.9972490  82.6155090  89.7679540
  62.6769360  81.8964330  90.3125230  62.3230850  83.2910160  89.8415600
  61.0386660  83.4615540  74.7112690  61.0296760  84.1945230  74.0957200
  60.1185020  83.2147120  74.8039650  56.6393300  78.6830430  75.4559450
  56.0321250  79.4229330  75.4654750  57.1142650  78.7729790  74.6297650
  66.2126090  72.8481250  85.1316340  66.5806910  72.0276460  85.4595910
  65.3524290  72.9083140  85.5471990  64.0246260  83.5243780  73.3737880
  64.1258240  83.3207770  72.4439860  63.1248000  83.2702060  73.5785660
  61.5472150  74.0824140  77.3561780  60.8388300  74.5510480  77.7975390
  61.8316630  73.4246150  77.9906970  63.1728080  75.5020840  85.3554310
  63.6713330  75.9766660  86.0206160  63.3151030  74.5784360  85.5624340
  65.5787580  70.8074800  78.7957570  65.4555360  70.8260930  77.8467080
  66.5272140  70.8553740  78.9155970  62.6664370  86.0430100  78.0685550
  62.9205870  86.0051490  77.1464920  61.7176850  85.9163430  78.0613800
  59.7507170  72.3909220  74.7312490  60.5997700  72.8279370  74.6652680
  59.3838440  72.7029480  75.5584550  70.3794940  71.7188800  86.1982700
  69.8768540  72.4594200  86.5376510  71.1951600  72.1072800  85.8819490
  68.6716950  76.9621980  79.6444060  67.7307090  76.9772210  79.8191750
  68.9861020  76.1757940  80.0904360  58.6498590  78.6441580  73.2048020
  59.4161860  78.5322940  73.7673450  58.7273280  77.9479550  72.5524790
  57.3445350  76.0766650  73.8880910  57.4248940  75.1294160  73.9998310
  58.2365100  76.4073530  73.9941570  70.6742530  84.1330830  81.3198320
  70.7989950  84.9562000  81.7922130  71.5408090  83.9221560  80.9722470
  58.1460060  86.2262040  80.9915450  58.8822540  85.6777500  81.2624020
  58.5300980  87.0918050  80.8521440  55.0305540  82.2935610  76.8656960
  54.1045320  82.5356750  76.8562370  55.4961970  83.1209870  76.7441710
  57.1518340  85.4108110  90.1801030  57.9531070  85.7320160  90.5936430
  56.6370160  85.0503690  90.9020940  61.2562370  85.3992350  72.8141020
  62.0490980  85.6881180  72.3622810  60.7366720  84.9684520  72.1353500
  65.9882970  81.5187980  90.1276440  65.3821130  81.5419580  89.3872190
  65.6837080  80.7871020  90.6643690  67.4183340  85.2468270  88.7385850
  68.3705090  85.1626290  88.6886090  67.2711560  85.9109980  89.4119640
  70.3092540  84.6262480  74.2377760  70.0234050  84.2127620  73.4231940
  70.1112090  85.5550190  74.1178280  54.8716150  77.8981570  89.1237080
  55.3755170  77.3188850  89.6953310  54.1323570  78.1821800  89.6613450
  61.7739770  80.6195760  72.6783370  61.6690410  80.0048110  73.4044750
  61.6063990  80.0961650  71.8946380  61.9254090  79.3052560  88.6572600
  61.1599760  79.8737560  88.5727270  62.1070050  79.0128770  87.7640830
  65.0142500  79.6815790  73.2825360  64.4652600  80.1285090  73.9268100
  65.6361760  79.1765040  73.8063030  69.0677440  81.0357890  89.2147620
  69.8086910  81.3733650  88.7115080  68.3050120  81.2049950  88.6617390
  56.9039230  76.0411160  90.0187150  56.9444570  75.7425030  90.9272380
  57.7584730  76.4418770  89.8594670  60.6817620  78.6406710  75.1790660
  61.1034040  78.4746580  76.0222050  60.8068460  77.8306940  74.6845800
  58.8445040  74.6203260  87.9861640  58.3141500  74.1294210  87.3584980
  59.5133110  75.0487460  87.4519570  63.1945260  77.6644320  72.4267760
  63.7150920  76.9493340  72.0608910  63.8413660  78.3030190  72.7268270
  67.7423100  79.0872720  87.7502830  68.1564120  79.2417800  88.5993250
  66.8074100  79.2127940  87.9128610  68.2145270  76.4268880  89.7541980
  68.7966040  75.6721200  89.6662460  68.3907040  76.9576320  88.9773460
  59.3317340  71.5865630  88.0658930  59.2374210  70.9686380  87.3409800
  58.7514730  72.3131920  87.8388840  62.0978780  70.1438870  85.0986320
  61.6496080  70.1663130  84.2531870  61.4643980  69.7457890  85.6956620
  62.5038330  79.0393200  85.7198760  62.9226440  79.8825930  85.5475000
  61.5846960  79.1765240  85.4905540  64.8402230  76.7709380  87.1036600
  64.9598440  76.1750520  87.8431440  65.6996230  76.8079070  86.6837900
  67.1790130  77.3246570  85.6799110  66.6525350  77.8489190  85.0764250
  67.5221470  77.9573960  86.3108840  59.5776520  74.7139940  72.1248820
  59.3765580  73.8507300  72.4862160  59.4068570  74.6273300  71.1870420
  60.3545750  85.3446210  86.8356490  59.8166840  86.0692270  86.5165190
  60.6079710  84.8676550  86.0453830  61.6071000  73.3130730  88.3612420
  62.1970690  73.0046580  89.0490240  60.7891240  72.8410480  88.5172320
  66.4264430  72.9296540  88.5945440  65.7379950  72.2678080  88.5295430
  67.1470450  72.4834810  89.0393900  58.3759320  71.8140560  72.1126700
  58.6785220  71.8207990  71.2045850  59.1153910  71.4638420  72.6094360
  63.2107960  86.5797420  87.0943140  63.1366660  87.4832560  87.4015510
  62.3086800  86.2609320  87.0665210  63.7593290  85.7455930  74.7169500
  64.6544080  86.0840900  74.7388260  63.7910920  85.0235340  74.0893780
  57.3989450  81.1182980  72.9456500  57.8364320  81.6612650  73.6014080
  57.8837180  80.2929930  72.9552840  54.6135250  83.9072010  80.3976760
  54.9438260  83.0393070  80.1655400  55.0426250  84.1130530  81.2281720
  59.2097170  82.2381020  78.0578730  58.9092710  82.1145990  78.9582640
  59.1034660  81.3789610  77.6494460  55.1025460  84.7742600  83.1358390
  54.6656450  84.9543400  83.9682540  55.6703140  85.5317220  82.9940110
  70.7387640  84.2759600  87.4235700  70.1389630  84.3352160  86.6799620
  70.8681540  83.3364580  87.5532550  71.4345550  78.7624900  75.2639610
  72.1964460  79.3321550  75.3699300  71.4499920  78.1952100  76.0347920
  54.9349890  77.2862830  79.4947270  54.2798730  77.0174470  78.8506970
  55.7727840  77.1767310  79.0449250  72.4405520  79.6175000  80.1081540
  72.8114350  78.8342320  79.7017510  73.0807450  80.3064100  79.9298840
  69.4239280  81.0011580  85.5211860  68.6099120  81.4308740  85.7837650
  69.8313480  81.6129990  84.9080910  71.3830060  76.9928260  77.4141560
  71.0073660  76.2256190  76.9822850  70.6533180  77.3750960  77.9016490
  55.9725820  77.6715400  84.0350610  56.3398860  77.5842800  84.9146630
  55.4036640  76.9081950  83.9357470  70.7729680  76.1399780  87.0481080
  70.5415770  75.9112530  86.1479030  71.0334230  77.0599330  87.0025970
  55.5241820  74.5824490  87.9409030  54.6297870  74.5491250  88.2802740
  56.0639370  74.7811280  88.7060280  69.2117750  71.3656210  89.8260780
  70.0887930  71.3739610  90.2094780  69.2238590  70.6287050  89.2153130
  54.1487970  74.4961760  75.4372600  53.2452050  74.7591960  75.2624260
  54.6328590  74.7672930  74.6572560  70.6581020  75.2185750  80.7148800
  71.1818500  74.7248400  80.0838970  71.2440440  75.3536110  81.4596370
  70.8370740  75.3025620  84.2368350  69.8873450  75.2689160  84.3513340
  71.0183750  76.2125730  84.0018120  56.6915180  73.5527300  73.3466980
  57.4006880  73.1310520  72.8614260  55.9755120  73.6202530  72.7150330
  56.3389340  69.6066630  72.3869630  57.0617470  70.1475570  72.7050850
  56.6113860  69.3330050  71.5111170  70.1480990  74.4759100  76.6541210
  70.6440110  74.2429970  77.4390090  69.9497060  73.6370940  76.2378850
  56.0281530  68.8572820  82.2892250  56.6757720  68.3070200  81.8487410
  56.4483370  69.1115970  83.1108060  69.9233870  69.0514180  85.6461890
  70.5606090  69.6648320  86.0121080  70.0708760  69.0874840  84.7011120
  69.4815330  85.7530180  79.0480130  70.0774400  85.4314750  78.3714550
  69.7393480  85.2802000  79.8393400  55.7813530  69.0128490  85.0317570
  55.4328350  69.4692310  85.7975750  55.4501230  68.1185620  85.1140000
  57.3877900  82.1848090  89.1970760  57.3447530  81.8141000  90.0785220
  57.5188910  83.1225660  89.3372580  61.0883930  83.7407680  84.7980480
  60.8475290  84.0082240  83.9111000  62.0286570  83.9113410  84.8531340
  63.2938350  70.2040370  88.5536990  63.2327240  70.7962200  89.3032400
  64.2338730  70.0966330  88.4087250  65.9312910  69.8610430  88.1929280
  66.5453320  70.1789720  87.5310360  66.4762470  69.3759020  88.8125140
  72.3488090  85.7602060  85.5991120  71.8546370  86.1570930  84.8818250
  71.7401380  85.1351270  85.9928400  56.4534170  68.5404690  88.3068340
  57.0017160  68.3592740  87.5434450  56.5189480  67.7498800  88.8424650
  57.2265930  85.1310340  86.3168540  56.6326250  84.9995040  87.0558580
  57.2189770  84.2948480  85.8510640  66.6720950  68.4242570  84.5198570
  65.7980790  68.7577680  84.3171500  66.5631700  67.9515750  85.3450440
  67.5792930  70.6313440  85.9040290  67.2506290  69.8165200  85.5242020
  68.5275230  70.5883250  85.7805980  70.0327540  86.4025480  82.8777860
  69.5730510  87.1541290  82.5035880  69.4040000  85.6831950  82.8192660
  56.8578160  82.4968720  85.2676580  56.1312220  81.8774010  85.2002530
  56.9187310  82.8909330  84.3974660  60.4623260  84.7113720  82.0525990
  60.9788280  84.1001080  81.5274250  61.1120640  85.2142500  82.5437000
  63.2018760  85.6022210  82.8794970  63.4896570  85.3476510  82.0027980
  63.7141980  85.0499570  83.4700540  64.4195770  69.3412410  83.4591480
  63.6367560  69.8157910  83.7388240  64.1258700  68.4367240  83.3504660
  68.9716840  70.0435510  81.5040570  69.4124930  69.9880610  80.6562170
  68.7024430  70.9593520  81.5750750  55.1408160  85.8143110  78.4773340
  54.9730200  85.1813790  79.1755230  54.2742670  86.0202510  78.1267530
  55.7636180  69.6459890  75.9805200  56.5215540  69.7588770  75.4069230
  55.3013350  70.4829090  75.9348630  62.3049990  71.7599160  78.9707510
  61.4924500  71.3856050  78.6303390  62.8091630  71.0044240  79.2728700
  56.7470860  84.5076340  75.9223480  56.2218480  84.8884370  75.2185440
  56.6715440  85.1327110  76.6433190  58.1361330  70.1723940  74.5207170
  58.6654090  69.3853740  74.3915120  58.7689650  70.8515130  74.7542700
  60.3299170  69.9099080  77.5752560  59.7001910  69.2086390  77.7422690
  59.7904310  70.6703210  77.3585720  63.2691120  86.5238310  90.2463170
  64.1958430  86.2882580  90.2899130  63.2541550  87.3510310  89.7649200
  71.5036180  86.0663880  77.2437420  71.6788370  85.3801620  76.5998340
  70.8057750  86.5910930  76.8514090  60.4554730  69.1883060  90.0105050
  60.1739000  69.6916660  89.2465870  60.8374430  68.3904810  89.6447180
  59.3463830  86.4558720  74.7972730  60.0782650  86.1718000  74.2496620
  59.6057500  86.2172000  75.6872110  58.5078620  82.5723450  74.8019060
  57.8787500  83.0408550  75.3504890  58.6226450  81.7272670  75.2365250
  67.0570190  68.6036640  90.5885520  66.9435640  68.9231250  91.4837040
  67.8739930  69.0049150  90.2922800  69.8368680  85.7508170  90.0704210
  70.6294000  85.2557400  89.8630170  70.1301830  86.4298310  90.6779820
  58.1112210  78.7127940  63.7105290  57.2797090  78.4576650  64.1101800
  58.7193190  78.7838710  64.4463210  68.1153810  82.8068320  61.6128660
  67.6535340  82.0355560  61.9415830  68.9279360  82.8334390  62.1181110
  58.0913470  82.7468030  63.9063310  58.3941510  81.8565770  63.7273530
  58.8357060  83.3038250  63.6785560  54.4837170  76.2735480  63.3787380
  55.0553280  75.5057680  63.3791020  54.4838710  76.5724240  62.4693990
  64.3417120  85.0926330  61.2332650  63.7228560  85.5483830  60.6627090
  65.1968900  85.2477790  60.8322350  63.5355370  81.0765320  62.8399690
  63.4663650  80.1355260  62.6788820  64.2975230  81.1666730  63.4122260
  60.0712230  79.5041440  65.3048160  59.7381610  80.1310360  65.9469230
  60.2478910  80.0303320  64.5249830  59.2831330  81.4722240  67.1197340
  59.9005330  82.1473320  66.8381790  58.4224450  81.8810220  67.0284840
  67.7367660  84.7805780  63.7497160  67.7494820  84.3768070  62.8819420
  67.1842880  85.5553070  63.6458590  60.6471700  81.3419620  63.1408760
  60.3499990  80.7365090  62.4616540  61.5971520  81.3796930  63.0298120
  68.7357310  84.9151490  66.8031860  68.2587870  85.7223680  66.6104470
  68.0519100  84.2629820  66.9558070  59.7390130  81.0801310  69.7916560
  58.8418660  81.3041280  70.0389960  59.7643000  81.2036250  68.8427960
  58.5661350  77.9514630  68.3673930  58.4269120  78.8237430  68.7361330
  57.6842710  77.6087440  68.2221870  64.8890730  82.8690500  59.6739060
  65.3286640  83.6114830  59.2594450  64.8277620  83.1117070  60.5978020
  60.3641700  83.8936330  70.5759080  60.3357130  84.2979280  69.7087510
  60.2006670  82.9646690  70.4130680  72.3156520  84.6763430  71.8723250
  72.7916240  85.1546320  72.5512330  72.9363680  84.6080920  71.1468750
  54.5180000  79.7212180  64.2844840  54.5960420  79.8560950  63.3400560
  55.1321680  79.0128070  64.4772960  55.7627630  81.4212370  60.6951020
  55.3555710  81.5626960  59.8404620  56.6540640  81.1372530  60.4922230
  65.5806510  85.5704280  67.6018070  66.0951180  85.4812290  68.4040500
  64.7375590  85.9163980  67.8945980  67.5560910  85.8559620  57.0302070
  67.3962050  85.5662560  57.9283900  67.3907620  85.0799750  56.4947300
  60.0349290  85.6358150  58.8073690  59.8591770  84.7193690  58.5941490
  59.1805030  85.9945440  59.0471490  67.2587040  83.3647180  55.5900070
  66.5652200  83.3624470  54.9302350  68.0009900  82.9406500  55.1594240
  66.8236970  84.9909890  59.6648560  67.2793920  84.2099270  59.9787180
  67.1629490  85.7016710  60.2089740  54.5739520  80.7626350  66.8239300
  54.7370560  80.2931710  66.0058670  55.0391970  80.2549910  67.4888140
  56.7082260  72.3264930  68.4075170  56.3145650  73.1740140  68.6147950
  56.0200660  71.6891300  68.5983810  56.1478500  80.1377780  68.9835110
  55.7633290  79.4971450  69.5818070  56.4590690  80.8413900  69.5529840
  64.7563580  79.2998370  69.0590180  64.6900890  78.3794040  68.8047770
  64.1268720  79.3973810  69.7734820  63.5463700  81.1670610  56.2900900
  63.8879400  81.9112840  55.7944220  62.7176410  81.4801730  56.6525730
  56.1438740  76.8665700  67.9299300  55.7853680  77.5319550  68.5172640
  55.8493300  76.0349250  68.3011920  59.3451860  77.3249940  70.8138850
  59.0452000  77.4707120  69.9166670  60.1163100  76.7655230  70.7212240
  64.6880310  82.1218940  68.8093980  64.7024850  81.1899900  68.5912890
  63.9805410  82.2078700  69.4483750  70.8504630  83.1601020  57.8074720
  70.2080790  82.5056640  58.0818440  70.4635290  83.5656110  57.0315390
  66.4291110  80.4886450  61.6546410  66.7814930  79.8914580  60.9947780
  65.5453440  80.1630680  61.8254660  62.5154390  81.2484140  59.0616820
  63.2025520  81.7953350  59.4424410  61.7286810  81.7924870  59.0966430
  64.1214210  83.7636510  65.9034480  64.7656430  83.9695890  66.5807900
  64.4843650  83.0024910  65.4505330  65.3946290  81.7668860  64.6211930
  66.0368520  81.0662020  64.7344100  65.9195640  82.5467300  64.4408820
  69.2402010  82.0517480  54.3451070  69.0139590  81.3347920  54.9375710
  68.8498210  81.8029920  53.5072820  67.1683910  82.5663760  67.8247990
  67.5040150  83.1530450  68.5025910  66.2484250  82.4356470  68.0545780
  55.0218040  86.0784340  55.1195530  55.3815680  86.6773680  54.4652800
  54.8810380  86.6244230  55.8930560  54.7187310  70.3558940  68.6071400
  54.0045830  70.5555860  69.2124010  55.1382350  69.5798510  68.9786200
  55.0059900  84.3439200  69.5937930  55.1151020  83.4033940  69.4533320
  54.3540460  84.6093950  68.9451660  62.9972490  82.6155090  70.9936050
  62.6769360  81.8964330  71.5381740  62.3230850  83.2910160  71.0672110
  61.0386660  83.4615540  55.9369200  61.0296760  84.1945230  55.3213710
  60.1185020  83.2147120  56.0296160  64.0246260  83.5243780  54.5994390
  64.1258240  83.3207770  53.6696370  63.1248000  83.2702060  54.8042170
  62.6664370  86.0430100  59.2942060  62.9205870  86.0051490  58.3721430
  61.7176850  85.9163430  59.2870310  70.6742530  84.1330830  62.5454830
  70.7989950  84.9562000  63.0178640  71.5408090  83.9221560  62.1978980
  58.1460060  86.2262040  62.2171960  58.8822540  85.6777500  62.4880530
  58.5300980  87.0918050  62.0777950  57.1518340  85.4108110  71.4057540
  57.9531070  85.7320160  71.8192940  56.6370160  85.0503690  72.1277450
  61.2562370  85.3992350  54.0397530  62.0490980  85.6881180  53.5879320
  60.7366720  84.9684520  53.3610010  65.9882970  81.5187980  71.3532950
  65.3821130  81.5419580  70.6128700  65.6837080  80.7871020  71.8900200
  67.4183340  85.2468270  69.9642360  68.3705090  85.1626290  69.9142600
  67.2711560  85.9109980  70.6376150  70.3092540  84.6262480  55.4634270
  70.0234050  84.2127620  54.6488450  70.1112090  85.5550190  55.3434790
  54.8716150  77.8981570  70.3493590  55.3755170  77.3188850  70.9209820
  54.1323570  78.1821800  70.8869960  61.7739770  80.6195760  53.9039880
  61.6690410  80.0048110  54.6301260  61.6063990  80.0961650  53.1202890
  61.9254090  79.3052560  69.8829110  61.1599760  79.8737560  69.7983780
  62.1070050  79.0128770  68.9897340  56.9039230  76.0411160  71.2443660
  56.9444570  75.7425030  72.1528890  57.7584730  76.4418770  71.0851180
  58.8445040  74.6203260  69.2118150  58.3141500  74.1294210  68.5841490
  59.5133110  75.0487460  68.6776080  63.1945260  77.6644320  53.6524270
  63.7150920  76.9493340  53.2865420  63.8413660  78.3030190  53.9524780
  60.3545750  85.3446210  68.0613000  59.8166840  86.0692270  67.7421700
  60.6079710  84.8676550  67.2710340  63.2107960  86.5797420  68.3199650
  63.1366660  87.4832560  68.6272020  62.3086800  86.2609320  68.2921720
  63.7593290  85.7455930  55.9426010  64.6544080  86.0840900  55.9644770
  63.7910920  85.0235340  55.3150290  57.3989450  81.1182980  54.1713010
  57.8364320  81.6612650  54.8270590  57.8837180  80.2929930  54.1809350
  54.6135250  83.9072010  61.6233270  54.9438260  83.0393070  61.3911910
  55.0426250  84.1130530  62.4538230  55.1025460  84.7742600  64.3614900
  54.6656450  84.9543400  65.1939050  55.6703140  85.5317220  64.2196620
  55.9725820  77.6715400  65.2607120  56.3398860  77.5842800  66.1403140
  55.4036640  76.9081950  65.1613980  55.5241820  74.5824490  69.1665540
  54.6297870  74.5491250  69.5059250  56.0639370  74.7811280  69.9316790
  69.4815330  85.7530180  60.2736640  70.0774400  85.4314750  59.5971060
  69.7393480  85.2802000  61.0649910  57.3877900  82.1848090  70.4227270
  57.3447530  81.8141000  71.3041730  57.5188910  83.1225660  70.5629090
  61.0883930  83.7407680  66.0236990  60.8475290  84.0082240  65.1367510
  62.0286570  83.9113410  66.0787850  57.2265930  85.1310340  67.5425050
  56.6326250  84.9995040  68.2815090  57.2189770  84.2948480  67.0767150
  70.0327540  86.4025480  64.1034370  69.5730510  87.1541290  63.7292390
  69.4040000  85.6831950  64.0449170  56.8578160  82.4968720  66.4933090
  56.1312220  81.8774010  66.4259040  56.9187310  82.8909330  65.6231170
  60.4623260  84.7113720  63.2782500  60.9788280  84.1001080  62.7530760
  61.1120640  85.2142500  63.7693510  63.2018760  85.6022210  64.1051480
  63.4896570  85.3476510  63.2284490  63.7141980  85.0499570  64.6957050
  55.1408160  85.8143110  59.7029850  54.9730200  85.1813790  60.4011740
  54.2742670  86.0202510  59.3524040  56.7470860  84.5076340  57.1479990
  56.2218480  84.8884370  56.4441950  56.6715440  85.1327110  57.8689700
  63.2691120  86.5238310  71.4719680  64.1958430  86.2882580  71.5155640
  63.2541550  87.3510310  70.9905710  71.5036180  86.0663880  58.4693930
  71.6788370  85.3801620  57.8254850  70.8057750  86.5910930  58.0770600
  59.3463830  86.4558720  56.0229240  60.0782650  86.1718000  55.4753130
  59.6057500  86.2172000  56.9128620  58.5078620  82.5723450  56.0275570
  57.8787500  83.0408550  56.5761400  58.6226450  81.7272670  56.4621760
  69.8368680  85.7508170  71.2960720  70.6294000  85.2557400  71.0886680
  70.1301830  86.4298310  71.9036330  65.9628340  76.6229110  42.1776770
  65.8822390  75.7083720  41.9068480  65.5492760  77.1196180  41.4716480
  64.0946380  78.4008130  44.0586040  63.3188480  77.9208570  44.3484610
  64.7459310  77.7213780  43.8842200  58.1112210  78.7127940  44.9361800
  57.2797090  78.4576650  45.3358310  58.7193190  78.7838710  45.6719720
  68.1153810  82.8068320  42.8385170  67.6535340  82.0355560  43.1672340
  68.9279360  82.8334390  43.3437620  58.0913470  82.7468030  45.1319820
  58.3941510  81.8565770  44.9530040  58.8357060  83.3038250  44.9042070
  56.5204160  73.6729830  38.7204190  55.6320860  74.0145800  38.6184070
  56.8045350  73.4730150  37.8285020  54.4837170  76.2735480  44.6043890
  55.0553280  75.5057680  44.6047530  54.4838710  76.5724240  43.6950500
  64.3417120  85.0926330  42.4589160  63.7228560  85.5483830  41.8883600
  65.1968900  85.2477790  42.0578860  63.5355370  81.0765320  44.0656200
  63.4663650  80.1355260  43.9045330  64.2975230  81.1666730  44.6378770
  55.7262040  71.6819840  46.3912820  55.5464880  70.7845590  46.6715580
  55.3242120  72.2291710  47.0659770  64.5660540  73.8835700  44.2925130
  64.9425360  73.0107580  44.1798800  64.4680050  74.2194400  43.4015570
  58.6965550  72.2561330  39.7542570  58.8032300  73.1565060  40.0611330
  57.7857910  72.2079300  39.4637220  68.3484660  71.3786140  41.2253470
  69.1694280  70.8882710  41.2678950  68.3818740  71.9683800  41.9785310
  56.3448710  74.1780340  44.9995160  57.0258820  74.4418710  45.6182560
  56.0296760  73.3381210  45.3333170  60.5373280  75.2247700  44.0867750
  61.0451500  75.7228670  44.7272770  61.0686520  74.4482900  43.9107110
  72.6384210  73.3952890  47.7897100  71.9336380  73.7834600  47.2712210
  72.9042130  74.0903180  48.3918030  58.8209380  69.8646260  48.3531170
  58.8227820  70.3818650  47.5477070  57.9913690  69.3876440  48.3301100
  65.2080470  79.9765570  39.8521070  64.5897740  80.4415020  39.2883790
  65.7203720  80.6693050  40.2690580  60.0712230  79.5041440  46.5304670
  59.7381610  80.1310360  47.1725740  60.2478910  80.0303320  45.7506340
  68.5846140  73.3186520  43.9981010  67.8801710  73.6071410  44.5784120
  68.9458300  74.1286630  43.6380570  58.5024710  71.5756220  46.3601620
  58.8441520  72.4198270  46.0655490  57.5640520  71.7239960  46.4766960
  59.2831330  81.4722240  48.3453850  59.9005330  82.1473320  48.0638300
  58.4224450  81.8810220  48.2541350  54.5763670  80.6622100  37.2260700
  54.1991650  81.1509200  36.4945600  54.8336740  81.3347380  37.8567230
  70.2008920  82.9361650  46.2608490  69.5172440  83.6060760  46.2525160
  70.7403210  83.1342300  45.4953350  71.6533060  72.7641310  44.3890220
  70.7057970  72.7980290  44.5205650  71.9783050  73.5780260  44.7739580
  62.1852600  69.0638490  42.6846210  62.4927580  68.5085380  41.9681710
  61.2553300  69.1982950  42.5019200  67.7367660  84.7805780  44.9753670
  67.7494820  84.3768070  44.1075930  67.1842880  85.5553070  44.8715100
  69.0313080  81.5022000  40.0643840  68.9209410  80.5596330  40.1893260
  69.0281330  81.8637640  40.9506600  67.1353100  79.6835620  46.3036280
  67.5521890  79.4695730  45.4689740  67.8592920  79.9408410  46.8744900
  64.5733360  77.1287320  39.4206330  63.6462640  77.0624700  39.6494800
  64.7258180  78.0667450  39.3061570  64.5602440  73.4004320  36.4173490
  63.6206110  73.5618280  36.5025950  64.8785700  74.1190000  35.8709480
  71.0815200  78.0822840  46.3952520  70.2533830  78.1515930  45.9202650
  71.6765680  78.6677150  45.9268350  68.6030650  78.6907620  39.9241580
  67.9843070  78.3527170  39.2767880  68.5855100  78.0467380  40.6320770
  68.0457210  74.8692160  47.3407390  67.6328390  75.6945870  47.5947380
  67.3133160  74.2837200  47.1483750  60.1790000  77.6552060  42.2026060
  59.7747000  76.9429310  41.7071960  60.2653120  77.3105300  43.0914100
  60.6471700  81.3419620  44.3665270  60.3499990  80.7365090  43.6873050
  61.5971520  81.3796930  44.2554630  58.8918620  74.4295270  45.9825100
  59.4433210  74.5390610  45.2078350  59.4062130  74.8032870  46.6980330
  68.7357310  84.9151490  48.0288370  68.2587870  85.7223680  47.8360980
  68.0519100  84.2629820  48.1814580  59.7390130  81.0801310  51.0173070
  58.8418660  81.3041280  51.2646470  59.7643000  81.2036250  50.0684470
  66.7795350  77.9294430  36.9314330  67.2188630  77.0916860  36.7852150
  67.4923770  78.5623830  37.0178470  58.5661350  77.9514630  49.5930440
  58.4269120  78.8237430  49.9617840  57.6842710  77.6087440  49.4478380
  64.8890730  82.8690500  40.8995570  65.3286640  83.6114830  40.4850960
  64.8277620  83.1117070  41.8234530  60.3641700  83.8936330  51.8015590
  60.3357130  84.2979280  50.9344020  60.2006670  82.9646690  51.6387190
  70.3612490  69.1837240  35.2455370  70.0485150  69.2764070  36.1454440
  71.1224960  69.7618270  35.1952800  56.8794630  76.5497040  39.7032710
  56.7592230  77.2759130  39.0913980  56.5695520  75.7799950  39.2260620
  72.3156520  84.6763430  53.0979760  72.7916240  85.1546320  53.7768840
  72.9363680  84.6080920  52.3725260  54.5180000  79.7212180  45.5101350
  54.5960420  79.8560950  44.5657070  55.1321680  79.0128070  45.7029470
  55.7627630  81.4212370  41.9207530  55.3555710  81.5626960  41.0661130
  56.6540640  81.1372530  41.7178740  71.7189770  81.8676280  50.2579770
  71.8452830  81.6288160  49.3396950  71.7611150  81.0360820  50.7301850
  65.5806510  85.5704280  48.8274580  66.0951180  85.4812290  49.6297010
  64.7375590  85.9163980  49.1202490  67.5560910  85.8559620  38.2558580
  67.3962050  85.5662560  39.1540410  67.3907620  85.0799750  37.7203810
  60.0349290  85.6358150  40.0330200  59.8591770  84.7193690  39.8198000
  59.1805030  85.9945440  40.2728000  67.2587040  83.3647180  36.8156580
  66.5652200  83.3624470  36.1558860  68.0009900  82.9406500  36.3850750
  66.8236970  84.9909890  40.8905070  67.2793920  84.2099270  41.2043690
  67.1629490  85.7016710  41.4346250  54.5739520  80.7626350  48.0495810
  54.7370560  80.2931710  47.2315180  55.0391970  80.2549910  48.7144650
  59.3458290  69.8932110  43.0856380  58.9026440  70.6741650  42.7540900
  59.9043280  70.2162000  43.7927320  63.6328100  72.7600630  48.6891700
  63.1707470  72.9683650  49.5011640  63.2306210  71.9459980  48.3862370
  62.4617110  69.5142810  37.9662210  61.8371290  69.5102680  38.6915520
  62.3747230  68.6473770  37.5698180  61.3834190  70.4379440  44.9445980
  61.6806520  71.3442270  44.8638000  61.9319750  69.9498220  44.3305550
  59.1372510  75.0165680  40.8137630  58.9113430  74.8002850  41.7184250
  58.3565040  75.4494140  40.4683600  66.3670270  75.0229050  39.4128280
  65.7679160  75.7464850  39.2291900  66.9149880  74.9605830  38.6304730
  61.5771720  75.9151260  51.4797900  61.4815320  74.9745990  51.3298300
  62.4203700  76.1366330  51.0845970  64.9735140  73.6592590  41.4431560
  65.3664710  73.9764790  40.6300250  65.3351990  72.7804470  41.5576080
  56.7082260  72.3264930  49.6331680  56.3145650  73.1740140  49.8404460
  56.0200660  71.6891300  49.8240320  54.0099310  70.2493390  43.6661760
  53.7212360  70.8196250  44.3786740  54.7545070  69.7697840  44.0292990
  54.1969540  74.1913510  34.8764480  54.1144210  75.1344270  35.0179470
  53.8452600  74.0488420  33.9976830  65.5590280  76.2498340  45.5382340
  64.8271400  76.7585150  45.8872440  65.1614620  75.4328320  45.2371120
  61.9967670  72.9252540  43.9434830  62.0003730  72.4842490  43.0939370
  62.8918790  73.2469870  44.0506650  57.8470050  72.8079030  42.9029040
  57.5070100  73.2854260  43.6596090  57.0847370  72.3544150  42.5430140
  62.0587820  73.9264620  36.9341590  62.1800640  73.8851100  37.8827410
  61.6736330  74.7888770  36.7788320  66.0216190  71.7032020  44.9505280
  66.0388930  72.1540670  45.7947130  65.7731770  70.8037660  45.1638720
  61.0709320  76.2365760  36.3324890  60.5026220  75.7884010  35.7060800
  61.7798320  76.5958540  35.7990040  56.1478500  80.1377780  50.2091620
  55.7633290  79.4971450  50.8074580  56.4590690  80.8413900  50.7786350
  62.2975640  76.9854320  45.6900240  62.6645770  76.5112890  46.4361580
  62.1080700  77.8595890  46.0308580  55.1616130  71.7298010  41.8193710
  54.8763050  71.3653680  42.6572330  55.0994990  70.9978470  41.2056850
  60.0875010  76.0262960  48.0084450  59.7832080  76.9054940  48.2334810
  61.0421470  76.0862750  48.0441890  58.6156800  80.2323950  38.6051300
  57.8419060  79.6921570  38.4450020  59.3451430  79.7130560  38.2669060
  69.3744780  79.2289310  44.3977690  70.0943900  79.7244600  44.0073800
  69.1726600  78.5507200  43.7531560  64.8354720  70.6227270  38.5407080
  64.0219330  70.1240440  38.4652390  64.6416670  71.4625520  38.1243430
  64.7563580  79.2998370  50.2846690  64.6900890  78.3794040  50.0304280
  64.1268720  79.3973810  50.9991330  67.5503110  74.9946920  36.8369240
  68.4382730  75.3064150  36.6620580  67.5208200  74.1219170  36.4449820
  58.6594200  79.9004330  42.2430110  59.1772870  79.0972590  42.1887000
  58.2078220  79.8383470  43.0846940  63.5463700  81.1670610  37.5157410
  63.8879400  81.9112840  37.0200730  62.7176410  81.4801730  37.8782240
  56.1438740  76.8665700  49.1555810  55.7853680  77.5319550  49.7429150
  55.8493300  76.0349250  49.5268430  59.3451860  77.3249940  52.0395360
  59.0452000  77.4707120  51.1423180  60.1163100  76.7655230  51.9468750
  64.6880310  82.1218940  50.0350490  64.7024850  81.1899900  49.8169400
  63.9805410  82.2078700  50.6740260  69.8217380  76.3058760  36.3049100
  69.7381100  76.7372980  35.4545540  70.5411570  76.7657110  36.7375920
  70.8991520  78.7626280  49.3819070  70.1739710  79.3555060  49.1848460
  71.4266980  78.7549820  48.5832440  70.8504630  83.1601020  39.0331230
  70.2080790  82.5056640  39.3074950  70.4635290  83.5656110  38.2571900
  66.4291110  80.4886450  42.8802920  66.7814930  79.8914580  42.2204290
  65.5453440  80.1630680  43.0511170  62.5154390  81.2484140  40.2873330
  63.2025520  81.7953350  40.6680920  61.7286810  81.7924870  40.3222940
  54.6546790  76.8656960  35.7790410  55.5241640  77.1481760  36.0626330
  54.1637110  77.6792830  35.6639220  61.8181600  78.2530170  39.8998690
  62.2744380  79.0635420  40.1258880  61.4669810  77.9353310  40.7317180
  64.1214210  83.7636510  47.1290990  64.7656430  83.9695890  47.8064410
  64.4843650  83.0024910  46.6761840  57.7193380  68.5967820  40.3721210
  57.5908010  68.5885720  41.3206130  56.8955400  68.9350910  40.0212220
  65.3946290  81.7668860  45.8468440  66.0368520  81.0662020  45.9600610
  65.9195640  82.5467300  45.6665330  69.2402010  82.0517480  35.5707580
  69.0139590  81.3347920  36.1632220  68.8498210  81.8029920  34.7329330
  67.1683910  82.5663760  49.0504500  67.5040150  83.1530450  49.7282420
  66.2484250  82.4356470  49.2802290  55.0218040  86.0784340  36.3452040
  55.3815680  86.6773680  35.6909310  54.8810380  86.6244230  37.1187070
  68.8218260  79.9689420  37.2321740  68.5339960  80.4302110  38.0199620
  69.6170430  79.5087190  37.5005960  55.0059900  84.3439200  50.8194440
  55.1151020  83.4033940  50.6789830  54.3540460  84.6093950  50.1708170
  62.9972490  82.6155090  52.2192560  62.6769360  81.8964330  52.7638250
  62.3230850  83.2910160  52.2928620  61.0386660  83.4615540  37.1625710
  61.0296760  84.1945230  36.5470220  60.1185020  83.2147120  37.2552670
  56.6393300  78.6830430  37.9072470  56.0321250  79.4229330  37.9167770
  57.1142650  78.7729790  37.0810670  66.2126090  72.8481250  47.5829360
  66.5806910  72.0276460  47.9108930  65.3524290  72.9083140  47.9985010
  69.5788120  71.8038190  38.3916920  68.9501280  71.9083860  37.6775150
  69.0840040  72.0234970  39.1810800  64.0246260  83.5243780  35.8250900
  64.1258240  83.3207770  34.8952880  63.1248000  83.2702060  36.0298680
  61.5472150  74.0824140  39.8074800  60.8388300  74.5510480  40.2488410
  61.8316630  73.4246150  40.4419990  63.1728080  75.5020840  47.8067330
  63.6713330  75.9766660  48.4719180  63.3151030  74.5784360  48.0137360
  65.5787580  70.8074800  41.2470590  65.4555360  70.8260930  40.2980100
  66.5272140  70.8553740  41.3668990  62.6664370  86.0430100  40.5198570
  62.9205870  86.0051490  39.5977940  61.7176850  85.9163430  40.5126820
  59.7507170  72.3909220  37.1825510  60.5997700  72.8279370  37.1165700
  59.3838440  72.7029480  38.0097570  68.6716950  76.9621980  42.0957080
  67.7307090  76.9772210  42.2704770  68.9861020  76.1757940  42.5417380
  58.6498590  78.6441580  35.6561040  59.4161860  78.5322940  36.2186470
  58.7273280  77.9479550  35.0037810  57.3445350  76.0766650  36.3393930
  57.4248940  75.1294160  36.4511330  58.2365100  76.4073530  36.4454590
  70.6742530  84.1330830  43.7711340  70.7989950  84.9562000  44.2435150
  71.5408090  83.9221560  43.4235490  58.1460060  86.2262040  43.4428470
  58.8822540  85.6777500  43.7137040  58.5300980  87.0918050  43.3034460
  55.0305540  82.2935610  39.3169980  54.1045320  82.5356750  39.3075390
  55.4961970  83.1209870  39.1954730  57.1518340  85.4108110  52.6314050
  57.9531070  85.7320160  53.0449450  56.6370160  85.0503690  53.3533960
  61.2562370  85.3992350  35.2654040  62.0490980  85.6881180  34.8135830
  60.7366720  84.9684520  34.5866520  65.9882970  81.5187980  52.5789460
  65.3821130  81.5419580  51.8385210  65.6837080  80.7871020  53.1156710
  67.4183340  85.2468270  51.1898870  68.3705090  85.1626290  51.1399110
  67.2711560  85.9109980  51.8632660  70.3092540  84.6262480  36.6890780
  70.0234050  84.2127620  35.8744960  70.1112090  85.5550190  36.5691300
  54.8716150  77.8981570  51.5750100  55.3755170  77.3188850  52.1466330
  54.1323570  78.1821800  52.1126470  61.7739770  80.6195760  35.1296390
  61.6690410  80.0048110  35.8557770  61.6063990  80.0961650  34.3459400
  61.9254090  79.3052560  51.1085620  61.1599760  79.8737560  51.0240290
  62.1070050  79.0128770  50.2153850  65.0142500  79.6815790  35.7338380
  64.4652600  80.1285090  36.3781120  65.6361760  79.1765040  36.2576050
  69.0677440  81.0357890  51.6660640  69.8086910  81.3733650  51.1628100
  68.3050120  81.2049950  51.1130410  60.6817620  78.6406710  37.6303680
  61.1034040  78.4746580  38.4735070  60.8068460  77.8306940  37.1358820
  58.8445040  74.6203260  50.4374660  58.3141500  74.1294210  49.8098000
  59.5133110  75.0487460  49.9032590  63.1945260  77.6644320  34.8780780
  63.7150920  76.9493340  34.5121930  63.8413660  78.3030190  35.1781290
  67.7423100  79.0872720  50.2015850  68.1564120  79.2417800  51.0506270
  66.8074100  79.2127940  50.3641630  59.3317340  71.5865630  50.5171950
  59.2374210  70.9686380  49.7922820  58.7514730  72.3131920  50.2901860
  62.0978780  70.1438870  47.5499340  61.6496080  70.1663130  46.7044890
  61.4643980  69.7457890  48.1469640  62.5038330  79.0393200  48.1711780
  62.9226440  79.8825930  47.9988020  61.5846960  79.1765240  47.9418560
  64.8402230  76.7709380  49.5549620  64.9598440  76.1750520  50.2944460
  65.6996230  76.8079070  49.1350920  67.1790130  77.3246570  48.1312130
  66.6525350  77.8489190  47.5277270  67.5221470  77.9573960  48.7621860
  59.5776520  74.7139940  34.5761840  59.3765580  73.8507300  34.9375180
  59.4068570  74.6273300  33.6383440  60.3545750  85.3446210  49.2869510
  59.8166840  86.0692270  48.9678210  60.6079710  84.8676550  48.4966850
  61.6071000  73.3130730  50.8125440  62.1970690  73.0046580  51.5003260
  60.7891240  72.8410480  50.9685340  67.0564830  69.5248170  37.1048720
  67.3367120  68.6816070  37.4608140  66.2830560  69.7571280  37.6187470
  58.3759320  71.8140560  34.5639720  58.6785220  71.8207990  33.6558870
  59.1153910  71.4638420  35.0607380  63.2107960  86.5797420  49.5456160
  63.1366660  87.4832560  49.8528530  62.3086800  86.2609320  49.5178230
  61.5944250  70.7575180  35.5495920  61.2466250  70.0799170  34.9698370
  61.7957020  70.2964690  36.3639310  63.7593290  85.7455930  37.1682520
  64.6544080  86.0840900  37.1901280  63.7910920  85.0235340  36.5406800
  57.3989450  81.1182980  35.3969520  57.8364320  81.6612650  36.0527100
  57.8837180  80.2929930  35.4065860  54.6135250  83.9072010  42.8489780
  54.9438260  83.0393070  42.6168420  55.0426250  84.1130530  43.6794740
  59.2097170  82.2381020  40.5091750  58.9092710  82.1145990  41.4095660
  59.1034660  81.3789610  40.1007480  55.1025460  84.7742600  45.5871410
  54.6656450  84.9543400  46.4195560  55.6703140  85.5317220  45.4453130
  70.7387640  84.2759600  49.8748720  70.1389630  84.3352160  49.1312640
  70.8681540  83.3364580  50.0045570  71.9789090  82.0177420  35.2118430
  71.1482050  82.0854070  35.6825660  72.1560920  82.9081540  34.9085290
  71.4345550  78.7624900  37.7152630  72.1964460  79.3321550  37.8212320
  71.4499920  78.1952100  38.4860940  54.9349890  77.2862830  41.9460290
  54.2798730  77.0174470  41.3019990  55.7727840  77.1767310  41.4962270
  72.4405520  79.6175000  42.5594560  72.8114350  78.8342320  42.1530530
  73.0807450  80.3064100  42.3811860  69.4239280  81.0011580  47.9724880
  68.6099120  81.4308740  48.2350670  69.8313480  81.6129990  47.3593930
  71.4864720  79.0559270  34.8725150  71.7613560  79.9638150  34.7444370
  71.2975460  78.9921800  35.8087140  67.8840330  72.0804120  36.1678780
  68.3025210  71.8935100  35.3275440  67.5776390  71.2283170  36.4781710
  71.3830060  76.9928260  39.8654580  71.0073660  76.2256190  39.4335870
  70.6533180  77.3750960  40.3529510  55.9725820  77.6715400  46.4863630
  56.3398860  77.5842800  47.3659650  55.4036640  76.9081950  46.3870490
  70.7729680  76.1399780  49.4994100  70.5415770  75.9112530  48.5992050
  71.0334230  77.0599330  49.4538990  55.5241820  74.5824490  50.3922050
  54.6297870  74.5491250  50.7315760  56.0639370  74.7811280  51.1573300
  54.1487970  74.4961760  37.8885620  53.2452050  74.7591960  37.7137280
  54.6328590  74.7672930  37.1085580  70.6581020  75.2185750  43.1661820
  71.1818500  74.7248400  42.5351990  71.2440440  75.3536110  43.9109390
  70.8370740  75.3025620  46.6881370  69.8873450  75.2689160  46.8026360
  71.0183750  76.2125730  46.4531140  56.6915180  73.5527300  35.7980000
  57.4006880  73.1310520  35.3127280  55.9755120  73.6202530  35.1663350
  56.3389340  69.6066630  34.8382650  57.0617470  70.1475570  35.1563870
  56.6113860  69.3330050  33.9624190  70.1480990  74.4759100  39.1054230
  70.6440110  74.2429970  39.8903110  69.9497060  73.6370940  38.6891870
  56.0281530  68.8572820  44.7405270  56.6757720  68.3070200  44.3000430
  56.4483370  69.1115970  45.5621080  71.5768150  73.1120050  41.6391910
  71.4667430  72.9576090  42.5774180  72.3375740  72.5840990  41.3967320
  69.9233870  69.0514180  48.0974910  70.5606090  69.6648320  48.4634100
  70.0708760  69.0874840  47.1524140  72.4658420  70.9427970  34.8798050
  73.3907730  70.8109150  34.6716340  72.4434210  71.0220790  35.8334500
  72.5396910  71.7138630  37.5054760  71.7448410  71.6483750  38.0347670
  72.7440190  72.6489270  37.4940110  69.4815330  85.7530180  41.4993150
  70.0774400  85.4314750  40.8227570  69.7393480  85.2802000  42.2906420
  57.3877900  82.1848090  51.6483780  57.3447530  81.8141000  52.5298240
  57.5188910  83.1225660  51.7885600  61.0883930  83.7407680  47.2493500
  60.8475290  84.0082240  46.3624020  62.0286570  83.9113410  47.3044360
  63.2938350  70.2040370  51.0050010  63.2327240  70.7962200  51.7545420
  64.2338730  70.0966330  50.8600270  65.9312910  69.8610430  50.6442300
  66.5453320  70.1789720  49.9823380  66.4762470  69.3759020  51.2638160
  72.3488090  85.7602060  48.0504140  71.8546370  86.1570930  47.3331270
  71.7401380  85.1351270  48.4441420  57.2265930  85.1310340  48.7681560
  56.6326250  84.9995040  49.5071600  57.2189770  84.2948480  48.3023660
  66.6720950  68.4242570  46.9711590  65.7980790  68.7577680  46.7684520
  66.5631700  67.9515750  47.7963460  67.5792930  70.6313440  48.3553310
  67.2506290  69.8165200  47.9755040  68.5275230  70.5883250  48.2319000
  70.0327540  86.4025480  45.3290880  69.5730510  87.1541290  44.9548900
  69.4040000  85.6831950  45.2705680  56.8578160  82.4968720  47.7189600
  56.1312220  81.8774010  47.6515550  56.9187310  82.8909330  46.8487680
  60.4623260  84.7113720  44.5039010  60.9788280  84.1001080  43.9787270
  61.1120640  85.2142500  44.9950020  63.2018760  85.6022210  45.3307990
  63.4896570  85.3476510  44.4541000  63.7141980  85.0499570  45.9213560
  64.4195770  69.3412410  45.9104500  63.6367560  69.8157910  46.1901260
  64.1258700  68.4367240  45.8017680  68.9716840  70.0435510  43.9553590
  69.4124930  69.9880610  43.1075190  68.7024430  70.9593520  44.0263770
  70.8355410  69.6750750  41.9662410  70.7743810  68.7311970  41.8193430
  71.6147440  69.7830840  42.5115870  55.1408160  85.8143110  40.9286360
  54.9730200  85.1813790  41.6268250  54.2742670  86.0202510  40.5780550
  55.7636180  69.6459890  38.4318220  56.5215540  69.7588770  37.8582250
  55.3013350  70.4829090  38.3861650  62.3049990  71.7599160  41.4220530
  61.4924500  71.3856050  41.0816410  62.8091630  71.0044240  41.7241720
  66.8074970  68.4241610  42.6603600  67.4104340  68.9961820  43.1352120
  66.0667960  68.9881050  42.4377500  69.9509570  68.8263170  37.9343880
  70.1460200  69.7246620  38.2011310  69.1639440  68.5950250  38.4276830
  56.7470860  84.5076340  38.3736500  56.2218480  84.8884370  37.6698460
  56.6715440  85.1327110  39.0946210  58.1361330  70.1723940  36.9720190
  58.6654090  69.3853740  36.8428140  58.7689650  70.8515130  37.2055720
  60.3299170  69.9099080  40.0265580  59.7001910  69.2086390  40.1935710
  59.7904310  70.6703210  39.8098740  63.2691120  86.5238310  52.6976190
  64.1958430  86.2882580  52.7412150  63.2541550  87.3510310  52.2162220
  71.5036180  86.0663880  39.6950440  71.6788370  85.3801620  39.0511360
  70.8057750  86.5910930  39.3027110  59.3463830  86.4558720  37.2485750
  60.0782650  86.1718000  36.7009640  59.6057500  86.2172000  38.1385130
  58.5078620  82.5723450  37.2532080  57.8787500  83.0408550  37.8017910
  58.6226450  81.7272670  37.6878270  69.8368680  85.7508170  52.5217230
  70.6294000  85.2557400  52.3143190  70.1301830  86.4298310  53.1292840
  65.9628340  76.6229110  23.4033280  65.8822390  75.7083720  23.1324990
  65.5492760  77.1196180  22.6972990  64.0946380  78.4008130  25.2842550
  63.3188480  77.9208570  25.5741120  64.7459310  77.7213780  25.1098710
  58.1112210  78.7127940  26.1618310  57.2797090  78.4576650  26.5614820
  58.7193190  78.7838710  26.8976230  68.1153810  82.8068320  24.0641680
  67.6535340  82.0355560  24.3928850  68.9279360  82.8334390  24.5694130
  58.0913470  82.7468030  26.3576330  58.3941510  81.8565770  26.1786550
  58.8357060  83.3038250  26.1298580  56.5204160  73.6729830  19.9460700
  55.6320860  74.0145800  19.8440580  56.8045350  73.4730150  19.0541530
  54.4837170  76.2735480  25.8300400  55.0553280  75.5057680  25.8304040
  54.4838710  76.5724240  24.9207010  64.3417120  85.0926330  23.6845670
  63.7228560  85.5483830  23.1140110  65.1968900  85.2477790  23.2835370
  63.5355370  81.0765320  25.2912710  63.4663650  80.1355260  25.1301840
  64.2975230  81.1666730  25.8635280  55.7262040  71.6819840  27.6169330
  55.5464880  70.7845590  27.8972090  55.3242120  72.2291710  28.2916280
  64.5660540  73.8835700  25.5181640  64.9425360  73.0107580  25.4055310
  64.4680050  74.2194400  24.6272080  58.6965550  72.2561330  20.9799080
  58.8032300  73.1565060  21.2867840  57.7857910  72.2079300  20.6893730
  68.3484660  71.3786140  22.4509980  69.1694280  70.8882710  22.4935460
  68.3818740  71.9683800  23.2041820  56.3448710  74.1780340  26.2251670
  57.0258820  74.4418710  26.8439070  56.0296760  73.3381210  26.5589680
  60.5373280  75.2247700  25.3124260  61.0451500  75.7228670  25.9529280
  61.0686520  74.4482900  25.1363620  72.6384210  73.3952890  29.0153610
  71.9336380  73.7834600  28.4968720  72.9042130  74.0903180  29.6174540
  58.8209380  69.8646260  29.5787680  58.8227820  70.3818650  28.7733580
  57.9913690  69.3876440  29.5557610  65.2080470  79.9765570  21.0777580
  64.5897740  80.4415020  20.5140300  65.7203720  80.6693050  21.4947090
  60.0712230  79.5041440  27.7561180  59.7381610  80.1310360  28.3982250
  60.2478910  80.0303320  26.9762850  68.5846140  73.3186520  25.2237520
  67.8801710  73.6071410  25.8040630  68.9458300  74.1286630  24.8637080
  58.5024710  71.5756220  27.5858130  58.8441520  72.4198270  27.2912000
  57.5640520  71.7239960  27.7023470  59.2831330  81.4722240  29.5710360
  59.9005330  82.1473320  29.2894810  58.4224450  81.8810220  29.4797860
  54.5763670  80.6622100  18.4517210  54.1991650  81.1509200  17.7202110
  54.8336740  81.3347380  19.0823740  70.2008920  82.9361650  27.4865000
  69.5172440  83.6060760  27.4781670  70.7403210  83.1342300  26.7209860
  71.6533060  72.7641310  25.6146730  70.7057970  72.7980290  25.7462160
  71.9783050  73.5780260  25.9996090  62.1852600  69.0638490  23.9102720
  62.4927580  68.5085380  23.1938220  61.2553300  69.1982950  23.7275710
  67.7367660  84.7805780  26.2010180  67.7494820  84.3768070  25.3332440
  67.1842880  85.5553070  26.0971610  69.0313080  81.5022000  21.2900350
  68.9209410  80.5596330  21.4149770  69.0281330  81.8637640  22.1763110
  67.1353100  79.6835620  27.5292790  67.5521890  79.4695730  26.6946250
  67.8592920  79.9408410  28.1001410  64.5733360  77.1287320  20.6462840
  63.6462640  77.0624700  20.8751310  64.7258180  78.0667450  20.5318080
  64.5602440  73.4004320  17.6430000  63.6206110  73.5618280  17.7282460
  64.8785700  74.1190000  17.0965990  71.0815200  78.0822840  27.6209030
  70.2533830  78.1515930  27.1459160  71.6765680  78.6677150  27.1524860
  68.6030650  78.6907620  21.1498090  67.9843070  78.3527170  20.5024390
  68.5855100  78.0467380  21.8577280  68.0457210  74.8692160  28.5663900
  67.6328390  75.6945870  28.8203890  67.3133160  74.2837200  28.3740260
  60.1790000  77.6552060  23.4282570  59.7747000  76.9429310  22.9328470
  60.2653120  77.3105300  24.3170610  60.6471700  81.3419620  25.5921780
  60.3499990  80.7365090  24.9129560  61.5971520  81.3796930  25.4811140
  58.8918620  74.4295270  27.2081610  59.4433210  74.5390610  26.4334860
  59.4062130  74.8032870  27.9236840  68.7357310  84.9151490  29.2544880
  68.2587870  85.7223680  29.0617490  68.0519100  84.2629820  29.4071090
  59.7390130  81.0801310  32.2429580  58.8418660  81.3041280  32.4902980
  59.7643000  81.2036250  31.2940980  66.7795350  77.9294430  18.1570840
  67.2188630  77.0916860  18.0108660  67.4923770  78.5623830  18.2434980
  58.5661350  77.9514630  30.8186950  58.4269120  78.8237430  31.1874350
  57.6842710  77.6087440  30.6734890  64.8890730  82.8690500  22.1252080
  65.3286640  83.6114830  21.7107470  64.8277620  83.1117070  23.0491040
  60.3641700  83.8936330  33.0272100  60.3357130  84.2979280  32.1600530
  60.2006670  82.9646690  32.8643700  70.3612490  69.1837240  16.4711880
  70.0485150  69.2764070  17.3710950  71.1224960  69.7618270  16.4209310
  56.8794630  76.5497040  20.9289220  56.7592230  77.2759130  20.3170490
  56.5695520  75.7799950  20.4517130  72.3156520  84.6763430  34.3236270
  72.7916240  85.1546320  35.0025350  72.9363680  84.6080920  33.5981770
  54.5180000  79.7212180  26.7357860  54.5960420  79.8560950  25.7913580
  55.1321680  79.0128070  26.9285980  55.7627630  81.4212370  23.1464040
  55.3555710  81.5626960  22.2917640  56.6540640  81.1372530  22.9435250
  71.7189770  81.8676280  31.4836280  71.8452830  81.6288160  30.5653460
  71.7611150  81.0360820  31.9558360  65.5806510  85.5704280  30.0531090
  66.0951180  85.4812290  30.8553520  64.7375590  85.9163980  30.3459000
  67.5560910  85.8559620  19.4815090  67.3962050  85.5662560  20.3796920
  67.3907620  85.0799750  18.9460320  60.0349290  85.6358150  21.2586710
  59.8591770  84.7193690  21.0454510  59.1805030  85.9945440  21.4984510
  67.2587040  83.3647180  18.0413090  66.5652200  83.3624470  17.3815370
  68.0009900  82.9406500  17.6107260  66.8236970  84.9909890  22.1161580
  67.2793920  84.2099270  22.4300200  67.1629490  85.7016710  22.6602760
  71.5713780  73.9208740  32.4486020  70.9558050  74.4288410  31.9201480
  71.2510200  73.0207070  32.3911960  54.5739520  80.7626350  29.2752320
  54.7370560  80.2931710  28.4571690  55.0391970  80.2549910  29.9401160
  59.3458290  69.8932110  24.3112890  58.9026440  70.6741650  23.9797410
  59.9043280  70.2162000  25.0183830  63.6328100  72.7600630  29.9148210
  63.1707470  72.9683650  30.7268150  63.2306210  71.9459980  29.6118880
  68.6332610  73.9809580  31.0444870  67.7826200  73.6815330  31.3653940
  68.4734400  74.2251590  30.1328690  65.7282320  75.4811330  33.1443660
  66.0535730  74.6475080  32.8045890  66.5162650  76.0039850  33.2921990
  62.4617110  69.5142810  19.1918720  61.8371290  69.5102680  19.9172030
  62.3747230  68.6473770  18.7954690  61.3834190  70.4379440  26.1702490
  61.6806520  71.3442270  26.0894510  61.9319750  69.9498220  25.5562060
  59.1372510  75.0165680  22.0394140  58.9113430  74.8002850  22.9440760
  58.3565040  75.4494140  21.6940110  66.3670270  75.0229050  20.6384790
  65.7679160  75.7464850  20.4548410  66.9149880  74.9605830  19.8561240
  61.5771720  75.9151260  32.7054410  61.4815320  74.9745990  32.5554810
  62.4203700  76.1366330  32.3102480  64.9735140  73.6592590  22.6688070
  65.3664710  73.9764790  21.8556760  65.3351990  72.7804470  22.7832590
  56.7082260  72.3264930  30.8588190  56.3145650  73.1740140  31.0660970
  56.0200660  71.6891300  31.0496830  63.2827310  72.4099900  33.9284930
  62.5925630  72.2172100  34.5631020  64.0259610  72.6934540  34.4609230
  54.0099310  70.2493390  24.8918270  53.7212360  70.8196250  25.6043250
  54.7545070  69.7697840  25.2549500  54.1969540  74.1913510  16.1020990
  54.1144210  75.1344270  16.2435980  53.8452600  74.0488420  15.2233340
  65.5590280  76.2498340  26.7638850  64.8271400  76.7585150  27.1128950
  65.1614620  75.4328320  26.4627630  61.9967670  72.9252540  25.1691340
  62.0003730  72.4842490  24.3195880  62.8918790  73.2469870  25.2763160
  57.8470050  72.8079030  24.1285550  57.5070100  73.2854260  24.8852600
  57.0847370  72.3544150  23.7686650  62.0587820  73.9264620  18.1598100
  62.1800640  73.8851100  19.1083920  61.6736330  74.7888770  18.0044830
  66.0216190  71.7032020  26.1761790  66.0388930  72.1540670  27.0203640
  65.7731770  70.8037660  26.3895230  61.0709320  76.2365760  17.5581400
  60.5026220  75.7884010  16.9317310  61.7798320  76.5958540  17.0246550
  69.4486940  69.1164200  32.0148170  69.7732710  68.3853860  32.5406150
  69.4843450  68.7977840  31.1129160  56.1478500  80.1377780  31.4348130
  55.7633290  79.4971450  32.0331090  56.4590690  80.8413900  32.0042860
  62.2975640  76.9854320  26.9156750  62.6645770  76.5112890  27.6618090
  62.1080700  77.8595890  27.2565090  55.1616130  71.7298010  23.0450220
  54.8763050  71.3653680  23.8828840  55.0994990  70.9978470  22.4313360
  60.0875010  76.0262960  29.2340960  59.7832080  76.9054940  29.4591320
  61.0421470  76.0862750  29.2698400  58.6156800  80.2323950  19.8307810
  57.8419060  79.6921570  19.6706530  59.3451430  79.7130560  19.4925570
  69.3744780  79.2289310  25.6234200  70.0943900  79.7244600  25.2330310
  69.1726600  78.5507200  24.9788070  64.8354720  70.6227270  19.7663590
  64.0219330  70.1240440  19.6908900  64.6416670  71.4625520  19.3499940
  64.7563580  79.2998370  31.5103200  64.6900890  78.3794040  31.2560790
  64.1268720  79.3973810  32.2247840  67.5503110  74.9946920  18.0625750
  68.4382730  75.3064150  17.8877090  67.5208200  74.1219170  17.6706330
  58.6594200  79.9004330  23.4686620  59.1772870  79.0972590  23.4143510
  58.2078220  79.8383470  24.3103450  63.5463700  81.1670610  18.7413920
  63.8879400  81.9112840  18.2457240  62.7176410  81.4801730  19.1038750
  56.1438740  76.8665700  30.3812320  55.7853680  77.5319550  30.9685660
  55.8493300  76.0349250  30.7524940  59.3451860  77.3249940  33.2651870
  59.0452000  77.4707120  32.3679690  60.1163100  76.7655230  33.1725260
  64.6880310  82.1218940  31.2607000  64.7024850  81.1899900  31.0425910
  63.9805410  82.2078700  31.8996770  69.8217380  76.3058760  17.5305610
  69.7381100  76.7372980  16.6802050  70.5411570  76.7657110  17.9632430
  70.8991520  78.7626280  30.6075580  70.1739710  79.3555060  30.4104970
  71.4266980  78.7549820  29.8088950  70.8504630  83.1601020  20.2587740
  70.2080790  82.5056640  20.5331460  70.4635290  83.5656110  19.4828410
  66.4291110  80.4886450  24.1059430  66.7814930  79.8914580  23.4460800
  65.5453440  80.1630680  24.2767680  62.5154390  81.2484140  21.5129840
  63.2025520  81.7953350  21.8937430  61.7286810  81.7924870  21.5479450
  54.6546790  76.8656960  17.0046920  55.5241640  77.1481760  17.2882840
  54.1637110  77.6792830  16.8895730  61.8181600  78.2530170  21.1255200
  62.2744380  79.0635420  21.3515390  61.4669810  77.9353310  21.9573690
  64.1214210  83.7636510  28.3547500  64.7656430  83.9695890  29.0320920
  64.4843650  83.0024910  27.9018350  57.7193380  68.5967820  21.5977720
  57.5908010  68.5885720  22.5462640  56.8955400  68.9350910  21.2468730
  65.3946290  81.7668860  27.0724950  66.0368520  81.0662020  27.1857120
  65.9195640  82.5467300  26.8921840  69.2402010  82.0517480  16.7964090
  69.0139590  81.3347920  17.3888730  68.8498210  81.8029920  15.9585840
  67.1683910  82.5663760  30.2761010  67.5040150  83.1530450  30.9538930
  66.2484250  82.4356470  30.5058800  55.0218040  86.0784340  17.5708550
  55.3815680  86.6773680  16.9165820  54.8810380  86.6244230  18.3443580
  54.7187310  70.3558940  31.0584420  54.0045830  70.5555860  31.6637030
  55.1382350  69.5798510  31.4299220  68.8218260  79.9689420  18.4578250
  68.5339960  80.4302110  19.2456130  69.6170430  79.5087190  18.7262470
  55.0059900  84.3439200  32.0450950  55.1151020  83.4033940  31.9046340
  54.3540460  84.6093950  31.3964680  62.9972490  82.6155090  33.4449070
  62.6769360  81.8964330  33.9894760  62.3230850  83.2910160  33.5185130
  61.0386660  83.4615540  18.3882220  61.0296760  84.1945230  17.7726730
  60.1185020  83.2147120  18.4809180  56.6393300  78.6830430  19.1328980
  56.0321250  79.4229330  19.1424280  57.1142650  78.7729790  18.3067180
  66.2126090  72.8481250  28.8085870  66.5806910  72.0276460  29.1365440
  65.3524290  72.9083140  29.2241520  69.5788120  71.8038190  19.6173430
  68.9501280  71.9083860  18.9031660  69.0840040  72.0234970  20.4067310
  64.0246260  83.5243780  17.0507410  64.1258240  83.3207770  16.1209390
  63.1248000  83.2702060  17.2555190  61.5472150  74.0824140  21.0331310
  60.8388300  74.5510480  21.4744920  61.8316630  73.4246150  21.6676500
  63.1728080  75.5020840  29.0323840  63.6713330  75.9766660  29.6975690
  63.3151030  74.5784360  29.2393870  65.5787580  70.8074800  22.4727100
  65.4555360  70.8260930  21.5236610  66.5272140  70.8553740  22.5925500
  62.6664370  86.0430100  21.7455080  62.9205870  86.0051490  20.8234450
  61.7176850  85.9163430  21.7383330  59.7507170  72.3909220  18.4082020
  60.5997700  72.8279370  18.3422210  59.3838440  72.7029480  19.2354080
  70.3794940  71.7188800  29.8752230  69.8768540  72.4594200  30.2146040
  71.1951600  72.1072800  29.5589020  68.6716950  76.9621980  23.3213590
  67.7307090  76.9772210  23.4961280  68.9861020  76.1757940  23.7673890
  58.6498590  78.6441580  16.8817550  59.4161860  78.5322940  17.4442980
  58.7273280  77.9479550  16.2294320  57.3445350  76.0766650  17.5650440
  57.4248940  75.1294160  17.6767840  58.2365100  76.4073530  17.6711100
  70.6742530  84.1330830  24.9967850  70.7989950  84.9562000  25.4691660
  71.5408090  83.9221560  24.6492000  58.1460060  86.2262040  24.6684980
  58.8822540  85.6777500  24.9393550  58.5300980  87.0918050  24.5290970
  55.0305540  82.2935610  20.5426490  54.1045320  82.5356750  20.5331900
  55.4961970  83.1209870  20.4211240  57.1518340  85.4108110  33.8570560
  57.9531070  85.7320160  34.2705960  56.6370160  85.0503690  34.5790470
  61.2562370  85.3992350  16.4910550  62.0490980  85.6881180  16.0392340
  60.7366720  84.9684520  15.8123030  65.9882970  81.5187980  33.8045970
  65.3821130  81.5419580  33.0641720  65.6837080  80.7871020  34.3413220
  67.4183340  85.2468270  32.4155380  68.3705090  85.1626290  32.3655620
  67.2711560  85.9109980  33.0889170  70.3092540  84.6262480  17.9147290
  70.0234050  84.2127620  17.1001470  70.1112090  85.5550190  17.7947810
  54.8716150  77.8981570  32.8006610  55.3755170  77.3188850  33.3722840
  54.1323570  78.1821800  33.3382980  61.7739770  80.6195760  16.3552900
  61.6690410  80.0048110  17.0814280  61.6063990  80.0961650  15.5715910
  61.9254090  79.3052560  32.3342130  61.1599760  79.8737560  32.2496800
  62.1070050  79.0128770  31.4410360  65.0142500  79.6815790  16.9594890
  64.4652600  80.1285090  17.6037630  65.6361760  79.1765040  17.4832560
  69.0677440  81.0357890  32.8917150  69.8086910  81.3733650  32.3884610
  68.3050120  81.2049950  32.3386920  56.9039230  76.0411160  33.6956680
  56.9444570  75.7425030  34.6041910  57.7584730  76.4418770  33.5364200
  60.6817620  78.6406710  18.8560190  61.1034040  78.4746580  19.6991580
  60.8068460  77.8306940  18.3615330  58.8445040  74.6203260  31.6631170
  58.3141500  74.1294210  31.0354510  59.5133110  75.0487460  31.1289100
  63.1945260  77.6644320  16.1037290  63.7150920  76.9493340  15.7378440
  63.8413660  78.3030190  16.4037800  67.7423100  79.0872720  31.4272360
  68.1564120  79.2417800  32.2762780  66.8074100  79.2127940  31.5898140
  68.2145270  76.4268880  33.4311510  68.7966040  75.6721200  33.3431990
  68.3907040  76.9576320  32.6542990  59.3317340  71.5865630  31.7428460
  59.2374210  70.9686380  31.0179330  58.7514730  72.3131920  31.5158370
  62.0978780  70.1438870  28.7755850  61.6496080  70.1663130  27.9301400
  61.4643980  69.7457890  29.3726150  62.5038330  79.0393200  29.3968290
  62.9226440  79.8825930  29.2244530  61.5846960  79.1765240  29.1675070
  64.8402230  76.7709380  30.7806130  64.9598440  76.1750520  31.5200970
  65.6996230  76.8079070  30.3607430  67.1790130  77.3246570  29.3568640
  66.6525350  77.8489190  28.7533780  67.5221470  77.9573960  29.9878370
  59.5776520  74.7139940  15.8018350  59.3765580  73.8507300  16.1631690
  59.4068570  74.6273300  14.8639950  60.3545750  85.3446210  30.5126020
  59.8166840  86.0692270  30.1934720  60.6079710  84.8676550  29.7223360
  61.6071000  73.3130730  32.0381950  62.1970690  73.0046580  32.7259770
  60.7891240  72.8410480  32.1941850  66.4264430  72.9296540  32.2714970
  65.7379950  72.2678080  32.2064960  67.1470450  72.4834810  32.7163430
  67.0564830  69.5248170  18.3305230  67.3367120  68.6816070  18.6864650
  66.2830560  69.7571280  18.8443980  58.3759320  71.8140560  15.7896230
  58.6785220  71.8207990  14.8815380  59.1153910  71.4638420  16.2863890
  63.2107960  86.5797420  30.7712670  63.1366660  87.4832560  31.0785040
  62.3086800  86.2609320  30.7434740  61.5944250  70.7575180  16.7752430
  61.2466250  70.0799170  16.1954880  61.7957020  70.2964690  17.5895820
  63.7593290  85.7455930  18.3939030  64.6544080  86.0840900  18.4157790
  63.7910920  85.0235340  17.7663310  57.3989450  81.1182980  16.6226030
  57.8364320  81.6612650  17.2783610  57.8837180  80.2929930  16.6322370
  54.6135250  83.9072010  24.0746290  54.9438260  83.0393070  23.8424930
  55.0426250  84.1130530  24.9051250  59.2097170  82.2381020  21.7348260
  58.9092710  82.1145990  22.6352170  59.1034660  81.3789610  21.3263990
  55.1025460  84.7742600  26.8127920  54.6656450  84.9543400  27.6452070
  55.6703140  85.5317220  26.6709640  70.7387640  84.2759600  31.1005230
  70.1389630  84.3352160  30.3569150  70.8681540  83.3364580  31.2302080
  71.9789090  82.0177420  16.4374940  71.1482050  82.0854070  16.9082170
  72.1560920  82.9081540  16.1341800  71.4345550  78.7624900  18.9409140
  72.1964460  79.3321550  19.0468830  71.4499920  78.1952100  19.7117450
  54.9349890  77.2862830  23.1716800  54.2798730  77.0174470  22.5276500
  55.7727840  77.1767310  22.7218780  72.4405520  79.6175000  23.7851070
  72.8114350  78.8342320  23.3787040  73.0807450  80.3064100  23.6068370
  69.4239280  81.0011580  29.1981390  68.6099120  81.4308740  29.4607180
  69.8313480  81.6129990  28.5850440  71.4864720  79.0559270  16.0981660
  71.7613560  79.9638150  15.9700880  71.2975460  78.9921800  17.0343650
  67.8840330  72.0804120  17.3935290  68.3025210  71.8935100  16.5531950
  67.5776390  71.2283170  17.7038220  71.3830060  76.9928260  21.0911090
  71.0073660  76.2256190  20.6592380  70.6533180  77.3750960  21.5786020
  55.9725820  77.6715400  27.7120140  56.3398860  77.5842800  28.5916160
  55.4036640  76.9081950  27.6127000  70.7729680  76.1399780  30.7250610
  70.5415770  75.9112530  29.8248560  71.0334230  77.0599330  30.6795500
  55.5241820  74.5824490  31.6178560  54.6297870  74.5491250  31.9572270
  56.0639370  74.7811280  32.3829810  69.2117750  71.3656210  33.5030310
  70.0887930  71.3739610  33.8864310  69.2238590  70.6287050  32.8922660
  54.1487970  74.4961760  19.1142130  53.2452050  74.7591960  18.9393790
  54.6328590  74.7672930  18.3342090  70.6581020  75.2185750  24.3918330
  71.1818500  74.7248400  23.7608500  71.2440440  75.3536110  25.1365900
  70.8370740  75.3025620  27.9137880  69.8873450  75.2689160  28.0282870
  71.0183750  76.2125730  27.6787650  56.6915180  73.5527300  17.0236510
  57.4006880  73.1310520  16.5383790  55.9755120  73.6202530  16.3919860
  56.3389340  69.6066630  16.0639160  57.0617470  70.1475570  16.3820380
  56.6113860  69.3330050  15.1880700  70.1480990  74.4759100  20.3310740
  70.6440110  74.2429970  21.1159620  69.9497060  73.6370940  19.9148380
  56.0281530  68.8572820  25.9661780  56.6757720  68.3070200  25.5256940
  56.4483370  69.1115970  26.7877590  71.5768150  73.1120050  22.8648420
  71.4667430  72.9576090  23.8030690  72.3375740  72.5840990  22.6223830
  69.9233870  69.0514180  29.3231420  70.5606090  69.6648320  29.6890610
  70.0708760  69.0874840  28.3780650  72.4658420  70.9427970  16.1054560
  73.3907730  70.8109150  15.8972850  72.4434210  71.0220790  17.0591010
  72.5396910  71.7138630  18.7311270  71.7448410  71.6483750  19.2604180
  72.7440190  72.6489270  18.7196620  69.4815330  85.7530180  22.7249660
  70.0774400  85.4314750  22.0484080  69.7393480  85.2802000  23.5162930
  55.7813530  69.0128490  28.7087100  55.4328350  69.4692310  29.4745280
  55.4501230  68.1185620  28.7909530  57.3877900  82.1848090  32.8740290
  57.3447530  81.8141000  33.7554750  57.5188910  83.1225660  33.0142110
  61.0883930  83.7407680  28.4750010  60.8475290  84.0082240  27.5880530
  62.0286570  83.9113410  28.5300870  63.2938350  70.2040370  32.2306520
  63.2327240  70.7962200  32.9801930  64.2338730  70.0966330  32.0856780
  65.9312910  69.8610430  31.8698810  66.5453320  70.1789720  31.2079890
  66.4762470  69.3759020  32.4894670  72.3488090  85.7602060  29.2760650
  71.8546370  86.1570930  28.5587780  71.7401380  85.1351270  29.6697930
  56.4534170  68.5404690  31.9837870  57.0017160  68.3592740  31.2203980
  56.5189480  67.7498800  32.5194180  57.2265930  85.1310340  29.9938070
  56.6326250  84.9995040  30.7328110  57.2189770  84.2948480  29.5280170
  66.6720950  68.4242570  28.1968100  65.7980790  68.7577680  27.9941030
  66.5631700  67.9515750  29.0219970  67.5792930  70.6313440  29.5809820
  67.2506290  69.8165200  29.2011550  68.5275230  70.5883250  29.4575510
  70.0327540  86.4025480  26.5547390  69.5730510  87.1541290  26.1805410
  69.4040000  85.6831950  26.4962190  56.8578160  82.4968720  28.9446110
  56.1312220  81.8774010  28.8772060  56.9187310  82.8909330  28.0744190
  60.4623260  84.7113720  25.7295520  60.9788280  84.1001080  25.2043780
  61.1120640  85.2142500  26.2206530  63.2018760  85.6022210  26.5564500
  63.4896570  85.3476510  25.6797510  63.7141980  85.0499570  27.1470070
  64.4195770  69.3412410  27.1361010  63.6367560  69.8157910  27.4157770
  64.1258700  68.4367240  27.0274190  68.9716840  70.0435510  25.1810100
  69.4124930  69.9880610  24.3331700  68.7024430  70.9593520  25.2520280
  70.8355410  69.6750750  23.1918920  70.7743810  68.7311970  23.0449940
  71.6147440  69.7830840  23.7372380  55.1408160  85.8143110  22.1542870
  54.9730200  85.1813790  22.8524760  54.2742670  86.0202510  21.8037060
  55.7636180  69.6459890  19.6574730  56.5215540  69.7588770  19.0838760
  55.3013350  70.4829090  19.6118160  62.3049990  71.7599160  22.6477040
  61.4924500  71.3856050  22.3072920  62.8091630  71.0044240  22.9498230
  66.8074970  68.4241610  23.8860110  67.4104340  68.9961820  24.3608630
  66.0667960  68.9881050  23.6634010  69.9509570  68.8263170  19.1600390
  70.1460200  69.7246620  19.4267820  69.1639440  68.5950250  19.6533340
  56.7470860  84.5076340  19.5993010  56.2218480  84.8884370  18.8954970
  56.6715440  85.1327110  20.3202720  58.1361330  70.1723940  18.1976700
  58.6654090  69.3853740  18.0684650  58.7689650  70.8515130  18.4312230
  60.3299170  69.9099080  21.2522090  59.7001910  69.2086390  21.4192220
  59.7904310  70.6703210  21.0355250  63.2691120  86.5238310  33.9232700
  64.1958430  86.2882580  33.9668660  63.2541550  87.3510310  33.4418730
  71.5036180  86.0663880  20.9206950  71.6788370  85.3801620  20.2767870
  70.8057750  86.5910930  20.5283620  60.4554730  69.1883060  33.6874580
  60.1739000  69.6916660  32.9235400  60.8374430  68.3904810  33.3216710
  59.3463830  86.4558720  18.4742260  60.0782650  86.1718000  17.9266150
  59.6057500  86.2172000  19.3641640  58.5078620  82.5723450  18.4788590
  57.8787500  83.0408550  19.0274420  58.6226450  81.7272670  18.9134780
  67.0570190  68.6036640  34.2655050  66.9435640  68.9231250  35.1606570
  67.8739930  69.0049150  33.9692330  69.8368680  85.7508170  33.7473740
  70.6294000  85.2557400  33.5399700  70.1301830  86.4298310  34.3549350
  65.9628340  76.6229110   4.6289790  65.8822390  75.7083720   4.3581500
  65.5492760  77.1196180   3.9229500  64.0946380  78.4008130   6.5099060
  63.3188480  77.9208570   6.7997630  64.7459310  77.7213780   6.3355220
  58.1112210  78.7127940   7.3874820  57.2797090  78.4576650   7.7871330
  58.7193190  78.7838710   8.1232740  68.1153810  82.8068320   5.2898190
  67.6535340  82.0355560   5.6185360  68.9279360  82.8334390   5.7950640
  58.0913470  82.7468030   7.5832840  58.3941510  81.8565770   7.4043060
  58.8357060  83.3038250   7.3555090  54.4837170  76.2735480   7.0556910
  55.0553280  75.5057680   7.0560550  54.4838710  76.5724240   6.1463520
  64.3417120  85.0926330   4.9102180  63.7228560  85.5483830   4.3396620
  65.1968900  85.2477790   4.5091880  63.5355370  81.0765320   6.5169220
  63.4663650  80.1355260   6.3558350  64.2975230  81.1666730   7.0891790
  55.7262040  71.6819840   8.8425840  55.5464880  70.7845590   9.1228600
  55.3242120  72.2291710   9.5172790  64.5660540  73.8835700   6.7438150
  64.9425360  73.0107580   6.6311820  64.4680050  74.2194400   5.8528590
  58.6965550  72.2561330   2.2055590  58.8032300  73.1565060   2.5124350
  57.7857910  72.2079300   1.9150240  68.3484660  71.3786140   3.6766490
  69.1694280  70.8882710   3.7191970  68.3818740  71.9683800   4.4298330
  56.3448710  74.1780340   7.4508180  57.0258820  74.4418710   8.0695580
  56.0296760  73.3381210   7.7846190  60.5373280  75.2247700   6.5380770
  61.0451500  75.7228670   7.1785790  61.0686520  74.4482900   6.3620130
  72.6384210  73.3952890  10.2410120  71.9336380  73.7834600   9.7225230
  72.9042130  74.0903180  10.8431050  58.8209380  69.8646260  10.8044190
  58.8227820  70.3818650   9.9990090  57.9913690  69.3876440  10.7814120
  65.2080470  79.9765570   2.3034090  64.5897740  80.4415020   1.7396810
  65.7203720  80.6693050   2.7203600  60.0712230  79.5041440   8.9817690
  59.7381610  80.1310360   9.6238760  60.2478910  80.0303320   8.2019360
  68.5846140  73.3186520   6.4494030  67.8801710  73.6071410   7.0297140
  68.9458300  74.1286630   6.0893590  58.5024710  71.5756220   8.8114640
  58.8441520  72.4198270   8.5168510  57.5640520  71.7239960   8.9279980
  59.2831330  81.4722240  10.7966870  59.9005330  82.1473320  10.5151320
  58.4224450  81.8810220  10.7054370  70.2008920  82.9361650   8.7121510
  69.5172440  83.6060760   8.7038180  70.7403210  83.1342300   7.9466370
  71.6533060  72.7641310   6.8403240  70.7057970  72.7980290   6.9718670
  71.9783050  73.5780260   7.2252600  62.1852600  69.0638490   5.1359230
  62.4927580  68.5085380   4.4194730  61.2553300  69.1982950   4.9532220
  67.7367660  84.7805780   7.4266690  67.7494820  84.3768070   6.5588950
  67.1842880  85.5553070   7.3228120  69.0313080  81.5022000   2.5156860
  68.9209410  80.5596330   2.6406280  69.0281330  81.8637640   3.4019620
  67.1353100  79.6835620   8.7549300  67.5521890  79.4695730   7.9202760
  67.8592920  79.9408410   9.3257920  64.5733360  77.1287320   1.8719350
  63.6462640  77.0624700   2.1007820  64.7258180  78.0667450   1.7574590
  71.0815200  78.0822840   8.8465540  70.2533830  78.1515930   8.3715670
  71.6765680  78.6677150   8.3781370  68.6030650  78.6907620   2.3754600
  67.9843070  78.3527170   1.7280900  68.5855100  78.0467380   3.0833790
  68.0457210  74.8692160   9.7920410  67.6328390  75.6945870  10.0460400
  67.3133160  74.2837200   9.5996770  60.1790000  77.6552060   4.6539080
  59.7747000  76.9429310   4.1584980  60.2653120  77.3105300   5.5427120
  60.6471700  81.3419620   6.8178290  60.3499990  80.7365090   6.1386070
  61.5971520  81.3796930   6.7067650  58.8918620  74.4295270   8.4338120
  59.4433210  74.5390610   7.6591370  59.4062130  74.8032870   9.1493350
  68.7357310  84.9151490  10.4801390  68.2587870  85.7223680  10.2874000
  68.0519100  84.2629820  10.6327600  59.7390130  81.0801310  13.4686090
  58.8418660  81.3041280  13.7159490  59.7643000  81.2036250  12.5197490
  58.5661350  77.9514630  12.0443460  58.4269120  78.8237430  12.4130860
  57.6842710  77.6087440  11.8991400  64.8890730  82.8690500   3.3508590
  65.3286640  83.6114830   2.9363980  64.8277620  83.1117070   4.2747550
  60.3641700  83.8936330  14.2528610  60.3357130  84.2979280  13.3857040
  60.2006670  82.9646690  14.0900210  56.8794630  76.5497040   2.1545730
  56.7592230  77.2759130   1.5427000  56.5695520  75.7799950   1.6773640
  72.3156520  84.6763430  15.5492780  72.7916240  85.1546320  16.2281860
  72.9363680  84.6080920  14.8238280  54.5180000  79.7212180   7.9614370
  54.5960420  79.8560950   7.0170090  55.1321680  79.0128070   8.1542490
  55.7627630  81.4212370   4.3720550  55.3555710  81.5626960   3.5174150
  56.6540640  81.1372530   4.1691760  71.7189770  81.8676280  12.7092790
  71.8452830  81.6288160  11.7909970  71.7611150  81.0360820  13.1814870
  65.5806510  85.5704280  11.2787600  66.0951180  85.4812290  12.0810030
  64.7375590  85.9163980  11.5715510  60.0349290  85.6358150   2.4843220
  59.8591770  84.7193690   2.2711020  59.1805030  85.9945440   2.7241020
  66.8236970  84.9909890   3.3418090  67.2793920  84.2099270   3.6556710
  67.1629490  85.7016710   3.8859270  71.5713780  73.9208740  13.6742530
  70.9558050  74.4288410  13.1457990  71.2510200  73.0207070  13.6168470
  54.5739520  80.7626350  10.5008830  54.7370560  80.2931710   9.6828200
  55.0391970  80.2549910  11.1657670  59.3458290  69.8932110   5.5369400
  58.9026440  70.6741650   5.2053920  59.9043280  70.2162000   6.2440340
  63.6328100  72.7600630  11.1404720  63.1707470  72.9683650  11.9524660
  63.2306210  71.9459980  10.8375390  68.6332610  73.9809580  12.2701380
  67.7826200  73.6815330  12.5910450  68.4734400  74.2251590  11.3585200
  65.7282320  75.4811330  14.3700170  66.0535730  74.6475080  14.0302400
  66.5162650  76.0039850  14.5178500  61.3834190  70.4379440   7.3959000
  61.6806520  71.3442270   7.3151020  61.9319750  69.9498220   6.7818570
  59.1372510  75.0165680   3.2650650  58.9113430  74.8002850   4.1697270
  58.3565040  75.4494140   2.9196620  61.5771720  75.9151260  13.9310920
  61.4815320  74.9745990  13.7811320  62.4203700  76.1366330  13.5358990
  64.9735140  73.6592590   3.8944580  65.3664710  73.9764790   3.0813270
  65.3351990  72.7804470   4.0089100  56.7082260  72.3264930  12.0844700
  56.3145650  73.1740140  12.2917480  56.0200660  71.6891300  12.2753340
  63.2827310  72.4099900  15.1541440  62.5925630  72.2172100  15.7887530
  64.0259610  72.6934540  15.6865740  54.0099310  70.2493390   6.1174780
  53.7212360  70.8196250   6.8299760  54.7545070  69.7697840   6.4806010
  65.5590280  76.2498340   7.9895360  64.8271400  76.7585150   8.3385460
  65.1614620  75.4328320   7.6884140  61.9967670  72.9252540   6.3947850
  62.0003730  72.4842490   5.5452390  62.8918790  73.2469870   6.5019670
  57.8470050  72.8079030   5.3542060  57.5070100  73.2854260   6.1109110
  57.0847370  72.3544150   4.9943160  66.0216190  71.7032020   7.4018300
  66.0388930  72.1540670   8.2460150  65.7731770  70.8037660   7.6151740
  69.4486940  69.1164200  13.2404680  69.7732710  68.3853860  13.7662660
  69.4843450  68.7977840  12.3385670  56.1478500  80.1377780  12.6604640
  55.7633290  79.4971450  13.2587600  56.4590690  80.8413900  13.2299370
  62.2975640  76.9854320   8.1413260  62.6645770  76.5112890   8.8874600
  62.1080700  77.8595890   8.4821600  55.1616130  71.7298010   4.2706730
  54.8763050  71.3653680   5.1085350  55.0994990  70.9978470   3.6569870
  60.0875010  76.0262960  10.4597470  59.7832080  76.9054940  10.6847830
  61.0421470  76.0862750  10.4954910  69.3744780  79.2289310   6.8490710
  70.0943900  79.7244600   6.4586820  69.1726600  78.5507200   6.2044580
  64.7563580  79.2998370  12.7359710  64.6900890  78.3794040  12.4817300
  64.1268720  79.3973810  13.4504350  58.6594200  79.9004330   4.6943130
  59.1772870  79.0972590   4.6400020  58.2078220  79.8383470   5.5359960
  56.1438740  76.8665700  11.6068830  55.7853680  77.5319550  12.1942170
  55.8493300  76.0349250  11.9781450  59.3451860  77.3249940  14.4908380
  59.0452000  77.4707120  13.5936200  60.1163100  76.7655230  14.3981770
  64.6880310  82.1218940  12.4863510  64.7024850  81.1899900  12.2682420
  63.9805410  82.2078700  13.1253280  70.8991520  78.7626280  11.8332090
  70.1739710  79.3555060  11.6361480  71.4266980  78.7549820  11.0345460
  66.4291110  80.4886450   5.3315940  66.7814930  79.8914580   4.6717310
  65.5453440  80.1630680   5.5024190  62.5154390  81.2484140   2.7386350
  63.2025520  81.7953350   3.1193940  61.7286810  81.7924870   2.7735960
  61.8181600  78.2530170   2.3511710  62.2744380  79.0635420   2.5771900
  61.4669810  77.9353310   3.1830200  64.1214210  83.7636510   9.5804010
  64.7656430  83.9695890  10.2577430  64.4843650  83.0024910   9.1274860
  57.7193380  68.5967820   2.8234230  57.5908010  68.5885720   3.7719150
  56.8955400  68.9350910   2.4725240  65.3946290  81.7668860   8.2981460
  66.0368520  81.0662020   8.4113630  65.9195640  82.5467300   8.1178350
  67.1683910  82.5663760  11.5017520  67.5040150  83.1530450  12.1795440
  66.2484250  82.4356470  11.7315310  54.7187310  70.3558940  12.2840930
  54.0045830  70.5555860  12.8893540  55.1382350  69.5798510  12.6555730
  55.0059900  84.3439200  13.2707460  55.1151020  83.4033940  13.1302850
  54.3540460  84.6093950  12.6221190  62.9972490  82.6155090  14.6705580
  62.6769360  81.8964330  15.2151270  62.3230850  83.2910160  14.7441640
  66.2126090  72.8481250  10.0342380  66.5806910  72.0276460  10.3621950
  65.3524290  72.9083140  10.4498030  61.5472150  74.0824140   2.2587820
  60.8388300  74.5510480   2.7001430  61.8316630  73.4246150   2.8933010
  63.1728080  75.5020840  10.2580350  63.6713330  75.9766660  10.9232200
  63.3151030  74.5784360  10.4650380  65.5787580  70.8074800   3.6983610
  65.4555360  70.8260930   2.7493120  66.5272140  70.8553740   3.8182010
  62.6664370  86.0430100   2.9711590  62.9205870  86.0051490   2.0490960
  61.7176850  85.9163430   2.9639840  70.3794940  71.7188800  11.1008740
  69.8768540  72.4594200  11.4402550  71.1951600  72.1072800  10.7845530
  68.6716950  76.9621980   4.5470100  67.7307090  76.9772210   4.7217790
  68.9861020  76.1757940   4.9930400  70.6742530  84.1330830   6.2224360
  70.7989950  84.9562000   6.6948170  71.5408090  83.9221560   5.8748510
  58.1460060  86.2262040   5.8941490  58.8822540  85.6777500   6.1650060
  58.5300980  87.0918050   5.7547480  55.0305540  82.2935610   1.7683000
  54.1045320  82.5356750   1.7588410  55.4961970  83.1209870   1.6467750
  57.1518340  85.4108110  15.0827070  57.9531070  85.7320160  15.4962470
  56.6370160  85.0503690  15.8046980  65.9882970  81.5187980  15.0302480
  65.3821130  81.5419580  14.2898230  65.6837080  80.7871020  15.5669730
  67.4183340  85.2468270  13.6411890  68.3705090  85.1626290  13.5912130
  67.2711560  85.9109980  14.3145680  54.8716150  77.8981570  14.0263120
  55.3755170  77.3188850  14.5979350  54.1323570  78.1821800  14.5639490
  61.9254090  79.3052560  13.5598640  61.1599760  79.8737560  13.4753310
  62.1070050  79.0128770  12.6666870  69.0677440  81.0357890  14.1173660
  69.8086910  81.3733650  13.6141120  68.3050120  81.2049950  13.5643430
  56.9039230  76.0411160  14.9213190  56.9444570  75.7425030  15.8298420
  57.7584730  76.4418770  14.7620710  58.8445040  74.6203260  12.8887680
  58.3141500  74.1294210  12.2611020  59.5133110  75.0487460  12.3545610
  67.7423100  79.0872720  12.6528870  68.1564120  79.2417800  13.5019290
  66.8074100  79.2127940  12.8154650  68.2145270  76.4268880  14.6568020
  68.7966040  75.6721200  14.5688500  68.3907040  76.9576320  13.8799500
  59.3317340  71.5865630  12.9684970  59.2374210  70.9686380  12.2435840
  58.7514730  72.3131920  12.7414880  62.0978780  70.1438870  10.0012360
  61.6496080  70.1663130   9.1557910  61.4643980  69.7457890  10.5982660
  62.5038330  79.0393200  10.6224800  62.9226440  79.8825930  10.4501040
  61.5846960  79.1765240  10.3931580  64.8402230  76.7709380  12.0062640
  64.9598440  76.1750520  12.7457480  65.6996230  76.8079070  11.5863940
  67.1790130  77.3246570  10.5825150  66.6525350  77.8489190   9.9790290
  67.5221470  77.9573960  11.2134880  60.3545750  85.3446210  11.7382530
  59.8166840  86.0692270  11.4191230  60.6079710  84.8676550  10.9479870
  61.6071000  73.3130730  13.2638460  62.1970690  73.0046580  13.9516280
  60.7891240  72.8410480  13.4198360  66.4264430  72.9296540  13.4971480
  65.7379950  72.2678080  13.4321470  67.1470450  72.4834810  13.9419940
  63.2107960  86.5797420  11.9969180  63.1366660  87.4832560  12.3041550
  62.3086800  86.2609320  11.9691250  54.6135250  83.9072010   5.3002800
  54.9438260  83.0393070   5.0681440  55.0426250  84.1130530   6.1307760
  59.2097170  82.2381020   2.9604770  58.9092710  82.1145990   3.8608680
  59.1034660  81.3789610   2.5520500  55.1025460  84.7742600   8.0384430
  54.6656450  84.9543400   8.8708580  55.6703140  85.5317220   7.8966150
  70.7387640  84.2759600  12.3261740  70.1389630  84.3352160  11.5825660
  70.8681540  83.3364580  12.4558590  54.9349890  77.2862830   4.3973310
  54.2798730  77.0174470   3.7533010  55.7727840  77.1767310   3.9475290
  72.4405520  79.6175000   5.0107580  72.8114350  78.8342320   4.6043550
  73.0807450  80.3064100   4.8324880  69.4239280  81.0011580  10.4237900
  68.6099120  81.4308740  10.6863690  69.8313480  81.6129990   9.8106950
  71.3830060  76.9928260   2.3167600  71.0073660  76.2256190   1.8848890
  70.6533180  77.3750960   2.8042530  55.9725820  77.6715400   8.9376650
  56.3398860  77.5842800   9.8172670  55.4036640  76.9081950   8.8383510
  70.7729680  76.1399780  11.9507120  70.5415770  75.9112530  11.0505070
  71.0334230  77.0599330  11.9052010  55.5241820  74.5824490  12.8435070
  54.6297870  74.5491250  13.1828780  56.0639370  74.7811280  13.6086320
  69.2117750  71.3656210  14.7286820  70.0887930  71.3739610  15.1120820
  69.2238590  70.6287050  14.1179170  70.6581020  75.2185750   5.6174840
  71.1818500  74.7248400   4.9865010  71.2440440  75.3536110   6.3622410
  70.8370740  75.3025620   9.1394390  69.8873450  75.2689160   9.2539380
  71.0183750  76.2125730   8.9044160  56.0281530  68.8572820   7.1918290
  56.6757720  68.3070200   6.7513450  56.4483370  69.1115970   8.0134100
  71.5768150  73.1120050   4.0904930  71.4667430  72.9576090   5.0287200
  72.3375740  72.5840990   3.8480340  69.9233870  69.0514180  10.5487930
  70.5606090  69.6648320  10.9147120  70.0708760  69.0874840   9.6037160
  69.4815330  85.7530180   3.9506170  70.0774400  85.4314750   3.2740590
  69.7393480  85.2802000   4.7419440  55.7813530  69.0128490   9.9343610
  55.4328350  69.4692310  10.7001790  55.4501230  68.1185620  10.0166040
  57.3877900  82.1848090  14.0996800  57.3447530  81.8141000  14.9811260
  57.5188910  83.1225660  14.2398620  61.0883930  83.7407680   9.7006520
  60.8475290  84.0082240   8.8137040  62.0286570  83.9113410   9.7557380
  63.2938350  70.2040370  13.4563030  63.2327240  70.7962200  14.2058440
  64.2338730  70.0966330  13.3113290  65.9312910  69.8610430  13.0955320
  66.5453320  70.1789720  12.4336400  66.4762470  69.3759020  13.7151180
  72.3488090  85.7602060  10.5017160  71.8546370  86.1570930   9.7844290
  71.7401380  85.1351270  10.8954440  56.4534170  68.5404690  13.2094380
  57.0017160  68.3592740  12.4460490  56.5189480  67.7498800  13.7450690
  57.2265930  85.1310340  11.2194580  56.6326250  84.9995040  11.9584620
  57.2189770  84.2948480  10.7536680  66.6720950  68.4242570   9.4224610
  65.7980790  68.7577680   9.2197540  66.5631700  67.9515750  10.2476480
  67.5792930  70.6313440  10.8066330  67.2506290  69.8165200  10.4268060
  68.5275230  70.5883250  10.6832020  70.0327540  86.4025480   7.7803900
  69.5730510  87.1541290   7.4061920  69.4040000  85.6831950   7.7218700
  56.8578160  82.4968720  10.1702620  56.1312220  81.8774010  10.1028570
  56.9187310  82.8909330   9.3000700  60.4623260  84.7113720   6.9552030
  60.9788280  84.1001080   6.4300290  61.1120640  85.2142500   7.4463040
  63.2018760  85.6022210   7.7821010  63.4896570  85.3476510   6.9054020
  63.7141980  85.0499570   8.3726580  64.4195770  69.3412410   8.3617520
  63.6367560  69.8157910   8.6414280  64.1258700  68.4367240   8.2530700
  68.9716840  70.0435510   6.4066610  69.4124930  69.9880610   5.5588210
  68.7024430  70.9593520   6.4776790  70.8355410  69.6750750   4.4175430
  70.7743810  68.7311970   4.2706450  71.6147440  69.7830840   4.9628890
  55.1408160  85.8143110   3.3799380  54.9730200  85.1813790   4.0781270
  54.2742670  86.0202510   3.0293570  62.3049990  71.7599160   3.8733550
  61.4924500  71.3856050   3.5329430  62.8091630  71.0044240   4.1754740
  66.8074970  68.4241610   5.1116620  67.4104340  68.9961820   5.5865140
  66.0667960  68.9881050   4.8890520  60.3299170  69.9099080   2.4778600
  59.7001910  69.2086390   2.6448730  59.7904310  70.6703210   2.2611760
  63.2691120  86.5238310  15.1489210  64.1958430  86.2882580  15.1925170
  63.2541550  87.3510310  14.6675240  71.5036180  86.0663880   2.1463460
  71.6788370  85.3801620   1.5024380  70.8057750  86.5910930   1.7540130
  60.4554730  69.1883060  14.9131090  60.1739000  69.6916660  14.1491910
  60.8374430  68.3904810  14.5473220  67.0570190  68.6036640  15.4911560
  66.9435640  68.9231250  16.3863080  67.8739930  69.0049150  15.1948840
  69.8368680  85.7508170  14.9730250  70.6294000  85.2557400  14.7656210
  70.1301830  86.4298310  15.5805860  65.9628340  57.8485620  98.5007240
  65.8822390  56.9340230  98.2298950  65.5492760  58.3452690  97.7946950
  64.0946380  59.6264640 100.3816510  63.3188480  59.1465080 100.6715080
  64.7459310  58.9470290 100.2072670  58.1112210  59.9384450 101.2592270
  57.2797090  59.6833160 101.6588780  58.7193190  60.0095220 101.9950190
  68.1153810  64.0324830  99.1615640  67.6535340  63.2612070  99.4902810
  68.9279360  64.0590900  99.6668090  58.0913470  63.9724540 101.4550290
  58.3941510  63.0822280 101.2760510  58.8357060  64.5294760 101.2272540
  56.5204160  54.8986340  95.0434660  55.6320860  55.2402310  94.9414540
  56.8045350  54.6986660  94.1515490  54.4837170  57.4991990 100.9274360
  55.0553280  56.7314190 100.9278000  54.4838710  57.7980750 100.0180970
  64.3417120  66.3182840  98.7819630  63.7228560  66.7740340  98.2114070
  65.1968900  66.4734300  98.3809330  63.5355370  62.3021830 100.3886670
  63.4663650  61.3611770 100.2275800  64.2975230  62.3923240 100.9609240
  55.7262040  52.9076350 102.7143290  55.5464880  52.0102100 102.9946050
  55.3242120  53.4548220 103.3890240  64.5660540  55.1092210 100.6155600
  64.9425360  54.2364090 100.5029270  64.4680050  55.4450910  99.7246040
  58.6965550  53.4817840  96.0773040  58.8032300  54.3821570  96.3841800
  57.7857910  53.4335810  95.7867690  68.3484660  52.6042650  97.5483940
  69.1694280  52.1139220  97.5909420  68.3818740  53.1940310  98.3015780
  56.3448710  55.4036850 101.3225630  57.0258820  55.6675220 101.9413030
  56.0296760  54.5637720 101.6563640  60.5373280  56.4504210 100.4098220
  61.0451500  56.9485180 101.0503240  61.0686520  55.6739410 100.2337580
  72.6384210  54.6209400 104.1127570  71.9336380  55.0091110 103.5942680
  72.9042130  55.3159690 104.7148500  58.8209380  51.0902770 104.6761640
  58.8227820  51.6075160 103.8707540  57.9913690  50.6132950 104.6531570
  65.2080470  61.2022080  96.1751540  64.5897740  61.6671530  95.6114260
  65.7203720  61.8949560  96.5921050  60.0712230  60.7297950 102.8535140
  59.7381610  61.3566870 103.4956210  60.2478910  61.2559830 102.0736810
  68.5846140  54.5443030 100.3211480  67.8801710  54.8327920 100.9014590
  68.9458300  55.3543140  99.9611040  58.5024710  52.8012730 102.6832090
  58.8441520  53.6454780 102.3885960  57.5640520  52.9496470 102.7997430
  59.2831330  62.6978750 104.6684320  59.9005330  63.3729830 104.3868770
  58.4224450  63.1066730 104.5771820  54.5763670  61.8878610  93.5491170
  54.1991650  62.3765710  92.8176070  54.8336740  62.5603890  94.1797700
  70.2008920  64.1618160 102.5838960  69.5172440  64.8317270 102.5755630
  70.7403210  64.3598810 101.8183820  71.6533060  53.9897820 100.7120690
  70.7057970  54.0236800 100.8436120  71.9783050  54.8036770 101.0970050
  62.1852600  50.2895000  99.0076680  62.4927580  49.7341890  98.2912180
  61.2553300  50.4239460  98.8249670  67.7367660  66.0062290 101.2984140
  67.7494820  65.6024580 100.4306400  67.1842880  66.7809580 101.1945570
  69.0313080  62.7278510  96.3874310  68.9209410  61.7852840  96.5123730
  69.0281330  63.0894150  97.2737070  67.1353100  60.9092130 102.6266750
  67.5521890  60.6952240 101.7920210  67.8592920  61.1664920 103.1975370
  64.5733360  58.3543830  95.7436800  63.6462640  58.2881210  95.9725270
  64.7258180  59.2923960  95.6292040  64.5602440  54.6260830  92.7403960
  63.6206110  54.7874790  92.8256420  64.8785700  55.3446510  92.1939950
  71.0815200  59.3079350 102.7182990  70.2533830  59.3772440 102.2433120
  71.6765680  59.8933660 102.2498820  68.6030650  59.9164130  96.2472050
  67.9843070  59.5783680  95.5998350  68.5855100  59.2723890  96.9551240
  68.0457210  56.0948670 103.6637860  67.6328390  56.9202380 103.9177850
  67.3133160  55.5093710 103.4714220  60.1790000  58.8808570  98.5256530
  59.7747000  58.1685820  98.0302430  60.2653120  58.5361810  99.4144570
  60.6471700  62.5676130 100.6895740  60.3499990  61.9621600 100.0103520
  61.5971520  62.6053440 100.5785100  58.8918620  55.6551780 102.3055570
  59.4433210  55.7647120 101.5308820  59.4062130  56.0289380 103.0210800
  68.7357310  66.1408000 104.3518840  68.2587870  66.9480190 104.1591450
  68.0519100  65.4886330 104.5045050  66.7795350  59.1550940  93.2544800
  67.2188630  58.3173370  93.1082620  67.4923770  59.7880340  93.3408940
  64.8890730  64.0947010  97.2226040  65.3286640  64.8371340  96.8081430
  64.8277620  64.3373580  98.1465000  70.3612490  50.4093750  91.5685840
  70.0485150  50.5020580  92.4684910  71.1224960  50.9874780  91.5183270
  56.8794630  57.7753550  96.0263180  56.7592230  58.5015640  95.4144450
  56.5695520  57.0056460  95.5491090  54.5180000  60.9468690 101.8331820
  54.5960420  61.0817460 100.8887540  55.1321680  60.2384580 102.0259940
  55.7627630  62.6468880  98.2438000  55.3555710  62.7883470  97.3891600
  56.6540640  62.3629040  98.0409210  67.5560910  67.0816130  94.5789050
  67.3962050  66.7919070  95.4770880  67.3907620  66.3056260  94.0434280
  60.0349290  66.8614660  96.3560670  59.8591770  65.9450200  96.1428470
  59.1805030  67.2201950  96.5958470  67.2587040  64.5903690  93.1387050
  66.5652200  64.5880980  92.4789330  68.0009900  64.1663010  92.7081220
  66.8236970  66.2166400  97.2135540  67.2793920  65.4355780  97.5274160
  67.1629490  66.9273220  97.7576720  59.3458290  51.1188620  99.4086850
  58.9026440  51.8998160  99.0771370  59.9043280  51.4418510 100.1157790
  62.4617110  50.7399320  94.2892680  61.8371290  50.7359190  95.0145990
  62.3747230  49.8730280  93.8928650  61.3834190  51.6635950 101.2676450
  61.6806520  52.5698780 101.1868470  61.9319750  51.1754730 100.6536020
  59.1372510  56.2422190  97.1368100  58.9113430  56.0259360  98.0414720
  58.3565040  56.6750650  96.7914070  66.3670270  56.2485560  95.7358750
  65.7679160  56.9721360  95.5522370  66.9149880  56.1862340  94.9535200
  64.9735140  54.8849100  97.7662030  65.3664710  55.2021300  96.9530720
  65.3351990  54.0060980  97.8806550  54.0099310  51.4749900  99.9892230
  53.7212360  52.0452760 100.7017210  54.7545070  50.9954350 100.3523460
  54.1969540  55.4170020  91.1994950  54.1144210  56.3600780  91.3409940
  53.8452600  55.2744930  90.3207300  65.5590280  57.4754850 101.8612810
  64.8271400  57.9841660 102.2102910  65.1614620  56.6584830 101.5601590
  61.9967670  54.1509050 100.2665300  62.0003730  53.7099000  99.4169840
  62.8918790  54.4726380 100.3737120  57.8470050  54.0335540  99.2259510
  57.5070100  54.5110770  99.9826560  57.0847370  53.5800660  98.8660610
  62.0587820  55.1521130  93.2572060  62.1800640  55.1107610  94.2057880
  61.6736330  56.0145280  93.1018790  66.0216190  52.9288530 101.2735750
  66.0388930  53.3797180 102.1177600  65.7731770  52.0294170 101.4869190
  61.0709320  57.4622270  92.6555360  60.5026220  57.0140520  92.0291270
  61.7798320  57.8215050  92.1220510  62.2975640  58.2110830 102.0130710
  62.6645770  57.7369400 102.7592050  62.1080700  59.0852400 102.3539050
  55.1616130  52.9554520  98.1424180  54.8763050  52.5910190  98.9802800
  55.0994990  52.2234980  97.5287320  60.0875010  57.2519470 104.3314920
  59.7832080  58.1311450 104.5565280  61.0421470  57.3119260 104.3672360
  58.6156800  61.4580460  94.9281770  57.8419060  60.9178080  94.7680490
  59.3451430  60.9387070  94.5899530  69.3744780  60.4545820 100.7208160
  70.0943900  60.9501110 100.3304270  69.1726600  59.7763710 100.0762030
  64.8354720  51.8483780  94.8637550  64.0219330  51.3496950  94.7882860
  64.6416670  52.6882030  94.4473900  67.5503110  56.2203430  93.1599710
  68.4382730  56.5320660  92.9851050  67.5208200  55.3475680  92.7680290
  58.6594200  61.1260840  98.5660580  59.1772870  60.3229100  98.5117470
  58.2078220  61.0639980  99.4077410  63.5463700  62.3927120  93.8387880
  63.8879400  63.1369350  93.3431200  62.7176410  62.7058240  94.2012710
  69.8217380  57.5315270  92.6279570  69.7381100  57.9629490  91.7776010
  70.5411570  57.9913620  93.0606390  70.8504630  64.3857530  95.3561700
  70.2080790  63.7313150  95.6305420  70.4635290  64.7912620  94.5802370
  66.4291110  61.7142960  99.2033390  66.7814930  61.1171090  98.5434760
  65.5453440  61.3887190  99.3741640  62.5154390  62.4740650  96.6103800
  63.2025520  63.0209860  96.9911390  61.7286810  63.0181380  96.6453410
  54.6546790  58.0913470  92.1020880  55.5241640  58.3738270  92.3856800
  54.1637110  58.9049340  91.9869690  61.8181600  59.4786680  96.2229160
  62.2744380  60.2891930  96.4489350  61.4669810  59.1609820  97.0547650
  64.1214210  64.9893020 103.4521460  64.7656430  65.1952400 104.1294880
  64.4843650  64.2281420 102.9992310  57.7193380  49.8224330  96.6951680
  57.5908010  49.8142230  97.6436600  56.8955400  50.1607420  96.3442690
  65.3946290  62.9925370 102.1698910  66.0368520  62.2918530 102.2831080
  65.9195640  63.7723810 101.9895800  69.2402010  63.2773990  91.8938050
  69.0139590  62.5604430  92.4862690  68.8498210  63.0286430  91.0559800
  55.0218040  67.3040850  92.6682510  55.3815680  67.9030190  92.0139780
  54.8810380  67.8500740  93.4417540  68.8218260  61.1945930  93.5552210
  68.5339960  61.6558620  94.3430090  69.6170430  60.7343700  93.8236430
  61.0386660  64.6872050  93.4856180  61.0296760  65.4201740  92.8700690
  60.1185020  64.4403630  93.5783140  56.6393300  59.9086940  94.2302940
  56.0321250  60.6485840  94.2398240  57.1142650  59.9986300  93.4041140
  66.2126090  54.0737760 103.9059830  66.5806910  53.2532970 104.2339400
  65.3524290  54.1339650 104.3215480  69.5788120  53.0294700  94.7147390
  68.9501280  53.1340370  94.0005620  69.0840040  53.2491480  95.5041270
  64.0246260  64.7500290  92.1481370  64.1258240  64.5464280  91.2183350
  63.1248000  64.4958570  92.3529150  61.5472150  55.3080650  96.1305270
  60.8388300  55.7766990  96.5718880  61.8316630  54.6502660  96.7650460
  63.1728080  56.7277350 104.1297800  63.6713330  57.2023170 104.7949650
  63.3151030  55.8040870 104.3367830  65.5787580  52.0331310  97.5701060
  65.4555360  52.0517440  96.6210570  66.5272140  52.0810250  97.6899460
  62.6664370  67.2686610  96.8429040  62.9205870  67.2308000  95.9208410
  61.7176850  67.1419940  96.8357290  59.7507170  53.6165730  93.5055980
  60.5997700  54.0535880  93.4396170  59.3838440  53.9285990  94.3328040
  68.6716950  58.1878490  98.4187550  67.7307090  58.2028720  98.5935240
  68.9861020  57.4014450  98.8647850  58.6498590  59.8698090  91.9791510
  59.4161860  59.7579450  92.5416940  58.7273280  59.1736060  91.3268280
  57.3445350  57.3023160  92.6624400  57.4248940  56.3550670  92.7741800
  58.2365100  57.6330040  92.7685060  70.6742530  65.3587340 100.0941810
  70.7989950  66.1818510 100.5665620  71.5408090  65.1478070  99.7465960
  58.1460060  67.4518550  99.7658940  58.8822540  66.9034010 100.0367510
  58.5300980  68.3174560  99.6264930  55.0305540  63.5192120  95.6400450
  54.1045320  63.7613260  95.6305860  55.4961970  64.3466380  95.5185200
  61.2562370  66.6248860  91.5884510  62.0490980  66.9137690  91.1366300
  60.7366720  66.1941030  90.9096990  70.3092540  65.8518990  93.0121250
  70.0234050  65.4384130  92.1975430  70.1112090  66.7806700  92.8921770
  61.7739770  61.8452270  91.4526860  61.6690410  61.2304620  92.1788240
  61.6063990  61.3218160  90.6689870  65.0142500  60.9072300  92.0568850
  64.4652600  61.3541600  92.7011590  65.6361760  60.4021550  92.5806520
  60.6817620  59.8663220  93.9534150  61.1034040  59.7003090  94.7965540
  60.8068460  59.0563450  93.4589290  63.1945260  58.8900830  91.2011250
  63.7150920  58.1749850  90.8352400  63.8413660  59.5286700  91.5011760
  62.0978780  51.3695380 103.8729810  61.6496080  51.3919640 103.0275360
  61.4643980  50.9714400 104.4700110  62.5038330  60.2649710 104.4942250
  62.9226440  61.1082440 104.3218490  61.5846960  60.4021750 104.2649030
  59.5776520  55.9396450  90.8992310  59.3765580  55.0763810  91.2605650
  59.4068570  55.8529810  89.9613910  67.0564830  50.7504680  93.4279190
  67.3367120  49.9072580  93.7838610  66.2830560  50.9827790  93.9417940
  58.3759320  53.0397070  90.8870190  58.6785220  53.0464500  89.9789340
  59.1153910  52.6894930  91.3837850  61.5944250  51.9831690  91.8726390
  61.2466250  51.3055680  91.2928840  61.7957020  51.5221200  92.6869780
  63.7593290  66.9712440  93.4912990  64.6544080  67.3097410  93.5131750
  63.7910920  66.2491850  92.8637270  57.3989450  62.3439490  91.7199990
  57.8364320  62.8869160  92.3757570  57.8837180  61.5186440  91.7296330
  54.6135250  65.1328520  99.1720250  54.9438260  64.2649580  98.9398890
  55.0426250  65.3387040 100.0025210  59.2097170  63.4637530  96.8322220
  58.9092710  63.3402500  97.7326130  59.1034660  62.6046120  96.4237950
  55.1025460  65.9999110 101.9101880  54.6656450  66.1799910 102.7426030
  55.6703140  66.7573730 101.7683600  71.9789090  63.2433930  91.5348900
  71.1482050  63.3110580  92.0056130  72.1560920  64.1338050  91.2315760
  71.4345550  59.9881410  94.0383100  72.1964460  60.5578060  94.1442790
  71.4499920  59.4208610  94.8091410  54.9349890  58.5119340  98.2690760
  54.2798730  58.2430980  97.6250460  55.7727840  58.4023820  97.8192740
  72.4405520  60.8431510  98.8825030  72.8114350  60.0598830  98.4761000
  73.0807450  61.5320610  98.7042330  69.4239280  62.2268090 104.2955350
  68.6099120  62.6565250 104.5581140  69.8313480  62.8386500 103.6824400
  67.8840330  53.3060630  92.4909250  68.3025210  53.1191610  91.6505910
  67.5776390  52.4539680  92.8012180  71.3830060  58.2184770  96.1885050
  71.0073660  57.4512700  95.7566340  70.6533180  58.6007470  96.6759980
  55.9725820  58.8971910 102.8094100  56.3398860  58.8099310 103.6890120
  55.4036640  58.1338460 102.7100960  54.1487970  55.7218270  94.2116090
  53.2452050  55.9848470  94.0367750  54.6328590  55.9929440  93.4316050
  70.6581020  56.4442260  99.4892290  71.1818500  55.9504910  98.8582460
  71.2440440  56.5792620 100.2339860  70.8370740  56.5282130 103.0111840
  69.8873450  56.4945670 103.1256830  71.0183750  57.4382240 102.7761610
  56.6915180  54.7783810  92.1210470  57.4006880  54.3567030  91.6357750
  55.9755120  54.8459040  91.4893820  56.3389340  50.8323140  91.1613120
  57.0617470  51.3732080  91.4794340  56.6113860  50.5586560  90.2854660
  70.1480990  55.7015610  95.4284700  70.6440110  55.4686480  96.2133580
  69.9497060  54.8627450  95.0122340  56.0281530  50.0829330 101.0635740
  56.6757720  49.5326710 100.6230900  56.4483370  50.3372480 101.8851550
  71.5768150  54.3376560  97.9622380  71.4667430  54.1832600  98.9004650
  72.3375740  53.8097500  97.7197790  69.9233870  50.2770690 104.4205380
  70.5606090  50.8904830 104.7864570  70.0708760  50.3131350 103.4754610
  72.4658420  52.1684480  91.2028520  73.3907730  52.0365660  90.9946810
  72.4434210  52.2477300  92.1564970  72.5396910  52.9395140  93.8285230
  71.7448410  52.8740260  94.3578140  72.7440190  53.8745780  93.8170580
  69.4815330  66.9786690  97.8223620  70.0774400  66.6571260  97.1458040
  69.7393480  66.5058510  98.6136890  55.7813530  50.2385000 103.8061060
  55.4328350  50.6948820 104.5719240  55.4501230  49.3442130 103.8883490
  61.0883930  64.9664190 103.5723970  60.8475290  65.2338750 102.6854490
  62.0286570  65.1369920 103.6274830  72.3488090  66.9858570 104.3734610
  71.8546370  67.3827440 103.6561740  71.7401380  66.3607780 104.7671890
  66.6720950  49.6499080 103.2942060  65.7980790  49.9834190 103.0914990
  66.5631700  49.1772260 104.1193930  67.5792930  51.8569950 104.6783780
  67.2506290  51.0421710 104.2985510  68.5275230  51.8139760 104.5549470
  70.0327540  67.6281990 101.6521350  69.5730510  68.3797800 101.2779370
  69.4040000  66.9088460 101.5936150  56.8578160  63.7225230 104.0420070
  56.1312220  63.1030520 103.9746020  56.9187310  64.1165840 103.1718150
  60.4623260  65.9370230 100.8269480  60.9788280  65.3257590 100.3017740
  61.1120640  66.4399010 101.3180490  63.2018760  66.8278720 101.6538460
  63.4896570  66.5733020 100.7771470  63.7141980  66.2756080 102.2444030
  64.4195770  50.5668920 102.2334970  63.6367560  51.0414420 102.5131730
  64.1258700  49.6623750 102.1248150  68.9716840  51.2692020 100.2784060
  69.4124930  51.2137120  99.4305660  68.7024430  52.1850030 100.3494240
  70.8355410  50.9007260  98.2892880  70.7743810  49.9568480  98.1423900
  71.6147440  51.0087350  98.8346340  55.1408160  67.0399620  97.2516830
  54.9730200  66.4070300  97.9498720  54.2742670  67.2459020  96.9011020
  55.7636180  50.8716400  94.7548690  56.5215540  50.9845280  94.1812720
  55.3013350  51.7085600  94.7092120  62.3049990  52.9855670  97.7451000
  61.4924500  52.6112560  97.4046880  62.8091630  52.2300750  98.0472190
  66.8074970  49.6498120  98.9834070  67.4104340  50.2218330  99.4582590
  66.0667960  50.2137560  98.7607970  69.9509570  50.0519680  94.2574350
  70.1460200  50.9503130  94.5241780  69.1639440  49.8206760  94.7507300
  56.7470860  65.7332850  94.6966970  56.2218480  66.1140880  93.9928930
  56.6715440  66.3583620  95.4176680  58.1361330  51.3980450  93.2950660
  58.6654090  50.6110250  93.1658610  58.7689650  52.0771640  93.5286190
  60.3299170  51.1355590  96.3496050  59.7001910  50.4342900  96.5166180
  59.7904310  51.8959720  96.1329210  71.5036180  67.2920390  96.0180910
  71.6788370  66.6058130  95.3741830  70.8057750  67.8167440  95.6257580
  59.3463830  67.6815230  93.5716220  60.0782650  67.3974510  93.0240110
  59.6057500  67.4428510  94.4615600  58.5078620  63.7979960  93.5762550
  57.8787500  64.2665060  94.1248380  58.6226450  62.9529180  94.0108740
  64.0946380  59.6264640  81.6073020  63.3188480  59.1465080  81.8971590
  64.7459310  58.9470290  81.4329180  58.1112210  59.9384450  82.4848780
  57.2797090  59.6833160  82.8845290  58.7193190  60.0095220  83.2206700
  58.0913470  63.9724540  82.6806800  58.3941510  63.0822280  82.5017020
  58.8357060  64.5294760  82.4529050  56.5204160  54.8986340  76.2691170
  55.6320860  55.2402310  76.1671050  56.8045350  54.6986660  75.3772000
  54.4837170  57.4991990  82.1530870  55.0553280  56.7314190  82.1534510
  54.4838710  57.7980750  81.2437480  63.5355370  62.3021830  81.6143180
  63.4663650  61.3611770  81.4532310  64.2975230  62.3923240  82.1865750
  55.7262040  52.9076350  83.9399800  55.5464880  52.0102100  84.2202560
  55.3242120  53.4548220  84.6146750  64.5660540  55.1092210  81.8412110
  64.9425360  54.2364090  81.7285780  64.4680050  55.4450910  80.9502550
  56.3448710  55.4036850  82.5482140  57.0258820  55.6675220  83.1669540
  56.0296760  54.5637720  82.8820150  60.5373280  56.4504210  81.6354730
  61.0451500  56.9485180  82.2759750  61.0686520  55.6739410  81.4594090
  72.6384210  54.6209400  85.3384080  71.9336380  55.0091110  84.8199190
  72.9042130  55.3159690  85.9405010  58.8209380  51.0902770  85.9018150
  58.8227820  51.6075160  85.0964050  57.9913690  50.6132950  85.8788080
  60.0712230  60.7297950  84.0791650  59.7381610  61.3566870  84.7212720
  60.2478910  61.2559830  83.2993320  58.5024710  52.8012730  83.9088600
  58.8441520  53.6454780  83.6142470  57.5640520  52.9496470  84.0253940
  59.2831330  62.6978750  85.8940830  59.9005330  63.3729830  85.6125280
  58.4224450  63.1066730  85.8028330  54.5763670  61.8878610  74.7747680
  54.1991650  62.3765710  74.0432580  54.8336740  62.5603890  75.4054210
  71.6533060  53.9897820  81.9377200  70.7057970  54.0236800  82.0692630
  71.9783050  54.8036770  82.3226560  67.1353100  60.9092130  83.8523260
  67.5521890  60.6952240  83.0176720  67.8592920  61.1664920  84.4231880
  68.0457210  56.0948670  84.8894370  67.6328390  56.9202380  85.1434360
  67.3133160  55.5093710  84.6970730  60.1790000  58.8808570  79.7513040
  59.7747000  58.1685820  79.2558940  60.2653120  58.5361810  80.6401080
  60.6471700  62.5676130  81.9152250  60.3499990  61.9621600  81.2360030
  61.5971520  62.6053440  81.8041610  58.8918620  55.6551780  83.5312080
  59.4433210  55.7647120  82.7565330  59.4062130  56.0289380  84.2467310
  59.7390130  62.3057820  88.5660050  58.8418660  62.5297790  88.8133450
  59.7643000  62.4292760  87.6171450  58.5661350  59.1771140  87.1417420
  58.4269120  60.0493940  87.5104820  57.6842710  58.8343950  86.9965360
  60.3641700  65.1192840  89.3502570  60.3357130  65.5235790  88.4831000
  60.2006670  64.1903200  89.1874170  56.8794630  57.7753550  77.2519690
  56.7592230  58.5015640  76.6400960  56.5695520  57.0056460  76.7747600
  72.3156520  65.9019940  90.6466740  72.7916240  66.3802830  91.3255820
  72.9363680  65.8337430  89.9212240  54.5180000  60.9468690  83.0588330
  54.5960420  61.0817460  82.1144050  55.1321680  60.2384580  83.2516450
  55.7627630  62.6468880  79.4694510  55.3555710  62.7883470  78.6148110
  56.6540640  62.3629040  79.2665720  65.5806510  66.7960790  86.3761560
  66.0951180  66.7068800  87.1783990  64.7375590  67.1420490  86.6689470
  60.0349290  66.8614660  77.5817180  59.8591770  65.9450200  77.3684980
  59.1805030  67.2201950  77.8214980  71.5713780  55.1465250  88.7716490
  70.9558050  55.6544920  88.2431950  71.2510200  54.2463580  88.7142430
  54.5739520  61.9882860  85.5982790  54.7370560  61.5188220  84.7802160
  55.0391970  61.4806420  86.2631630  59.3458290  51.1188620  80.6343360
  58.9026440  51.8998160  80.3027880  59.9043280  51.4418510  81.3414300
  63.6328100  53.9857140  86.2378680  63.1707470  54.1940160  87.0498620
  63.2306210  53.1716490  85.9349350  68.6332610  55.2066090  87.3675340
  67.7826200  54.9071840  87.6884410  68.4734400  55.4508100  86.4559160
  65.7282320  56.7067840  89.4674130  66.0535730  55.8731590  89.1276360
  66.5162650  57.2296360  89.6152460  61.3834190  51.6635950  82.4932960
  61.6806520  52.5698780  82.4124980  61.9319750  51.1754730  81.8792530
  59.1372510  56.2422190  78.3624610  58.9113430  56.0259360  79.2671230
  58.3565040  56.6750650  78.0170580  61.5771720  57.1407770  89.0284880
  61.4815320  56.2002500  88.8785280  62.4203700  57.3622840  88.6332950
  56.7082260  53.5521440  87.1818660  56.3145650  54.3996650  87.3891440
  56.0200660  52.9147810  87.3727300  63.2827310  53.6356410  90.2515400
  62.5925630  53.4428610  90.8861490  64.0259610  53.9191050  90.7839700
  54.1969540  55.4170020  72.4251460  54.1144210  56.3600780  72.5666450
  53.8452600  55.2744930  71.5463810  65.5590280  57.4754850  83.0869320
  64.8271400  57.9841660  83.4359420  65.1614620  56.6584830  82.7858100
  61.9967670  54.1509050  81.4921810  62.0003730  53.7099000  80.6426350
  62.8918790  54.4726380  81.5993630  57.8470050  54.0335540  80.4516020
  57.5070100  54.5110770  81.2083070  57.0847370  53.5800660  80.0917120
  66.0216190  52.9288530  82.4992260  66.0388930  53.3797180  83.3434110
  65.7731770  52.0294170  82.7125700  69.4486940  50.3420710  88.3378640
  69.7732710  49.6110370  88.8636620  69.4843450  50.0234350  87.4359630
  56.1478500  61.3634290  87.7578600  55.7633290  60.7227960  88.3561560
  56.4590690  62.0670410  88.3273330  62.2975640  58.2110830  83.2387220
  62.6645770  57.7369400  83.9848560  62.1080700  59.0852400  83.5795560
  60.0875010  57.2519470  85.5571430  59.7832080  58.1311450  85.7821790
  61.0421470  57.3119260  85.5928870  58.6156800  61.4580460  76.1538280
  57.8419060  60.9178080  75.9937000  59.3451430  60.9387070  75.8156040
  64.7563580  60.5254880  87.8333670  64.6900890  59.6050550  87.5791260
  64.1268720  60.6230320  88.5478310  58.6594200  61.1260840  79.7917090
  59.1772870  60.3229100  79.7373980  58.2078220  61.0639980  80.6333920
  63.5463700  62.3927120  75.0644390  63.8879400  63.1369350  74.5687710
  62.7176410  62.7058240  75.4269220  56.1438740  58.0922210  86.7042790
  55.7853680  58.7576060  87.2916130  55.8493300  57.2605760  87.0755410
  59.3451860  58.5506450  89.5882340  59.0452000  58.6963630  88.6910160
  60.1163100  57.9911740  89.4955730  64.6880310  63.3475450  87.5837470
  64.7024850  62.4156410  87.3656380  63.9805410  63.4335210  88.2227240
  69.8217380  57.5315270  73.8536080  69.7381100  57.9629490  73.0032520
  70.5411570  57.9913620  74.2862900  62.5154390  62.4740650  77.8360310
  63.2025520  63.0209860  78.2167900  61.7286810  63.0181380  77.8709920
  54.6546790  58.0913470  73.3277390  55.5241640  58.3738270  73.6113310
  54.1637110  58.9049340  73.2126200  64.1214210  64.9893020  84.6777970
  64.7656430  65.1952400  85.3551390  64.4843650  64.2281420  84.2248820
  67.1683910  63.7920270  86.5991480  67.5040150  64.3786960  87.2769400
  66.2484250  63.6612980  86.8289270  55.0218040  67.3040850  73.8939020
  55.3815680  67.9030190  73.2396290  54.8810380  67.8500740  74.6674050
  54.7187310  51.5815450  87.3814890  54.0045830  51.7812370  87.9867500
  55.1382350  50.8055020  87.7529690  55.0059900  65.5695710  88.3681420
  55.1151020  64.6290450  88.2276810  54.3540460  65.8350460  87.7195150
  62.9972490  63.8411600  89.7679540  62.6769360  63.1220840  90.3125230
  62.3230850  64.5166670  89.8415600  56.6393300  59.9086940  75.4559450
  56.0321250  60.6485840  75.4654750  57.1142650  59.9986300  74.6297650
  66.2126090  54.0737760  85.1316340  66.5806910  53.2532970  85.4595910
  65.3524290  54.1339650  85.5471990  63.1728080  56.7277350  85.3554310
  63.6713330  57.2023170  86.0206160  63.3151030  55.8040870  85.5624340
  62.6664370  67.2686610  78.0685550  62.9205870  67.2308000  77.1464920
  61.7176850  67.1419940  78.0613800  70.3794940  52.9445310  86.1982700
  69.8768540  53.6850710  86.5376510  71.1951600  53.3329310  85.8819490
  58.1460060  67.4518550  80.9915450  58.8822540  66.9034010  81.2624020
  58.5300980  68.3174560  80.8521440  55.0305540  63.5192120  76.8656960
  54.1045320  63.7613260  76.8562370  55.4961970  64.3466380  76.7441710
  57.1518340  66.6364620  90.1801030  57.9531070  66.9576670  90.5936430
  56.6370160  66.2760200  90.9020940  65.9882970  62.7444490  90.1276440
  65.3821130  62.7676090  89.3872190  65.6837080  62.0127530  90.6643690
  67.4183340  66.4724780  88.7385850  68.3705090  66.3882800  88.6886090
  67.2711560  67.1366490  89.4119640  54.8716150  59.1238080  89.1237080
  55.3755170  58.5445360  89.6953310  54.1323570  59.4078310  89.6613450
  61.9254090  60.5309070  88.6572600  61.1599760  61.0994070  88.5727270
  62.1070050  60.2385280  87.7640830  69.0677440  62.2614400  89.2147620
  69.8086910  62.5990160  88.7115080  68.3050120  62.4306460  88.6617390
  56.9039230  57.2667670  90.0187150  56.9444570  56.9681540  90.9272380
  57.7584730  57.6675280  89.8594670  58.8445040  55.8459770  87.9861640
  58.3141500  55.3550720  87.3584980  59.5133110  56.2743970  87.4519570
  67.7423100  60.3129230  87.7502830  68.1564120  60.4674310  88.5993250
  66.8074100  60.4384450  87.9128610  68.2145270  57.6525390  89.7541980
  68.7966040  56.8977710  89.6662460  68.3907040  58.1832830  88.9773460
  59.3317340  52.8122140  88.0658930  59.2374210  52.1942890  87.3409800
  58.7514730  53.5388430  87.8388840  62.0978780  51.3695380  85.0986320
  61.6496080  51.3919640  84.2531870  61.4643980  50.9714400  85.6956620
  62.5038330  60.2649710  85.7198760  62.9226440  61.1082440  85.5475000
  61.5846960  60.4021750  85.4905540  64.8402230  57.9965890  87.1036600
  64.9598440  57.4007030  87.8431440  65.6996230  58.0335580  86.6837900
  67.1790130  58.5503080  85.6799110  66.6525350  59.0745700  85.0764250
  67.5221470  59.1830470  86.3108840  60.3545750  66.5702720  86.8356490
  59.8166840  67.2948780  86.5165190  60.6079710  66.0933060  86.0453830
  61.6071000  54.5387240  88.3612420  62.1970690  54.2303090  89.0490240
  60.7891240  54.0666990  88.5172320  66.4264430  54.1553050  88.5945440
  65.7379950  53.4934590  88.5295430  67.1470450  53.7091320  89.0393900
  63.2107960  67.8053930  87.0943140  63.1366660  68.7089070  87.4015510
  62.3086800  67.4865830  87.0665210  54.6135250  65.1328520  80.3976760
  54.9438260  64.2649580  80.1655400  55.0426250  65.3387040  81.2281720
  59.2097170  63.4637530  78.0578730  58.9092710  63.3402500  78.9582640
  59.1034660  62.6046120  77.6494460  55.1025460  65.9999110  83.1358390
  54.6656450  66.1799910  83.9682540  55.6703140  66.7573730  82.9940110
  70.7387640  65.5016110  87.4235700  70.1389630  65.5608670  86.6799620
  70.8681540  64.5621090  87.5532550  54.9349890  58.5119340  79.4947270
  54.2798730  58.2430980  78.8506970  55.7727840  58.4023820  79.0449250
  55.9725820  58.8971910  84.0350610  56.3398860  58.8099310  84.9146630
  55.4036640  58.1338460  83.9357470  70.7729680  57.3656290  87.0481080
  70.5415770  57.1369040  86.1479030  71.0334230  58.2855840  87.0025970
  55.5241820  55.8081000  87.9409030  54.6297870  55.7747760  88.2802740
  56.0639370  56.0067790  88.7060280  69.2117750  52.5912720  89.8260780
  70.0887930  52.5996120  90.2094780  69.2238590  51.8543560  89.2153130
  54.1487970  55.7218270  75.4372600  53.2452050  55.9848470  75.2624260
  54.6328590  55.9929440  74.6572560  70.8370740  56.5282130  84.2368350
  69.8873450  56.4945670  84.3513340  71.0183750  57.4382240  84.0018120
  56.6915180  54.7783810  73.3466980  57.4006880  54.3567030  72.8614260
  55.9755120  54.8459040  72.7150330  56.3389340  50.8323140  72.3869630
  57.0617470  51.3732080  72.7050850  56.6113860  50.5586560  71.5111170
  56.0281530  50.0829330  82.2892250  56.6757720  49.5326710  81.8487410
  56.4483370  50.3372480  83.1108060  69.9233870  50.2770690  85.6461890
  70.5606090  50.8904830  86.0121080  70.0708760  50.3131350  84.7011120
  55.7813530  50.2385000  85.0317570  55.4328350  50.6948820  85.7975750
  55.4501230  49.3442130  85.1140000  57.3877900  63.4104600  89.1970760
  57.3447530  63.0397510  90.0785220  57.5188910  64.3482170  89.3372580
  61.0883930  64.9664190  84.7980480  60.8475290  65.2338750  83.9111000
  62.0286570  65.1369920  84.8531340  63.2938350  51.4296880  88.5536990
  63.2327240  52.0218710  89.3032400  64.2338730  51.3222840  88.4087250
  65.9312910  51.0866940  88.1929280  66.5453320  51.4046230  87.5310360
  66.4762470  50.6015530  88.8125140  56.4534170  49.7661200  88.3068340
  57.0017160  49.5849250  87.5434450  56.5189480  48.9755310  88.8424650
  57.2265930  66.3566850  86.3168540  56.6326250  66.2251550  87.0558580
  57.2189770  65.5204990  85.8510640  66.6720950  49.6499080  84.5198570
  65.7980790  49.9834190  84.3171500  66.5631700  49.1772260  85.3450440
  67.5792930  51.8569950  85.9040290  67.2506290  51.0421710  85.5242020
  68.5275230  51.8139760  85.7805980  56.8578160  63.7225230  85.2676580
  56.1312220  63.1030520  85.2002530  56.9187310  64.1165840  84.3974660
  60.4623260  65.9370230  82.0525990  60.9788280  65.3257590  81.5274250
  61.1120640  66.4399010  82.5437000  63.2018760  66.8278720  82.8794970
  63.4896570  66.5733020  82.0027980  63.7141980  66.2756080  83.4700540
  55.1408160  67.0399620  78.4773340  54.9730200  66.4070300  79.1755230
  54.2742670  67.2459020  78.1267530  56.7470860  65.7332850  75.9223480
  56.2218480  66.1140880  75.2185440  56.6715440  66.3583620  76.6433190
  60.3299170  51.1355590  77.5752560  59.7001910  50.4342900  77.7422690
  59.7904310  51.8959720  77.3585720  63.2691120  67.7494820  90.2463170
  64.1958430  67.5139090  90.2899130  63.2541550  68.5766820  89.7649200
  60.4554730  50.4139570  90.0105050  60.1739000  50.9173170  89.2465870
  60.8374430  49.6161320  89.6447180  59.3463830  67.6815230  74.7972730
  60.0782650  67.3974510  74.2496620  59.6057500  67.4428510  75.6872110
  67.0570190  49.8293150  90.5885520  66.9435640  50.1487760  91.4837040
  67.8739930  50.2305660  90.2922800  69.8368680  66.9764680  90.0704210
  70.6294000  66.4813910  89.8630170  70.1301830  67.6554820  90.6779820
  64.0946380  59.6264640  62.8329530  63.3188480  59.1465080  63.1228100
  64.7459310  58.9470290  62.6585690  64.5733360  58.3543830  58.1949820
  63.6462640  58.2881210  58.4238290  64.7258180  59.2923960  58.0805060
  64.5602440  54.6260830  55.1916980  63.6206110  54.7874790  55.2769440
  64.8785700  55.3446510  54.6452970  60.1790000  58.8808570  60.9769550
  59.7747000  58.1685820  60.4815450  60.2653120  58.5361810  61.8657590
  66.7795350  59.1550940  55.7057820  67.2188630  58.3173370  55.5595640
  67.4923770  59.7880340  55.7921960  67.2587040  64.5903690  55.5900070
  66.5652200  64.5880980  54.9302350  68.0009900  64.1663010  55.1594240
  59.1372510  56.2422190  59.5881120  58.9113430  56.0259360  60.4927740
  58.3565040  56.6750650  59.2427090  62.0587820  55.1521130  55.7085080
  62.1800640  55.1107610  56.6570900  61.6736330  56.0145280  55.5531810
  61.0709320  57.4622270  55.1068380  60.5026220  57.0140520  54.4804290
  61.7798320  57.8215050  54.5733530  67.5503110  56.2203430  55.6112730
  68.4382730  56.5320660  55.4364070  67.5208200  55.3475680  55.2193310
  69.8217380  57.5315270  55.0792590  69.7381100  57.9629490  54.2289030
  70.5411570  57.9913620  55.5119410  66.4291110  61.7142960  61.6546410
  66.7814930  61.1171090  60.9947780  65.5453440  61.3887190  61.8254660
  61.8181600  59.4786680  58.6742180  62.2744380  60.2891930  58.9002370
  61.4669810  59.1609820  59.5060670  69.2402010  63.2773990  54.3451070
  69.0139590  62.5604430  54.9375710  68.8498210  63.0286430  53.5072820
  68.8218260  61.1945930  56.0065230  68.5339960  61.6558620  56.7943110
  69.6170430  60.7343700  56.2749450  61.0386660  64.6872050  55.9369200
  61.0296760  65.4201740  55.3213710  60.1185020  64.4403630  56.0296160
  64.0246260  64.7500290  54.5994390  64.1258240  64.5464280  53.6696370
  63.1248000  64.4958570  54.8042170  61.5472150  55.3080650  58.5818290
  60.8388300  55.7766990  59.0231900  61.8316630  54.6502660  59.2163480
  59.7507170  53.6165730  55.9569000  60.5997700  54.0535880  55.8909190
  59.3838440  53.9285990  56.7841060  61.7739770  61.8452270  53.9039880
  61.6690410  61.2304620  54.6301260  61.6063990  61.3218160  53.1202890
  65.0142500  60.9072300  54.5081870  64.4652600  61.3541600  55.1524610
  65.6361760  60.4021550  55.0319540  56.9039230  57.2667670  71.2443660
  56.9444570  56.9681540  72.1528890  57.7584730  57.6675280  71.0851180
  60.6817620  59.8663220  56.4047170  61.1034040  59.7003090  57.2478560
  60.8068460  59.0563450  55.9102310  63.1945260  58.8900830  53.6524270
  63.7150920  58.1749850  53.2865420  63.8413660  59.5286700  53.9524780
  67.7423100  60.3129230  68.9759340  68.1564120  60.4674310  69.8249760
  66.8074100  60.4384450  69.1385120  59.5776520  55.9396450  53.3505330
  59.3765580  55.0763810  53.7118670  59.4068570  55.8529810  52.4126930
  71.4345550  59.9881410  56.4896120  72.1964460  60.5578060  56.5955810
  71.4499920  59.4208610  57.2604430  71.4864720  60.2815780  53.6468640
  71.7613560  61.1894660  53.5187860  71.2975460  60.2178310  54.5830630
  71.3830060  58.2184770  58.6398070  71.0073660  57.4512700  58.2079360
  70.6533180  58.6007470  59.1273000  56.6915180  54.7783810  54.5723490
  57.4006880  54.3567030  54.0870770  55.9755120  54.8459040  53.9406840
  70.8355410  50.9007260  60.7405900  70.7743810  49.9568480  60.5936920
  71.6147440  51.0087350  61.2859360  60.3299170  51.1355590  58.8009070
  59.7001910  50.4342900  58.9679200  59.7904310  51.8959720  58.5842230
  65.9628340  57.8485620  42.1776770  65.8822390  56.9340230  41.9068480
  65.5492760  58.3452690  41.4716480  64.0946380  59.6264640  44.0586040
  63.3188480  59.1465080  44.3484610  64.7459310  58.9470290  43.8842200
  58.1112210  59.9384450  44.9361800  57.2797090  59.6833160  45.3358310
  58.7193190  60.0095220  45.6719720  68.1153810  64.0324830  42.8385170
  67.6535340  63.2612070  43.1672340  68.9279360  64.0590900  43.3437620
  58.0913470  63.9724540  45.1319820  58.3941510  63.0822280  44.9530040
  58.8357060  64.5294760  44.9042070  64.3417120  66.3182840  42.4589160
  63.7228560  66.7740340  41.8883600  65.1968900  66.4734300  42.0578860
  63.5355370  62.3021830  44.0656200  63.4663650  61.3611770  43.9045330
  64.2975230  62.3923240  44.6378770  64.5660540  55.1092210  44.2925130
  64.9425360  54.2364090  44.1798800  64.4680050  55.4450910  43.4015570
  68.3484660  52.6042650  41.2253470  69.1694280  52.1139220  41.2678950
  68.3818740  53.1940310  41.9785310  72.6384210  54.6209400  47.7897100
  71.9336380  55.0091110  47.2712210  72.9042130  55.3159690  48.3918030
  65.2080470  61.2022080  39.8521070  64.5897740  61.6671530  39.2883790
  65.7203720  61.8949560  40.2690580  60.0712230  60.7297950  46.5304670
  59.7381610  61.3566870  47.1725740  60.2478910  61.2559830  45.7506340
  68.5846140  54.5443030  43.9981010  67.8801710  54.8327920  44.5784120
  68.9458300  55.3543140  43.6380570  59.2831330  62.6978750  48.3453850
  59.9005330  63.3729830  48.0638300  58.4224450  63.1066730  48.2541350
  54.5763670  61.8878610  37.2260700  54.1991650  62.3765710  36.4945600
  54.8336740  62.5603890  37.8567230  70.2008920  64.1618160  46.2608490
  69.5172440  64.8317270  46.2525160  70.7403210  64.3598810  45.4953350
  71.6533060  53.9897820  44.3890220  70.7057970  54.0236800  44.5205650
  71.9783050  54.8036770  44.7739580  67.7367660  66.0062290  44.9753670
  67.7494820  65.6024580  44.1075930  67.1842880  66.7809580  44.8715100
  69.0313080  62.7278510  40.0643840  68.9209410  61.7852840  40.1893260
  69.0281330  63.0894150  40.9506600  67.1353100  60.9092130  46.3036280
  67.5521890  60.6952240  45.4689740  67.8592920  61.1664920  46.8744900
  64.5733360  58.3543830  39.4206330  63.6462640  58.2881210  39.6494800
  64.7258180  59.2923960  39.3061570  64.5602440  54.6260830  36.4173490
  63.6206110  54.7874790  36.5025950  64.8785700  55.3446510  35.8709480
  71.0815200  59.3079350  46.3952520  70.2533830  59.3772440  45.9202650
  71.6765680  59.8933660  45.9268350  68.6030650  59.9164130  39.9241580
  67.9843070  59.5783680  39.2767880  68.5855100  59.2723890  40.6320770
  68.0457210  56.0948670  47.3407390  67.6328390  56.9202380  47.5947380
  67.3133160  55.5093710  47.1483750  60.1790000  58.8808570  42.2026060
  59.7747000  58.1685820  41.7071960  60.2653120  58.5361810  43.0914100
  60.6471700  62.5676130  44.3665270  60.3499990  61.9621600  43.6873050
  61.5971520  62.6053440  44.2554630  68.7357310  66.1408000  48.0288370
  68.2587870  66.9480190  47.8360980  68.0519100  65.4886330  48.1814580
  59.7390130  62.3057820  51.0173070  58.8418660  62.5297790  51.2646470
  59.7643000  62.4292760  50.0684470  66.7795350  59.1550940  36.9314330
  67.2188630  58.3173370  36.7852150  67.4923770  59.7880340  37.0178470
  58.5661350  59.1771140  49.5930440  58.4269120  60.0493940  49.9617840
  57.6842710  58.8343950  49.4478380  64.8890730  64.0947010  40.8995570
  65.3286640  64.8371340  40.4850960  64.8277620  64.3373580  41.8234530
  60.3641700  65.1192840  51.8015590  60.3357130  65.5235790  50.9344020
  60.2006670  64.1903200  51.6387190  70.3612490  50.4093750  35.2455370
  70.0485150  50.5020580  36.1454440  71.1224960  50.9874780  35.1952800
  54.5180000  60.9468690  45.5101350  54.5960420  61.0817460  44.5657070
  55.1321680  60.2384580  45.7029470  55.7627630  62.6468880  41.9207530
  55.3555710  62.7883470  41.0661130  56.6540640  62.3629040  41.7178740
  71.7189770  63.0932790  50.2579770  71.8452830  62.8544670  49.3396950
  71.7611150  62.2617330  50.7301850  65.5806510  66.7960790  48.8274580
  66.0951180  66.7068800  49.6297010  64.7375590  67.1420490  49.1202490
  67.5560910  67.0816130  38.2558580  67.3962050  66.7919070  39.1540410
  67.3907620  66.3056260  37.7203810  60.0349290  66.8614660  40.0330200
  59.8591770  65.9450200  39.8198000  59.1805030  67.2201950  40.2728000
  67.2587040  64.5903690  36.8156580  66.5652200  64.5880980  36.1558860
  68.0009900  64.1663010  36.3850750  66.8236970  66.2166400  40.8905070
  67.2793920  65.4355780  41.2043690  67.1629490  66.9273220  41.4346250
  71.5713780  55.1465250  51.2229510  70.9558050  55.6544920  50.6944970
  71.2510200  54.2463580  51.1655450  54.5739520  61.9882860  48.0495810
  54.7370560  61.5188220  47.2315180  55.0391970  61.4806420  48.7144650
  63.6328100  53.9857140  48.6891700  63.1707470  54.1940160  49.5011640
  63.2306210  53.1716490  48.3862370  68.6332610  55.2066090  49.8188360
  67.7826200  54.9071840  50.1397430  68.4734400  55.4508100  48.9072180
  65.7282320  56.7067840  51.9187150  66.0535730  55.8731590  51.5789380
  66.5162650  57.2296360  52.0665480  66.3670270  56.2485560  39.4128280
  65.7679160  56.9721360  39.2291900  66.9149880  56.1862340  38.6304730
  61.5771720  57.1407770  51.4797900  61.4815320  56.2002500  51.3298300
  62.4203700  57.3622840  51.0845970  64.9735140  54.8849100  41.4431560
  65.3664710  55.2021300  40.6300250  65.3351990  54.0060980  41.5576080
  63.2827310  53.6356410  52.7028420  62.5925630  53.4428610  53.3374510
  64.0259610  53.9191050  53.2352720  65.5590280  57.4754850  45.5382340
  64.8271400  57.9841660  45.8872440  65.1614620  56.6584830  45.2371120
  62.0587820  55.1521130  36.9341590  62.1800640  55.1107610  37.8827410
  61.6736330  56.0145280  36.7788320  66.0216190  52.9288530  44.9505280
  66.0388930  53.3797180  45.7947130  65.7731770  52.0294170  45.1638720
  61.0709320  57.4622270  36.3324890  60.5026220  57.0140520  35.7060800
  61.7798320  57.8215050  35.7990040  69.4486940  50.3420710  50.7891660
  69.7732710  49.6110370  51.3149640  69.4843450  50.0234350  49.8872650
  56.1478500  61.3634290  50.2091620  55.7633290  60.7227960  50.8074580
  56.4590690  62.0670410  50.7786350  62.2975640  58.2110830  45.6900240
  62.6645770  57.7369400  46.4361580  62.1080700  59.0852400  46.0308580
  58.6156800  61.4580460  38.6051300  57.8419060  60.9178080  38.4450020
  59.3451430  60.9387070  38.2669060  69.3744780  60.4545820  44.3977690
  70.0943900  60.9501110  44.0073800  69.1726600  59.7763710  43.7531560
  64.8354720  51.8483780  38.5407080  64.0219330  51.3496950  38.4652390
  64.6416670  52.6882030  38.1243430  64.7563580  60.5254880  50.2846690
  64.6900890  59.6050550  50.0304280  64.1268720  60.6230320  50.9991330
  67.5503110  56.2203430  36.8369240  68.4382730  56.5320660  36.6620580
  67.5208200  55.3475680  36.4449820  58.6594200  61.1260840  42.2430110
  59.1772870  60.3229100  42.1887000  58.2078220  61.0639980  43.0846940
  63.5463700  62.3927120  37.5157410  63.8879400  63.1369350  37.0200730
  62.7176410  62.7058240  37.8782240  59.3451860  58.5506450  52.0395360
  59.0452000  58.6963630  51.1423180  60.1163100  57.9911740  51.9468750
  64.6880310  63.3475450  50.0350490  64.7024850  62.4156410  49.8169400
  63.9805410  63.4335210  50.6740260  69.8217380  57.5315270  36.3049100
  69.7381100  57.9629490  35.4545540  70.5411570  57.9913620  36.7375920
  70.8991520  59.9882790  49.3819070  70.1739710  60.5811570  49.1848460
  71.4266980  59.9806330  48.5832440  70.8504630  64.3857530  39.0331230
  70.2080790  63.7313150  39.3074950  70.4635290  64.7912620  38.2571900
  66.4291110  61.7142960  42.8802920  66.7814930  61.1171090  42.2204290
  65.5453440  61.3887190  43.0511170  62.5154390  62.4740650  40.2873330
  63.2025520  63.0209860  40.6680920  61.7286810  63.0181380  40.3222940
  54.6546790  58.0913470  35.7790410  55.5241640  58.3738270  36.0626330
  54.1637110  58.9049340  35.6639220  61.8181600  59.4786680  39.8998690
  62.2744380  60.2891930  40.1258880  61.4669810  59.1609820  40.7317180
  64.1214210  64.9893020  47.1290990  64.7656430  65.1952400  47.8064410
  64.4843650  64.2281420  46.6761840  65.3946290  62.9925370  45.8468440
  66.0368520  62.2918530  45.9600610  65.9195640  63.7723810  45.6665330
  69.2402010  63.2773990  35.5707580  69.0139590  62.5604430  36.1632220
  68.8498210  63.0286430  34.7329330  67.1683910  63.7920270  49.0504500
  67.5040150  64.3786960  49.7282420  66.2484250  63.6612980  49.2802290
  55.0218040  67.3040850  36.3452040  55.3815680  67.9030190  35.6909310
  54.8810380  67.8500740  37.1187070  68.8218260  61.1945930  37.2321740
  68.5339960  61.6558620  38.0199620  69.6170430  60.7343700  37.5005960
  62.9972490  63.8411600  52.2192560  62.6769360  63.1220840  52.7638250
  62.3230850  64.5166670  52.2928620  61.0386660  64.6872050  37.1625710
  61.0296760  65.4201740  36.5470220  60.1185020  64.4403630  37.2552670
  56.6393300  59.9086940  37.9072470  56.0321250  60.6485840  37.9167770
  57.1142650  59.9986300  37.0810670  66.2126090  54.0737760  47.5829360
  66.5806910  53.2532970  47.9108930  65.3524290  54.1339650  47.9985010
  69.5788120  53.0294700  38.3916920  68.9501280  53.1340370  37.6775150
  69.0840040  53.2491480  39.1810800  64.0246260  64.7500290  35.8250900
  64.1258240  64.5464280  34.8952880  63.1248000  64.4958570  36.0298680
  61.5472150  55.3080650  39.8074800  60.8388300  55.7766990  40.2488410
  61.8316630  54.6502660  40.4419990  63.1728080  56.7277350  47.8067330
  63.6713330  57.2023170  48.4719180  63.3151030  55.8040870  48.0137360
  65.5787580  52.0331310  41.2470590  65.4555360  52.0517440  40.2980100
  66.5272140  52.0810250  41.3668990  62.6664370  67.2686610  40.5198570
  62.9205870  67.2308000  39.5977940  61.7176850  67.1419940  40.5126820
  59.7507170  53.6165730  37.1825510  60.5997700  54.0535880  37.1165700
  59.3838440  53.9285990  38.0097570  70.3794940  52.9445310  48.6495720
  69.8768540  53.6850710  48.9889530  71.1951600  53.3329310  48.3332510
  68.6716950  58.1878490  42.0957080  67.7307090  58.2028720  42.2704770
  68.9861020  57.4014450  42.5417380  58.6498590  59.8698090  35.6561040
  59.4161860  59.7579450  36.2186470  58.7273280  59.1736060  35.0037810
  57.3445350  57.3023160  36.3393930  57.4248940  56.3550670  36.4511330
  58.2365100  57.6330040  36.4454590  70.6742530  65.3587340  43.7711340
  70.7989950  66.1818510  44.2435150  71.5408090  65.1478070  43.4235490
  58.1460060  67.4518550  43.4428470  58.8822540  66.9034010  43.7137040
  58.5300980  68.3174560  43.3034460  55.0305540  63.5192120  39.3169980
  54.1045320  63.7613260  39.3075390  55.4961970  64.3466380  39.1954730
  61.2562370  66.6248860  35.2654040  62.0490980  66.9137690  34.8135830
  60.7366720  66.1941030  34.5866520  65.9882970  62.7444490  52.5789460
  65.3821130  62.7676090  51.8385210  65.6837080  62.0127530  53.1156710
  67.4183340  66.4724780  51.1898870  68.3705090  66.3882800  51.1399110
  67.2711560  67.1366490  51.8632660  70.3092540  65.8518990  36.6890780
  70.0234050  65.4384130  35.8744960  70.1112090  66.7806700  36.5691300
  61.7739770  61.8452270  35.1296390  61.6690410  61.2304620  35.8557770
  61.6063990  61.3218160  34.3459400  61.9254090  60.5309070  51.1085620
  61.1599760  61.0994070  51.0240290  62.1070050  60.2385280  50.2153850
  65.0142500  60.9072300  35.7338380  64.4652600  61.3541600  36.3781120
  65.6361760  60.4021550  36.2576050  69.0677440  62.2614400  51.6660640
  69.8086910  62.5990160  51.1628100  68.3050120  62.4306460  51.1130410
  60.6817620  59.8663220  37.6303680  61.1034040  59.7003090  38.4735070
  60.8068460  59.0563450  37.1358820  63.1945260  58.8900830  34.8780780
  63.7150920  58.1749850  34.5121930  63.8413660  59.5286700  35.1781290
  67.7423100  60.3129230  50.2015850  68.1564120  60.4674310  51.0506270
  66.8074100  60.4384450  50.3641630  68.2145270  57.6525390  52.2055000
  68.7966040  56.8977710  52.1175480  68.3907040  58.1832830  51.4286480
  62.5038330  60.2649710  48.1711780  62.9226440  61.1082440  47.9988020
  61.5846960  60.4021750  47.9418560  64.8402230  57.9965890  49.5549620
  64.9598440  57.4007030  50.2944460  65.6996230  58.0335580  49.1350920
  67.1790130  58.5503080  48.1312130  66.6525350  59.0745700  47.5277270
  67.5221470  59.1830470  48.7621860  59.5776520  55.9396450  34.5761840
  59.3765580  55.0763810  34.9375180  59.4068570  55.8529810  33.6383440
  60.3545750  66.5702720  49.2869510  59.8166840  67.2948780  48.9678210
  60.6079710  66.0933060  48.4966850  61.6071000  54.5387240  50.8125440
  62.1970690  54.2303090  51.5003260  60.7891240  54.0666990  50.9685340
  66.4264430  54.1553050  51.0458460  65.7379950  53.4934590  50.9808450
  67.1470450  53.7091320  51.4906920  67.0564830  50.7504680  37.1048720
  67.3367120  49.9072580  37.4608140  66.2830560  50.9827790  37.6187470
  58.3759320  53.0397070  34.5639720  58.6785220  53.0464500  33.6558870
  59.1153910  52.6894930  35.0607380  63.2107960  67.8053930  49.5456160
  63.1366660  68.7089070  49.8528530  62.3086800  67.4865830  49.5178230
  61.5944250  51.9831690  35.5495920  61.2466250  51.3055680  34.9698370
  61.7957020  51.5221200  36.3639310  63.7593290  66.9712440  37.1682520
  64.6544080  67.3097410  37.1901280  63.7910920  66.2491850  36.5406800
  57.3989450  62.3439490  35.3969520  57.8364320  62.8869160  36.0527100
  57.8837180  61.5186440  35.4065860  54.6135250  65.1328520  42.8489780
  54.9438260  64.2649580  42.6168420  55.0426250  65.3387040  43.6794740
  59.2097170  63.4637530  40.5091750  58.9092710  63.3402500  41.4095660
  59.1034660  62.6046120  40.1007480  55.1025460  65.9999110  45.5871410
  54.6656450  66.1799910  46.4195560  55.6703140  66.7573730  45.4453130
  70.7387640  65.5016110  49.8748720  70.1389630  65.5608670  49.1312640
  70.8681540  64.5621090  50.0045570  71.9789090  63.2433930  35.2118430
  71.1482050  63.3110580  35.6825660  72.1560920  64.1338050  34.9085290
  71.4345550  59.9881410  37.7152630  72.1964460  60.5578060  37.8212320
  71.4499920  59.4208610  38.4860940  54.9349890  58.5119340  41.9460290
  54.2798730  58.2430980  41.3019990  55.7727840  58.4023820  41.4962270
  72.4405520  60.8431510  42.5594560  72.8114350  60.0598830  42.1530530
  73.0807450  61.5320610  42.3811860  69.4239280  62.2268090  47.9724880
  68.6099120  62.6565250  48.2350670  69.8313480  62.8386500  47.3593930
  71.4864720  60.2815780  34.8725150  71.7613560  61.1894660  34.7444370
  71.2975460  60.2178310  35.8087140  67.8840330  53.3060630  36.1678780
  68.3025210  53.1191610  35.3275440  67.5776390  52.4539680  36.4781710
  71.3830060  58.2184770  39.8654580  71.0073660  57.4512700  39.4335870
  70.6533180  58.6007470  40.3529510  70.7729680  57.3656290  49.4994100
  70.5415770  57.1369040  48.5992050  71.0334230  58.2855840  49.4538990
  69.2117750  52.5912720  52.2773800  70.0887930  52.5996120  52.6607800
  69.2238590  51.8543560  51.6666150  70.6581020  56.4442260  43.1661820
  71.1818500  55.9504910  42.5351990  71.2440440  56.5792620  43.9109390
  70.8370740  56.5282130  46.6881370  69.8873450  56.4945670  46.8026360
  71.0183750  57.4382240  46.4531140  56.6915180  54.7783810  35.7980000
  57.4006880  54.3567030  35.3127280  55.9755120  54.8459040  35.1663350
  70.1480990  55.7015610  39.1054230  70.6440110  55.4686480  39.8903110
  69.9497060  54.8627450  38.6891870  71.5768150  54.3376560  41.6391910
  71.4667430  54.1832600  42.5774180  72.3375740  53.8097500  41.3967320
  69.9233870  50.2770690  48.0974910  70.5606090  50.8904830  48.4634100
  70.0708760  50.3131350  47.1524140  72.4658420  52.1684480  34.8798050
  73.3907730  52.0365660  34.6716340  72.4434210  52.2477300  35.8334500
  72.5396910  52.9395140  37.5054760  71.7448410  52.8740260  38.0347670
  72.7440190  53.8745780  37.4940110  69.4815330  66.9786690  41.4993150
  70.0774400  66.6571260  40.8227570  69.7393480  66.5058510  42.2906420
  57.3877900  63.4104600  51.6483780  57.3447530  63.0397510  52.5298240
  57.5188910  64.3482170  51.7885600  61.0883930  64.9664190  47.2493500
  60.8475290  65.2338750  46.3624020  62.0286570  65.1369920  47.3044360
  63.2938350  51.4296880  51.0050010  63.2327240  52.0218710  51.7545420
  64.2338730  51.3222840  50.8600270  65.9312910  51.0866940  50.6442300
  66.5453320  51.4046230  49.9823380  66.4762470  50.6015530  51.2638160
  72.3488090  66.9858570  48.0504140  71.8546370  67.3827440  47.3331270
  71.7401380  66.3607780  48.4441420  66.6720950  49.6499080  46.9711590
  65.7980790  49.9834190  46.7684520  66.5631700  49.1772260  47.7963460
  67.5792930  51.8569950  48.3553310  67.2506290  51.0421710  47.9755040
  68.5275230  51.8139760  48.2319000  70.0327540  67.6281990  45.3290880
  69.5730510  68.3797800  44.9548900  69.4040000  66.9088460  45.2705680
  56.8578160  63.7225230  47.7189600  56.1312220  63.1030520  47.6515550
  56.9187310  64.1165840  46.8487680  60.4623260  65.9370230  44.5039010
  60.9788280  65.3257590  43.9787270  61.1120640  66.4399010  44.9950020
  63.2018760  66.8278720  45.3307990  63.4896570  66.5733020  44.4541000
  63.7141980  66.2756080  45.9213560  68.9716840  51.2692020  43.9553590
  69.4124930  51.2137120  43.1075190  68.7024430  52.1850030  44.0263770
  70.8355410  50.9007260  41.9662410  70.7743810  49.9568480  41.8193430
  71.6147440  51.0087350  42.5115870  55.1408160  67.0399620  40.9286360
  54.9730200  66.4070300  41.6268250  54.2742670  67.2459020  40.5780550
  62.3049990  52.9855670  41.4220530  61.4924500  52.6112560  41.0816410
  62.8091630  52.2300750  41.7241720  66.8074970  49.6498120  42.6603600
  67.4104340  50.2218330  43.1352120  66.0667960  50.2137560  42.4377500
  69.9509570  50.0519680  37.9343880  70.1460200  50.9503130  38.2011310
  69.1639440  49.8206760  38.4276830  56.7470860  65.7332850  38.3736500
  56.2218480  66.1140880  37.6698460  56.6715440  66.3583620  39.0946210
  58.1361330  51.3980450  36.9720190  58.6654090  50.6110250  36.8428140
  58.7689650  52.0771640  37.2055720  63.2691120  67.7494820  52.6976190
  64.1958430  67.5139090  52.7412150  63.2541550  68.5766820  52.2162220
  71.5036180  67.2920390  39.6950440  71.6788370  66.6058130  39.0511360
  70.8057750  67.8167440  39.3027110  59.3463830  67.6815230  37.2485750
  60.0782650  67.3974510  36.7009640  59.6057500  67.4428510  38.1385130
  58.5078620  63.7979960  37.2532080  57.8787500  64.2665060  37.8017910
  58.6226450  62.9529180  37.6878270  67.0570190  49.8293150  53.0398540
  66.9435640  50.1487760  53.9350060  67.8739930  50.2305660  52.7435820
  69.8368680  66.9764680  52.5217230  70.6294000  66.4813910  52.3143190
  70.1301830  67.6554820  53.1292840  65.9628340  57.8485620  23.4033280
  65.8822390  56.9340230  23.1324990  65.5492760  58.3452690  22.6972990
  64.0946380  59.6264640  25.2842550  63.3188480  59.1465080  25.5741120
  64.7459310  58.9470290  25.1098710  58.1112210  59.9384450  26.1618310
  57.2797090  59.6833160  26.5614820  58.7193190  60.0095220  26.8976230
  68.1153810  64.0324830  24.0641680  67.6535340  63.2612070  24.3928850
  68.9279360  64.0590900  24.5694130  58.0913470  63.9724540  26.3576330
  58.3941510  63.0822280  26.1786550  58.8357060  64.5294760  26.1298580
  56.5204160  54.8986340  19.9460700  55.6320860  55.2402310  19.8440580
  56.8045350  54.6986660  19.0541530  54.4837170  57.4991990  25.8300400
  55.0553280  56.7314190  25.8304040  54.4838710  57.7980750  24.9207010
  64.3417120  66.3182840  23.6845670  63.7228560  66.7740340  23.1140110
  65.1968900  66.4734300  23.2835370  63.5355370  62.3021830  25.2912710
  63.4663650  61.3611770  25.1301840  64.2975230  62.3923240  25.8635280
  55.7262040  52.9076350  27.6169330  55.5464880  52.0102100  27.8972090
  55.3242120  53.4548220  28.2916280  64.5660540  55.1092210  25.5181640
  64.9425360  54.2364090  25.4055310  64.4680050  55.4450910  24.6272080
  58.6965550  53.4817840  20.9799080  58.8032300  54.3821570  21.2867840
  57.7857910  53.4335810  20.6893730  68.3484660  52.6042650  22.4509980
  69.1694280  52.1139220  22.4935460  68.3818740  53.1940310  23.2041820
  56.3448710  55.4036850  26.2251670  57.0258820  55.6675220  26.8439070
  56.0296760  54.5637720  26.5589680  60.5373280  56.4504210  25.3124260
  61.0451500  56.9485180  25.9529280  61.0686520  55.6739410  25.1363620
  72.6384210  54.6209400  29.0153610  71.9336380  55.0091110  28.4968720
  72.9042130  55.3159690  29.6174540  58.8209380  51.0902770  29.5787680
  58.8227820  51.6075160  28.7733580  57.9913690  50.6132950  29.5557610
  65.2080470  61.2022080  21.0777580  64.5897740  61.6671530  20.5140300
  65.7203720  61.8949560  21.4947090  60.0712230  60.7297950  27.7561180
  59.7381610  61.3566870  28.3982250  60.2478910  61.2559830  26.9762850
  68.5846140  54.5443030  25.2237520  67.8801710  54.8327920  25.8040630
  68.9458300  55.3543140  24.8637080  58.5024710  52.8012730  27.5858130
  58.8441520  53.6454780  27.2912000  57.5640520  52.9496470  27.7023470
  59.2831330  62.6978750  29.5710360  59.9005330  63.3729830  29.2894810
  58.4224450  63.1066730  29.4797860  54.5763670  61.8878610  18.4517210
  54.1991650  62.3765710  17.7202110  54.8336740  62.5603890  19.0823740
  70.2008920  64.1618160  27.4865000  69.5172440  64.8317270  27.4781670
  70.7403210  64.3598810  26.7209860  71.6533060  53.9897820  25.6146730
  70.7057970  54.0236800  25.7462160  71.9783050  54.8036770  25.9996090
  62.1852600  50.2895000  23.9102720  62.4927580  49.7341890  23.1938220
  61.2553300  50.4239460  23.7275710  67.7367660  66.0062290  26.2010180
  67.7494820  65.6024580  25.3332440  67.1842880  66.7809580  26.0971610
  69.0313080  62.7278510  21.2900350  68.9209410  61.7852840  21.4149770
  69.0281330  63.0894150  22.1763110  67.1353100  60.9092130  27.5292790
  67.5521890  60.6952240  26.6946250  67.8592920  61.1664920  28.1001410
  64.5733360  58.3543830  20.6462840  63.6462640  58.2881210  20.8751310
  64.7258180  59.2923960  20.5318080  64.5602440  54.6260830  17.6430000
  63.6206110  54.7874790  17.7282460  64.8785700  55.3446510  17.0965990
  71.0815200  59.3079350  27.6209030  70.2533830  59.3772440  27.1459160
  71.6765680  59.8933660  27.1524860  68.6030650  59.9164130  21.1498090
  67.9843070  59.5783680  20.5024390  68.5855100  59.2723890  21.8577280
  68.0457210  56.0948670  28.5663900  67.6328390  56.9202380  28.8203890
  67.3133160  55.5093710  28.3740260  60.1790000  58.8808570  23.4282570
  59.7747000  58.1685820  22.9328470  60.2653120  58.5361810  24.3170610
  60.6471700  62.5676130  25.5921780  60.3499990  61.9621600  24.9129560
  61.5971520  62.6053440  25.4811140  58.8918620  55.6551780  27.2081610
  59.4433210  55.7647120  26.4334860  59.4062130  56.0289380  27.9236840
  68.7357310  66.1408000  29.2544880  68.2587870  66.9480190  29.0617490
  68.0519100  65.4886330  29.4071090  59.7390130  62.3057820  32.2429580
  58.8418660  62.5297790  32.4902980  59.7643000  62.4292760  31.2940980
  66.7795350  59.1550940  18.1570840  67.2188630  58.3173370  18.0108660
  67.4923770  59.7880340  18.2434980  58.5661350  59.1771140  30.8186950
  58.4269120  60.0493940  31.1874350  57.6842710  58.8343950  30.6734890
  64.8890730  64.0947010  22.1252080  65.3286640  64.8371340  21.7107470
  64.8277620  64.3373580  23.0491040  60.3641700  65.1192840  33.0272100
  60.3357130  65.5235790  32.1600530  60.2006670  64.1903200  32.8643700
  70.3612490  50.4093750  16.4711880  70.0485150  50.5020580  17.3710950
  71.1224960  50.9874780  16.4209310  56.8794630  57.7753550  20.9289220
  56.7592230  58.5015640  20.3170490  56.5695520  57.0056460  20.4517130
  72.3156520  65.9019940  34.3236270  72.7916240  66.3802830  35.0025350
  72.9363680  65.8337430  33.5981770  54.5180000  60.9468690  26.7357860
  54.5960420  61.0817460  25.7913580  55.1321680  60.2384580  26.9285980
  55.7627630  62.6468880  23.1464040  55.3555710  62.7883470  22.2917640
  56.6540640  62.3629040  22.9435250  71.7189770  63.0932790  31.4836280
  71.8452830  62.8544670  30.5653460  71.7611150  62.2617330  31.9558360
  65.5806510  66.7960790  30.0531090  66.0951180  66.7068800  30.8553520
  64.7375590  67.1420490  30.3459000  67.5560910  67.0816130  19.4815090
  67.3962050  66.7919070  20.3796920  67.3907620  66.3056260  18.9460320
  60.0349290  66.8614660  21.2586710  59.8591770  65.9450200  21.0454510
  59.1805030  67.2201950  21.4984510  67.2587040  64.5903690  18.0413090
  66.5652200  64.5880980  17.3815370  68.0009900  64.1663010  17.6107260
  66.8236970  66.2166400  22.1161580  67.2793920  65.4355780  22.4300200
  67.1629490  66.9273220  22.6602760  71.5713780  55.1465250  32.4486020
  70.9558050  55.6544920  31.9201480  71.2510200  54.2463580  32.3911960
  54.5739520  61.9882860  29.2752320  54.7370560  61.5188220  28.4571690
  55.0391970  61.4806420  29.9401160  59.3458290  51.1188620  24.3112890
  58.9026440  51.8998160  23.9797410  59.9043280  51.4418510  25.0183830
  63.6328100  53.9857140  29.9148210  63.1707470  54.1940160  30.7268150
  63.2306210  53.1716490  29.6118880  68.6332610  55.2066090  31.0444870
  67.7826200  54.9071840  31.3653940  68.4734400  55.4508100  30.1328690
  65.7282320  56.7067840  33.1443660  66.0535730  55.8731590  32.8045890
  66.5162650  57.2296360  33.2921990  62.4617110  50.7399320  19.1918720
  61.8371290  50.7359190  19.9172030  62.3747230  49.8730280  18.7954690
  61.3834190  51.6635950  26.1702490  61.6806520  52.5698780  26.0894510
  61.9319750  51.1754730  25.5562060  59.1372510  56.2422190  22.0394140
  58.9113430  56.0259360  22.9440760  58.3565040  56.6750650  21.6940110
  66.3670270  56.2485560  20.6384790  65.7679160  56.9721360  20.4548410
  66.9149880  56.1862340  19.8561240  61.5771720  57.1407770  32.7054410
  61.4815320  56.2002500  32.5554810  62.4203700  57.3622840  32.3102480
  64.9735140  54.8849100  22.6688070  65.3664710  55.2021300  21.8556760
  65.3351990  54.0060980  22.7832590  56.7082260  53.5521440  30.8588190
  56.3145650  54.3996650  31.0660970  56.0200660  52.9147810  31.0496830
  63.2827310  53.6356410  33.9284930  62.5925630  53.4428610  34.5631020
  64.0259610  53.9191050  34.4609230  54.0099310  51.4749900  24.8918270
  53.7212360  52.0452760  25.6043250  54.7545070  50.9954350  25.2549500
  54.1969540  55.4170020  16.1020990  54.1144210  56.3600780  16.2435980
  53.8452600  55.2744930  15.2233340  65.5590280  57.4754850  26.7638850
  64.8271400  57.9841660  27.1128950  65.1614620  56.6584830  26.4627630
  61.9967670  54.1509050  25.1691340  62.0003730  53.7099000  24.3195880
  62.8918790  54.4726380  25.2763160  57.8470050  54.0335540  24.1285550
  57.5070100  54.5110770  24.8852600  57.0847370  53.5800660  23.7686650
  62.0587820  55.1521130  18.1598100  62.1800640  55.1107610  19.1083920
  61.6736330  56.0145280  18.0044830  66.0216190  52.9288530  26.1761790
  66.0388930  53.3797180  27.0203640  65.7731770  52.0294170  26.3895230
  61.0709320  57.4622270  17.5581400  60.5026220  57.0140520  16.9317310
  61.7798320  57.8215050  17.0246550  69.4486940  50.3420710  32.0148170
  69.7732710  49.6110370  32.5406150  69.4843450  50.0234350  31.1129160
  56.1478500  61.3634290  31.4348130  55.7633290  60.7227960  32.0331090
  56.4590690  62.0670410  32.0042860  62.2975640  58.2110830  26.9156750
  62.6645770  57.7369400  27.6618090  62.1080700  59.0852400  27.2565090
  55.1616130  52.9554520  23.0450220  54.8763050  52.5910190  23.8828840
  55.0994990  52.2234980  22.4313360  60.0875010  57.2519470  29.2340960
  59.7832080  58.1311450  29.4591320  61.0421470  57.3119260  29.2698400
  58.6156800  61.4580460  19.8307810  57.8419060  60.9178080  19.6706530
  59.3451430  60.9387070  19.4925570  69.3744780  60.4545820  25.6234200
  70.0943900  60.9501110  25.2330310  69.1726600  59.7763710  24.9788070
  64.8354720  51.8483780  19.7663590  64.0219330  51.3496950  19.6908900
  64.6416670  52.6882030  19.3499940  64.7563580  60.5254880  31.5103200
  64.6900890  59.6050550  31.2560790  64.1268720  60.6230320  32.2247840
  67.5503110  56.2203430  18.0625750  68.4382730  56.5320660  17.8877090
  67.5208200  55.3475680  17.6706330  58.6594200  61.1260840  23.4686620
  59.1772870  60.3229100  23.4143510  58.2078220  61.0639980  24.3103450
  63.5463700  62.3927120  18.7413920  63.8879400  63.1369350  18.2457240
  62.7176410  62.7058240  19.1038750  56.1438740  58.0922210  30.3812320
  55.7853680  58.7576060  30.9685660  55.8493300  57.2605760  30.7524940
  59.3451860  58.5506450  33.2651870  59.0452000  58.6963630  32.3679690
  60.1163100  57.9911740  33.1725260  64.6880310  63.3475450  31.2607000
  64.7024850  62.4156410  31.0425910  63.9805410  63.4335210  31.8996770
  69.8217380  57.5315270  17.5305610  69.7381100  57.9629490  16.6802050
  70.5411570  57.9913620  17.9632430  70.8991520  59.9882790  30.6075580
  70.1739710  60.5811570  30.4104970  71.4266980  59.9806330  29.8088950
  70.8504630  64.3857530  20.2587740  70.2080790  63.7313150  20.5331460
  70.4635290  64.7912620  19.4828410  66.4291110  61.7142960  24.1059430
  66.7814930  61.1171090  23.4460800  65.5453440  61.3887190  24.2767680
  62.5154390  62.4740650  21.5129840  63.2025520  63.0209860  21.8937430
  61.7286810  63.0181380  21.5479450  54.6546790  58.0913470  17.0046920
  55.5241640  58.3738270  17.2882840  54.1637110  58.9049340  16.8895730
  61.8181600  59.4786680  21.1255200  62.2744380  60.2891930  21.3515390
  61.4669810  59.1609820  21.9573690  64.1214210  64.9893020  28.3547500
  64.7656430  65.1952400  29.0320920  64.4843650  64.2281420  27.9018350
  57.7193380  49.8224330  21.5977720  57.5908010  49.8142230  22.5462640
  56.8955400  50.1607420  21.2468730  65.3946290  62.9925370  27.0724950
  66.0368520  62.2918530  27.1857120  65.9195640  63.7723810  26.8921840
  69.2402010  63.2773990  16.7964090  69.0139590  62.5604430  17.3888730
  68.8498210  63.0286430  15.9585840  67.1683910  63.7920270  30.2761010
  67.5040150  64.3786960  30.9538930  66.2484250  63.6612980  30.5058800
  55.0218040  67.3040850  17.5708550  55.3815680  67.9030190  16.9165820
  54.8810380  67.8500740  18.3443580  68.8218260  61.1945930  18.4578250
  68.5339960  61.6558620  19.2456130  69.6170430  60.7343700  18.7262470
  55.0059900  65.5695710  32.0450950  55.1151020  64.6290450  31.9046340
  54.3540460  65.8350460  31.3964680  62.9972490  63.8411600  33.4449070
  62.6769360  63.1220840  33.9894760  62.3230850  64.5166670  33.5185130
  61.0386660  64.6872050  18.3882220  61.0296760  65.4201740  17.7726730
  60.1185020  64.4403630  18.4809180  56.6393300  59.9086940  19.1328980
  56.0321250  60.6485840  19.1424280  57.1142650  59.9986300  18.3067180
  66.2126090  54.0737760  28.8085870  66.5806910  53.2532970  29.1365440
  65.3524290  54.1339650  29.2241520  69.5788120  53.0294700  19.6173430
  68.9501280  53.1340370  18.9031660  69.0840040  53.2491480  20.4067310
  64.0246260  64.7500290  17.0507410  64.1258240  64.5464280  16.1209390
  63.1248000  64.4958570  17.2555190  61.5472150  55.3080650  21.0331310
  60.8388300  55.7766990  21.4744920  61.8316630  54.6502660  21.6676500
  63.1728080  56.7277350  29.0323840  63.6713330  57.2023170  29.6975690
  63.3151030  55.8040870  29.2393870  65.5787580  52.0331310  22.4727100
  65.4555360  52.0517440  21.5236610  66.5272140  52.0810250  22.5925500
  62.6664370  67.2686610  21.7455080  62.9205870  67.2308000  20.8234450
  61.7176850  67.1419940  21.7383330  59.7507170  53.6165730  18.4082020
  60.5997700  54.0535880  18.3422210  59.3838440  53.9285990  19.2354080
  70.3794940  52.9445310  29.8752230  69.8768540  53.6850710  30.2146040
  71.1951600  53.3329310  29.5589020  68.6716950  58.1878490  23.3213590
  67.7307090  58.2028720  23.4961280  68.9861020  57.4014450  23.7673890
  58.6498590  59.8698090  16.8817550  59.4161860  59.7579450  17.4442980
  58.7273280  59.1736060  16.2294320  57.3445350  57.3023160  17.5650440
  57.4248940  56.3550670  17.6767840  58.2365100  57.6330040  17.6711100
  70.6742530  65.3587340  24.9967850  70.7989950  66.1818510  25.4691660
  71.5408090  65.1478070  24.6492000  58.1460060  67.4518550  24.6684980
  58.8822540  66.9034010  24.9393550  58.5300980  68.3174560  24.5290970
  55.0305540  63.5192120  20.5426490  54.1045320  63.7613260  20.5331900
  55.4961970  64.3466380  20.4211240  57.1518340  66.6364620  33.8570560
  57.9531070  66.9576670  34.2705960  56.6370160  66.2760200  34.5790470
  61.2562370  66.6248860  16.4910550  62.0490980  66.9137690  16.0392340
  60.7366720  66.1941030  15.8123030  65.9882970  62.7444490  33.8045970
  65.3821130  62.7676090  33.0641720  65.6837080  62.0127530  34.3413220
  67.4183340  66.4724780  32.4155380  68.3705090  66.3882800  32.3655620
  67.2711560  67.1366490  33.0889170  70.3092540  65.8518990  17.9147290
  70.0234050  65.4384130  17.1001470  70.1112090  66.7806700  17.7947810
  54.8716150  59.1238080  32.8006610  55.3755170  58.5445360  33.3722840
  54.1323570  59.4078310  33.3382980  61.7739770  61.8452270  16.3552900
  61.6690410  61.2304620  17.0814280  61.6063990  61.3218160  15.5715910
  61.9254090  60.5309070  32.3342130  61.1599760  61.0994070  32.2496800
  62.1070050  60.2385280  31.4410360  65.0142500  60.9072300  16.9594890
  64.4652600  61.3541600  17.6037630  65.6361760  60.4021550  17.4832560
  69.0677440  62.2614400  32.8917150  69.8086910  62.5990160  32.3884610
  68.3050120  62.4306460  32.3386920  56.9039230  57.2667670  33.6956680
  56.9444570  56.9681540  34.6041910  57.7584730  57.6675280  33.5364200
  60.6817620  59.8663220  18.8560190  61.1034040  59.7003090  19.6991580
  60.8068460  59.0563450  18.3615330  58.8445040  55.8459770  31.6631170
  58.3141500  55.3550720  31.0354510  59.5133110  56.2743970  31.1289100
  63.1945260  58.8900830  16.1037290  63.7150920  58.1749850  15.7378440
  63.8413660  59.5286700  16.4037800  67.7423100  60.3129230  31.4272360
  68.1564120  60.4674310  32.2762780  66.8074100  60.4384450  31.5898140
  68.2145270  57.6525390  33.4311510  68.7966040  56.8977710  33.3431990
  68.3907040  58.1832830  32.6542990  59.3317340  52.8122140  31.7428460
  59.2374210  52.1942890  31.0179330  58.7514730  53.5388430  31.5158370
  62.0978780  51.3695380  28.7755850  61.6496080  51.3919640  27.9301400
  61.4643980  50.9714400  29.3726150  62.5038330  60.2649710  29.3968290
  62.9226440  61.1082440  29.2244530  61.5846960  60.4021750  29.1675070
  64.8402230  57.9965890  30.7806130  64.9598440  57.4007030  31.5200970
  65.6996230  58.0335580  30.3607430  67.1790130  58.5503080  29.3568640
  66.6525350  59.0745700  28.7533780  67.5221470  59.1830470  29.9878370
  59.5776520  55.9396450  15.8018350  59.3765580  55.0763810  16.1631690
  59.4068570  55.8529810  14.8639950  60.3545750  66.5702720  30.5126020
  59.8166840  67.2948780  30.1934720  60.6079710  66.0933060  29.7223360
  61.6071000  54.5387240  32.0381950  62.1970690  54.2303090  32.7259770
  60.7891240  54.0666990  32.1941850  66.4264430  54.1553050  32.2714970
  65.7379950  53.4934590  32.2064960  67.1470450  53.7091320  32.7163430
  67.0564830  50.7504680  18.3305230  67.3367120  49.9072580  18.6864650
  66.2830560  50.9827790  18.8443980  58.3759320  53.0397070  15.7896230
  58.6785220  53.0464500  14.8815380  59.1153910  52.6894930  16.2863890
  63.2107960  67.8053930  30.7712670  63.1366660  68.7089070  31.0785040
  62.3086800  67.4865830  30.7434740  61.5944250  51.9831690  16.7752430
  61.2466250  51.3055680  16.1954880  61.7957020  51.5221200  17.5895820
  63.7593290  66.9712440  18.3939030  64.6544080  67.3097410  18.4157790
  63.7910920  66.2491850  17.7663310  57.3989450  62.3439490  16.6226030
  57.8364320  62.8869160  17.2783610  57.8837180  61.5186440  16.6322370
  54.6135250  65.1328520  24.0746290  54.9438260  64.2649580  23.8424930
  55.0426250  65.3387040  24.9051250  59.2097170  63.4637530  21.7348260
  58.9092710  63.3402500  22.6352170  59.1034660  62.6046120  21.3263990
  55.1025460  65.9999110  26.8127920  54.6656450  66.1799910  27.6452070
  55.6703140  66.7573730  26.6709640  70.7387640  65.5016110  31.1005230
  70.1389630  65.5608670  30.3569150  70.8681540  64.5621090  31.2302080
  71.9789090  63.2433930  16.4374940  71.1482050  63.3110580  16.9082170
  72.1560920  64.1338050  16.1341800  71.4345550  59.9881410  18.9409140
  72.1964460  60.5578060  19.0468830  71.4499920  59.4208610  19.7117450
  54.9349890  58.5119340  23.1716800  54.2798730  58.2430980  22.5276500
  55.7727840  58.4023820  22.7218780  72.4405520  60.8431510  23.7851070
  72.8114350  60.0598830  23.3787040  73.0807450  61.5320610  23.6068370
  69.4239280  62.2268090  29.1981390  68.6099120  62.6565250  29.4607180
  69.8313480  62.8386500  28.5850440  71.4864720  60.2815780  16.0981660
  71.7613560  61.1894660  15.9700880  71.2975460  60.2178310  17.0343650
  67.8840330  53.3060630  17.3935290  68.3025210  53.1191610  16.5531950
  67.5776390  52.4539680  17.7038220  71.3830060  58.2184770  21.0911090
  71.0073660  57.4512700  20.6592380  70.6533180  58.6007470  21.5786020
  55.9725820  58.8971910  27.7120140  56.3398860  58.8099310  28.5916160
  55.4036640  58.1338460  27.6127000  70.7729680  57.3656290  30.7250610
  70.5415770  57.1369040  29.8248560  71.0334230  58.2855840  30.6795500
  55.5241820  55.8081000  31.6178560  54.6297870  55.7747760  31.9572270
  56.0639370  56.0067790  32.3829810  69.2117750  52.5912720  33.5030310
  70.0887930  52.5996120  33.8864310  69.2238590  51.8543560  32.8922660
  54.1487970  55.7218270  19.1142130  53.2452050  55.9848470  18.9393790
  54.6328590  55.9929440  18.3342090  70.6581020  56.4442260  24.3918330
  71.1818500  55.9504910  23.7608500  71.2440440  56.5792620  25.1365900
  70.8370740  56.5282130  27.9137880  69.8873450  56.4945670  28.0282870
  71.0183750  57.4382240  27.6787650  56.6915180  54.7783810  17.0236510
  57.4006880  54.3567030  16.5383790  55.9755120  54.8459040  16.3919860
  56.3389340  50.8323140  16.0639160  57.0617470  51.3732080  16.3820380
  56.6113860  50.5586560  15.1880700  70.1480990  55.7015610  20.3310740
  70.6440110  55.4686480  21.1159620  69.9497060  54.8627450  19.9148380
  56.0281530  50.0829330  25.9661780  56.6757720  49.5326710  25.5256940
  56.4483370  50.3372480  26.7877590  71.5768150  54.3376560  22.8648420
  71.4667430  54.1832600  23.8030690  72.3375740  53.8097500  22.6223830
  69.9233870  50.2770690  29.3231420  70.5606090  50.8904830  29.6890610
  70.0708760  50.3131350  28.3780650  72.4658420  52.1684480  16.1054560
  73.3907730  52.0365660  15.8972850  72.4434210  52.2477300  17.0591010
  72.5396910  52.9395140  18.7311270  71.7448410  52.8740260  19.2604180
  72.7440190  53.8745780  18.7196620  69.4815330  66.9786690  22.7249660
  70.0774400  66.6571260  22.0484080  69.7393480  66.5058510  23.5162930
  55.7813530  50.2385000  28.7087100  55.4328350  50.6948820  29.4745280
  55.4501230  49.3442130  28.7909530  57.3877900  63.4104600  32.8740290
  57.3447530  63.0397510  33.7554750  57.5188910  64.3482170  33.0142110
  61.0883930  64.9664190  28.4750010  60.8475290  65.2338750  27.5880530
  62.0286570  65.1369920  28.5300870  63.2938350  51.4296880  32.2306520
  63.2327240  52.0218710  32.9801930  64.2338730  51.3222840  32.0856780
  65.9312910  51.0866940  31.8698810  66.5453320  51.4046230  31.2079890
  66.4762470  50.6015530  32.4894670  72.3488090  66.9858570  29.2760650
  71.8546370  67.3827440  28.5587780  71.7401380  66.3607780  29.6697930
  57.2265930  66.3566850  29.9938070  56.6326250  66.2251550  30.7328110
  57.2189770  65.5204990  29.5280170  66.6720950  49.6499080  28.1968100
  65.7980790  49.9834190  27.9941030  66.5631700  49.1772260  29.0219970
  67.5792930  51.8569950  29.5809820  67.2506290  51.0421710  29.2011550
  68.5275230  51.8139760  29.4575510  70.0327540  67.6281990  26.5547390
  69.5730510  68.3797800  26.1805410  69.4040000  66.9088460  26.4962190
  56.8578160  63.7225230  28.9446110  56.1312220  63.1030520  28.8772060
  56.9187310  64.1165840  28.0744190  60.4623260  65.9370230  25.7295520
  60.9788280  65.3257590  25.2043780  61.1120640  66.4399010  26.2206530
  63.2018760  66.8278720  26.5564500  63.4896570  66.5733020  25.6797510
  63.7141980  66.2756080  27.1470070  64.4195770  50.5668920  27.1361010
  63.6367560  51.0414420  27.4157770  64.1258700  49.6623750  27.0274190
  68.9716840  51.2692020  25.1810100  69.4124930  51.2137120  24.3331700
  68.7024430  52.1850030  25.2520280  70.8355410  50.9007260  23.1918920
  70.7743810  49.9568480  23.0449940  71.6147440  51.0087350  23.7372380
  55.1408160  67.0399620  22.1542870  54.9730200  66.4070300  22.8524760
  54.2742670  67.2459020  21.8037060  55.7636180  50.8716400  19.6574730
  56.5215540  50.9845280  19.0838760  55.3013350  51.7085600  19.6118160
  62.3049990  52.9855670  22.6477040  61.4924500  52.6112560  22.3072920
  62.8091630  52.2300750  22.9498230  66.8074970  49.6498120  23.8860110
  67.4104340  50.2218330  24.3608630  66.0667960  50.2137560  23.6634010
  69.9509570  50.0519680  19.1600390  70.1460200  50.9503130  19.4267820
  69.1639440  49.8206760  19.6533340  56.7470860  65.7332850  19.5993010
  56.2218480  66.1140880  18.8954970  56.6715440  66.3583620  20.3202720
  58.1361330  51.3980450  18.1976700  58.6654090  50.6110250  18.0684650
  58.7689650  52.0771640  18.4312230  60.3299170  51.1355590  21.2522090
  59.7001910  50.4342900  21.4192220  59.7904310  51.8959720  21.0355250
  63.2691120  67.7494820  33.9232700  64.1958430  67.5139090  33.9668660
  63.2541550  68.5766820  33.4418730  71.5036180  67.2920390  20.9206950
  71.6788370  66.6058130  20.2767870  70.8057750  67.8167440  20.5283620
  60.4554730  50.4139570  33.6874580  60.1739000  50.9173170  32.9235400
  60.8374430  49.6161320  33.3216710  59.3463830  67.6815230  18.4742260
  60.0782650  67.3974510  17.9266150  59.6057500  67.4428510  19.3641640
  58.5078620  63.7979960  18.4788590  57.8787500  64.2665060  19.0274420
  58.6226450  62.9529180  18.9134780  67.0570190  49.8293150  34.2655050
  66.9435640  50.1487760  35.1606570  67.8739930  50.2305660  33.9692330
  69.8368680  66.9764680  33.7473740  70.6294000  66.4813910  33.5399700
  70.1301830  67.6554820  34.3549350  65.9628340  57.8485620   4.6289790
  65.8822390  56.9340230   4.3581500  65.5492760  58.3452690   3.9229500
  64.0946380  59.6264640   6.5099060  63.3188480  59.1465080   6.7997630
  64.7459310  58.9470290   6.3355220  58.1112210  59.9384450   7.3874820
  57.2797090  59.6833160   7.7871330  58.7193190  60.0095220   8.1232740
  68.1153810  64.0324830   5.2898190  67.6535340  63.2612070   5.6185360
  68.9279360  64.0590900   5.7950640  58.0913470  63.9724540   7.5832840
  58.3941510  63.0822280   7.4043060  58.8357060  64.5294760   7.3555090
  54.4837170  57.4991990   7.0556910  55.0553280  56.7314190   7.0560550
  54.4838710  57.7980750   6.1463520  64.3417120  66.3182840   4.9102180
  63.7228560  66.7740340   4.3396620  65.1968900  66.4734300   4.5091880
  63.5355370  62.3021830   6.5169220  63.4663650  61.3611770   6.3558350
  64.2975230  62.3923240   7.0891790  55.7262040  52.9076350   8.8425840
  55.5464880  52.0102100   9.1228600  55.3242120  53.4548220   9.5172790
  64.5660540  55.1092210   6.7438150  64.9425360  54.2364090   6.6311820
  64.4680050  55.4450910   5.8528590  58.6965550  53.4817840   2.2055590
  58.8032300  54.3821570   2.5124350  57.7857910  53.4335810   1.9150240
  68.3484660  52.6042650   3.6766490  69.1694280  52.1139220   3.7191970
  68.3818740  53.1940310   4.4298330  56.3448710  55.4036850   7.4508180
  57.0258820  55.6675220   8.0695580  56.0296760  54.5637720   7.7846190
  60.5373280  56.4504210   6.5380770  61.0451500  56.9485180   7.1785790
  61.0686520  55.6739410   6.3620130  72.6384210  54.6209400  10.2410120
  71.9336380  55.0091110   9.7225230  72.9042130  55.3159690  10.8431050
  58.8209380  51.0902770  10.8044190  58.8227820  51.6075160   9.9990090
  57.9913690  50.6132950  10.7814120  65.2080470  61.2022080   2.3034090
  64.5897740  61.6671530   1.7396810  65.7203720  61.8949560   2.7203600
  60.0712230  60.7297950   8.9817690  59.7381610  61.3566870   9.6238760
  60.2478910  61.2559830   8.2019360  68.5846140  54.5443030   6.4494030
  67.8801710  54.8327920   7.0297140  68.9458300  55.3543140   6.0893590
  58.5024710  52.8012730   8.8114640  58.8441520  53.6454780   8.5168510
  57.5640520  52.9496470   8.9279980  59.2831330  62.6978750  10.7966870
  59.9005330  63.3729830  10.5151320  58.4224450  63.1066730  10.7054370
  70.2008920  64.1618160   8.7121510  69.5172440  64.8317270   8.7038180
  70.7403210  64.3598810   7.9466370  71.6533060  53.9897820   6.8403240
  70.7057970  54.0236800   6.9718670  71.9783050  54.8036770   7.2252600
  62.1852600  50.2895000   5.1359230  62.4927580  49.7341890   4.4194730
  61.2553300  50.4239460   4.9532220  67.7367660  66.0062290   7.4266690
  67.7494820  65.6024580   6.5588950  67.1842880  66.7809580   7.3228120
  69.0313080  62.7278510   2.5156860  68.9209410  61.7852840   2.6406280
  69.0281330  63.0894150   3.4019620  67.1353100  60.9092130   8.7549300
  67.5521890  60.6952240   7.9202760  67.8592920  61.1664920   9.3257920
  64.5733360  58.3543830   1.8719350  63.6462640  58.2881210   2.1007820
  64.7258180  59.2923960   1.7574590  71.0815200  59.3079350   8.8465540
  70.2533830  59.3772440   8.3715670  71.6765680  59.8933660   8.3781370
  68.6030650  59.9164130   2.3754600  67.9843070  59.5783680   1.7280900
  68.5855100  59.2723890   3.0833790  68.0457210  56.0948670   9.7920410
  67.6328390  56.9202380  10.0460400  67.3133160  55.5093710   9.5996770
  60.1790000  58.8808570   4.6539080  59.7747000  58.1685820   4.1584980
  60.2653120  58.5361810   5.5427120  60.6471700  62.5676130   6.8178290
  60.3499990  61.9621600   6.1386070  61.5971520  62.6053440   6.7067650
  58.8918620  55.6551780   8.4338120  59.4433210  55.7647120   7.6591370
  59.4062130  56.0289380   9.1493350  68.7357310  66.1408000  10.4801390
  68.2587870  66.9480190  10.2874000  68.0519100  65.4886330  10.6327600
  59.7390130  62.3057820  13.4686090  58.8418660  62.5297790  13.7159490
  59.7643000  62.4292760  12.5197490  58.5661350  59.1771140  12.0443460
  58.4269120  60.0493940  12.4130860  57.6842710  58.8343950  11.8991400
  64.8890730  64.0947010   3.3508590  65.3286640  64.8371340   2.9363980
  64.8277620  64.3373580   4.2747550  60.3641700  65.1192840  14.2528610
  60.3357130  65.5235790  13.3857040  60.2006670  64.1903200  14.0900210
  56.8794630  57.7753550   2.1545730  56.7592230  58.5015640   1.5427000
  56.5695520  57.0056460   1.6773640  72.3156520  65.9019940  15.5492780
  72.7916240  66.3802830  16.2281860  72.9363680  65.8337430  14.8238280
  54.5180000  60.9468690   7.9614370  54.5960420  61.0817460   7.0170090
  55.1321680  60.2384580   8.1542490  55.7627630  62.6468880   4.3720550
  55.3555710  62.7883470   3.5174150  56.6540640  62.3629040   4.1691760
  71.7189770  63.0932790  12.7092790  71.8452830  62.8544670  11.7909970
  71.7611150  62.2617330  13.1814870  65.5806510  66.7960790  11.2787600
  66.0951180  66.7068800  12.0810030  64.7375590  67.1420490  11.5715510
  60.0349290  66.8614660   2.4843220  59.8591770  65.9450200   2.2711020
  59.1805030  67.2201950   2.7241020  66.8236970  66.2166400   3.3418090
  67.2793920  65.4355780   3.6556710  67.1629490  66.9273220   3.8859270
  71.5713780  55.1465250  13.6742530  70.9558050  55.6544920  13.1457990
  71.2510200  54.2463580  13.6168470  54.5739520  61.9882860  10.5008830
  54.7370560  61.5188220   9.6828200  55.0391970  61.4806420  11.1657670
  59.3458290  51.1188620   5.5369400  58.9026440  51.8998160   5.2053920
  59.9043280  51.4418510   6.2440340  63.6328100  53.9857140  11.1404720
  63.1707470  54.1940160  11.9524660  63.2306210  53.1716490  10.8375390
  68.6332610  55.2066090  12.2701380  67.7826200  54.9071840  12.5910450
  68.4734400  55.4508100  11.3585200  65.7282320  56.7067840  14.3700170
  66.0535730  55.8731590  14.0302400  66.5162650  57.2296360  14.5178500
  61.3834190  51.6635950   7.3959000  61.6806520  52.5698780   7.3151020
  61.9319750  51.1754730   6.7818570  59.1372510  56.2422190   3.2650650
  58.9113430  56.0259360   4.1697270  58.3565040  56.6750650   2.9196620
  61.5771720  57.1407770  13.9310920  61.4815320  56.2002500  13.7811320
  62.4203700  57.3622840  13.5358990  64.9735140  54.8849100   3.8944580
  65.3664710  55.2021300   3.0813270  65.3351990  54.0060980   4.0089100
  56.7082260  53.5521440  12.0844700  56.3145650  54.3996650  12.2917480
  56.0200660  52.9147810  12.2753340  63.2827310  53.6356410  15.1541440
  62.5925630  53.4428610  15.7887530  64.0259610  53.9191050  15.6865740
  54.0099310  51.4749900   6.1174780  53.7212360  52.0452760   6.8299760
  54.7545070  50.9954350   6.4806010  65.5590280  57.4754850   7.9895360
  64.8271400  57.9841660   8.3385460  65.1614620  56.6584830   7.6884140
  61.9967670  54.1509050   6.3947850  62.0003730  53.7099000   5.5452390
  62.8918790  54.4726380   6.5019670  57.8470050  54.0335540   5.3542060
  57.5070100  54.5110770   6.1109110  57.0847370  53.5800660   4.9943160
  66.0216190  52.9288530   7.4018300  66.0388930  53.3797180   8.2460150
  65.7731770  52.0294170   7.6151740  69.4486940  50.3420710  13.2404680
  69.7732710  49.6110370  13.7662660  69.4843450  50.0234350  12.3385670
  56.1478500  61.3634290  12.6604640  55.7633290  60.7227960  13.2587600
  56.4590690  62.0670410  13.2299370  62.2975640  58.2110830   8.1413260
  62.6645770  57.7369400   8.8874600  62.1080700  59.0852400   8.4821600
  55.1616130  52.9554520   4.2706730  54.8763050  52.5910190   5.1085350
  55.0994990  52.2234980   3.6569870  60.0875010  57.2519470  10.4597470
  59.7832080  58.1311450  10.6847830  61.0421470  57.3119260  10.4954910
  69.3744780  60.4545820   6.8490710  70.0943900  60.9501110   6.4586820
  69.1726600  59.7763710   6.2044580  64.7563580  60.5254880  12.7359710
  64.6900890  59.6050550  12.4817300  64.1268720  60.6230320  13.4504350
  58.6594200  61.1260840   4.6943130  59.1772870  60.3229100   4.6400020
  58.2078220  61.0639980   5.5359960  56.1438740  58.0922210  11.6068830
  55.7853680  58.7576060  12.1942170  55.8493300  57.2605760  11.9781450
  59.3451860  58.5506450  14.4908380  59.0452000  58.6963630  13.5936200
  60.1163100  57.9911740  14.3981770  64.6880310  63.3475450  12.4863510
  64.7024850  62.4156410  12.2682420  63.9805410  63.4335210  13.1253280
  70.8991520  59.9882790  11.8332090  70.1739710  60.5811570  11.6361480
  71.4266980  59.9806330  11.0345460  66.4291110  61.7142960   5.3315940
  66.7814930  61.1171090   4.6717310  65.5453440  61.3887190   5.5024190
  62.5154390  62.4740650   2.7386350  63.2025520  63.0209860   3.1193940
  61.7286810  63.0181380   2.7735960  61.8181600  59.4786680   2.3511710
  62.2744380  60.2891930   2.5771900  61.4669810  59.1609820   3.1830200
  64.1214210  64.9893020   9.5804010  64.7656430  65.1952400  10.2577430
  64.4843650  64.2281420   9.1274860  57.7193380  49.8224330   2.8234230
  57.5908010  49.8142230   3.7719150  56.8955400  50.1607420   2.4725240
  65.3946290  62.9925370   8.2981460  66.0368520  62.2918530   8.4113630
  65.9195640  63.7723810   8.1178350  67.1683910  63.7920270  11.5017520
  67.5040150  64.3786960  12.1795440  66.2484250  63.6612980  11.7315310
  54.7187310  51.5815450  12.2840930  54.0045830  51.7812370  12.8893540
  55.1382350  50.8055020  12.6555730  55.0059900  65.5695710  13.2707460
  55.1151020  64.6290450  13.1302850  54.3540460  65.8350460  12.6221190
  62.9972490  63.8411600  14.6705580  62.6769360  63.1220840  15.2151270
  62.3230850  64.5166670  14.7441640  66.2126090  54.0737760  10.0342380
  66.5806910  53.2532970  10.3621950  65.3524290  54.1339650  10.4498030
  61.5472150  55.3080650   2.2587820  60.8388300  55.7766990   2.7001430
  61.8316630  54.6502660   2.8933010  63.1728080  56.7277350  10.2580350
  63.6713330  57.2023170  10.9232200  63.3151030  55.8040870  10.4650380
  65.5787580  52.0331310   3.6983610  65.4555360  52.0517440   2.7493120
  66.5272140  52.0810250   3.8182010  62.6664370  67.2686610   2.9711590
  62.9205870  67.2308000   2.0490960  61.7176850  67.1419940   2.9639840
  70.3794940  52.9445310  11.1008740  69.8768540  53.6850710  11.4402550
  71.1951600  53.3329310  10.7845530  68.6716950  58.1878490   4.5470100
  67.7307090  58.2028720   4.7217790  68.9861020  57.4014450   4.9930400
  70.6742530  65.3587340   6.2224360  70.7989950  66.1818510   6.6948170
  71.5408090  65.1478070   5.8748510  58.1460060  67.4518550   5.8941490
  58.8822540  66.9034010   6.1650060  58.5300980  68.3174560   5.7547480
  55.0305540  63.5192120   1.7683000  54.1045320  63.7613260   1.7588410
  55.4961970  64.3466380   1.6467750  57.1518340  66.6364620  15.0827070
  57.9531070  66.9576670  15.4962470  56.6370160  66.2760200  15.8046980
  65.9882970  62.7444490  15.0302480  65.3821130  62.7676090  14.2898230
  65.6837080  62.0127530  15.5669730  67.4183340  66.4724780  13.6411890
  68.3705090  66.3882800  13.5912130  67.2711560  67.1366490  14.3145680
  54.8716150  59.1238080  14.0263120  55.3755170  58.5445360  14.5979350
  54.1323570  59.4078310  14.5639490  61.9254090  60.5309070  13.5598640
  61.1599760  61.0994070  13.4753310  62.1070050  60.2385280  12.6666870
  69.0677440  62.2614400  14.1173660  69.8086910  62.5990160  13.6141120
  68.3050120  62.4306460  13.5643430  56.9039230  57.2667670  14.9213190
  56.9444570  56.9681540  15.8298420  57.7584730  57.6675280  14.7620710
  58.8445040  55.8459770  12.8887680  58.3141500  55.3550720  12.2611020
  59.5133110  56.2743970  12.3545610  67.7423100  60.3129230  12.6528870
  68.1564120  60.4674310  13.5019290  66.8074100  60.4384450  12.8154650
  68.2145270  57.6525390  14.6568020  68.7966040  56.8977710  14.5688500
  68.3907040  58.1832830  13.8799500  59.3317340  52.8122140  12.9684970
  59.2374210  52.1942890  12.2435840  58.7514730  53.5388430  12.7414880
  62.0978780  51.3695380  10.0012360  61.6496080  51.3919640   9.1557910
  61.4643980  50.9714400  10.5982660  62.5038330  60.2649710  10.6224800
  62.9226440  61.1082440  10.4501040  61.5846960  60.4021750  10.3931580
  64.8402230  57.9965890  12.0062640  64.9598440  57.4007030  12.7457480
  65.6996230  58.0335580  11.5863940  67.1790130  58.5503080  10.5825150
  66.6525350  59.0745700   9.9790290  67.5221470  59.1830470  11.2134880
  60.3545750  66.5702720  11.7382530  59.8166840  67.2948780  11.4191230
  60.6079710  66.0933060  10.9479870  61.6071000  54.5387240  13.2638460
  62.1970690  54.2303090  13.9516280  60.7891240  54.0666990  13.4198360
  66.4264430  54.1553050  13.4971480  65.7379950  53.4934590  13.4321470
  67.1470450  53.7091320  13.9419940  63.2107960  67.8053930  11.9969180
  63.1366660  68.7089070  12.3041550  62.3086800  67.4865830  11.9691250
  54.6135250  65.1328520   5.3002800  54.9438260  64.2649580   5.0681440
  55.0426250  65.3387040   6.1307760  59.2097170  63.4637530   2.9604770
  58.9092710  63.3402500   3.8608680  59.1034660  62.6046120   2.5520500
  55.1025460  65.9999110   8.0384430  54.6656450  66.1799910   8.8708580
  55.6703140  66.7573730   7.8966150  70.7387640  65.5016110  12.3261740
  70.1389630  65.5608670  11.5825660  70.8681540  64.5621090  12.4558590
  54.9349890  58.5119340   4.3973310  54.2798730  58.2430980   3.7533010
  55.7727840  58.4023820   3.9475290  72.4405520  60.8431510   5.0107580
  72.8114350  60.0598830   4.6043550  73.0807450  61.5320610   4.8324880
  69.4239280  62.2268090  10.4237900  68.6099120  62.6565250  10.6863690
  69.8313480  62.8386500   9.8106950  71.3830060  58.2184770   2.3167600
  71.0073660  57.4512700   1.8848890  70.6533180  58.6007470   2.8042530
  55.9725820  58.8971910   8.9376650  56.3398860  58.8099310   9.8172670
  55.4036640  58.1338460   8.8383510  70.7729680  57.3656290  11.9507120
  70.5415770  57.1369040  11.0505070  71.0334230  58.2855840  11.9052010
  55.5241820  55.8081000  12.8435070  54.6297870  55.7747760  13.1828780
  56.0639370  56.0067790  13.6086320  69.2117750  52.5912720  14.7286820
  70.0887930  52.5996120  15.1120820  69.2238590  51.8543560  14.1179170
  70.6581020  56.4442260   5.6174840  71.1818500  55.9504910   4.9865010
  71.2440440  56.5792620   6.3622410  70.8370740  56.5282130   9.1394390
  69.8873450  56.4945670   9.2539380  71.0183750  57.4382240   8.9044160
  56.0281530  50.0829330   7.1918290  56.6757720  49.5326710   6.7513450
  56.4483370  50.3372480   8.0134100  71.5768150  54.3376560   4.0904930
  71.4667430  54.1832600   5.0287200  72.3375740  53.8097500   3.8480340
  69.9233870  50.2770690  10.5487930  70.5606090  50.8904830  10.9147120
  70.0708760  50.3131350   9.6037160  69.4815330  66.9786690   3.9506170
  70.0774400  66.6571260   3.2740590  69.7393480  66.5058510   4.7419440
  55.7813530  50.2385000   9.9343610  55.4328350  50.6948820  10.7001790
  55.4501230  49.3442130  10.0166040  57.3877900  63.4104600  14.0996800
  57.3447530  63.0397510  14.9811260  57.5188910  64.3482170  14.2398620
  61.0883930  64.9664190   9.7006520  60.8475290  65.2338750   8.8137040
  62.0286570  65.1369920   9.7557380  63.2938350  51.4296880  13.4563030
  63.2327240  52.0218710  14.2058440  64.2338730  51.3222840  13.3113290
  65.9312910  51.0866940  13.0955320  66.5453320  51.4046230  12.4336400
  66.4762470  50.6015530  13.7151180  72.3488090  66.9858570  10.5017160
  71.8546370  67.3827440   9.7844290  71.7401380  66.3607780  10.8954440
  56.4534170  49.7661200  13.2094380  57.0017160  49.5849250  12.4460490
  56.5189480  48.9755310  13.7450690  57.2265930  66.3566850  11.2194580
  56.6326250  66.2251550  11.9584620  57.2189770  65.5204990  10.7536680
  66.6720950  49.6499080   9.4224610  65.7980790  49.9834190   9.2197540
  66.5631700  49.1772260  10.2476480  67.5792930  51.8569950  10.8066330
  67.2506290  51.0421710  10.4268060  68.5275230  51.8139760  10.6832020
  70.0327540  67.6281990   7.7803900  69.5730510  68.3797800   7.4061920
  69.4040000  66.9088460   7.7218700  56.8578160  63.7225230  10.1702620
  56.1312220  63.1030520  10.1028570  56.9187310  64.1165840   9.3000700
  60.4623260  65.9370230   6.9552030  60.9788280  65.3257590   6.4300290
  61.1120640  66.4399010   7.4463040  63.2018760  66.8278720   7.7821010
  63.4896570  66.5733020   6.9054020  63.7141980  66.2756080   8.3726580
  64.4195770  50.5668920   8.3617520  63.6367560  51.0414420   8.6414280
  64.1258700  49.6623750   8.2530700  68.9716840  51.2692020   6.4066610
  69.4124930  51.2137120   5.5588210  68.7024430  52.1850030   6.4776790
  70.8355410  50.9007260   4.4175430  70.7743810  49.9568480   4.2706450
  71.6147440  51.0087350   4.9628890  55.1408160  67.0399620   3.3799380
  54.9730200  66.4070300   4.0781270  54.2742670  67.2459020   3.0293570
  62.3049990  52.9855670   3.8733550  61.4924500  52.6112560   3.5329430
  62.8091630  52.2300750   4.1754740  66.8074970  49.6498120   5.1116620
  67.4104340  50.2218330   5.5865140  66.0667960  50.2137560   4.8890520
  60.3299170  51.1355590   2.4778600  59.7001910  50.4342900   2.6448730
  59.7904310  51.8959720   2.2611760  63.2691120  67.7494820  15.1489210
  64.1958430  67.5139090  15.1925170  63.2541550  68.5766820  14.6675240
  71.5036180  67.2920390   2.1463460  71.6788370  66.6058130   1.5024380
  70.8057750  67.8167440   1.7540130  60.4554730  50.4139570  14.9131090
  60.1739000  50.9173170  14.1491910  60.8374430  49.6161320  14.5473220
  67.0570190  49.8293150  15.4911560  66.9435640  50.1487760  16.3863080
  67.8739930  50.2305660  15.1948840  69.8368680  66.9764680  14.9730250
  70.6294000  66.4813910  14.7656210  70.1301830  67.6554820  15.5805860
  65.9628340  39.0742130  98.5007240  65.8822390  38.1596740  98.2298950
  65.5492760  39.5709200  97.7946950  64.0946380  40.8521150 100.3816510
  63.3188480  40.3721590 100.6715080  64.7459310  40.1726800 100.2072670
  58.1112210  41.1640960 101.2592270  57.2797090  40.9089670 101.6588780
  58.7193190  41.2351730 101.9950190  68.1153810  45.2581340  99.1615640
  67.6535340  44.4868580  99.4902810  68.9279360  45.2847410  99.6668090
  58.0913470  45.1981050 101.4550290  58.3941510  44.3078790 101.2760510
  58.8357060  45.7551270 101.2272540  56.5204160  36.1242850  95.0434660
  55.6320860  36.4658820  94.9414540  56.8045350  35.9243170  94.1515490
  54.4837170  38.7248500 100.9274360  55.0553280  37.9570700 100.9278000
  54.4838710  39.0237260 100.0180970  64.3417120  47.5439350  98.7819630
  63.7228560  47.9996850  98.2114070  65.1968900  47.6990810  98.3809330
  63.5355370  43.5278340 100.3886670  63.4663650  42.5868280 100.2275800
  64.2975230  43.6179750 100.9609240  55.7262040  34.1332860 102.7143290
  55.5464880  33.2358610 102.9946050  55.3242120  34.6804730 103.3890240
  64.5660540  36.3348720 100.6155600  64.9425360  35.4620600 100.5029270
  64.4680050  36.6707420  99.7246040  58.6965550  34.7074350  96.0773040
  58.8032300  35.6078080  96.3841800  57.7857910  34.6592320  95.7867690
  68.3484660  33.8299160  97.5483940  69.1694280  33.3395730  97.5909420
  68.3818740  34.4196820  98.3015780  56.3448710  36.6293360 101.3225630
  57.0258820  36.8931730 101.9413030  56.0296760  35.7894230 101.6563640
  60.5373280  37.6760720 100.4098220  61.0451500  38.1741690 101.0503240
  61.0686520  36.8995920 100.2337580  72.6384210  35.8465910 104.1127570
  71.9336380  36.2347620 103.5942680  72.9042130  36.5416200 104.7148500
  58.8209380  32.3159280 104.6761640  58.8227820  32.8331670 103.8707540
  57.9913690  31.8389460 104.6531570  65.2080470  42.4278590  96.1751540
  64.5897740  42.8928040  95.6114260  65.7203720  43.1206070  96.5921050
  60.0712230  41.9554460 102.8535140  59.7381610  42.5823380 103.4956210
  60.2478910  42.4816340 102.0736810  68.5846140  35.7699540 100.3211480
  67.8801710  36.0584430 100.9014590  68.9458300  36.5799650  99.9611040
  58.5024710  34.0269240 102.6832090  58.8441520  34.8711290 102.3885960
  57.5640520  34.1752980 102.7997430  59.2831330  43.9235260 104.6684320
  59.9005330  44.5986340 104.3868770  58.4224450  44.3323240 104.5771820
  54.5763670  43.1135120  93.5491170  54.1991650  43.6022220  92.8176070
  54.8336740  43.7860400  94.1797700  70.2008920  45.3874670 102.5838960
  69.5172440  46.0573780 102.5755630  70.7403210  45.5855320 101.8183820
  71.6533060  35.2154330 100.7120690  70.7057970  35.2493310 100.8436120
  71.9783050  36.0293280 101.0970050  62.1852600  31.5151510  99.0076680
  62.4927580  30.9598400  98.2912180  61.2553300  31.6495970  98.8249670
  67.7367660  47.2318800 101.2984140  67.7494820  46.8281090 100.4306400
  67.1842880  48.0066090 101.1945570  69.0313080  43.9535020  96.3874310
  68.9209410  43.0109350  96.5123730  69.0281330  44.3150660  97.2737070
  67.1353100  42.1348640 102.6266750  67.5521890  41.9208750 101.7920210
  67.8592920  42.3921430 103.1975370  64.5733360  39.5800340  95.7436800
  63.6462640  39.5137720  95.9725270  64.7258180  40.5180470  95.6292040
  64.5602440  35.8517340  92.7403960  63.6206110  36.0131300  92.8256420
  64.8785700  36.5703020  92.1939950  71.0815200  40.5335860 102.7182990
  70.2533830  40.6028950 102.2433120  71.6765680  41.1190170 102.2498820
  68.6030650  41.1420640  96.2472050  67.9843070  40.8040190  95.5998350
  68.5855100  40.4980400  96.9551240  68.0457210  37.3205180 103.6637860
  67.6328390  38.1458890 103.9177850  67.3133160  36.7350220 103.4714220
  60.1790000  40.1065080  98.5256530  59.7747000  39.3942330  98.0302430
  60.2653120  39.7618320  99.4144570  60.6471700  43.7932640 100.6895740
  60.3499990  43.1878110 100.0103520  61.5971520  43.8309950 100.5785100
  58.8918620  36.8808290 102.3055570  59.4433210  36.9903630 101.5308820
  59.4062130  37.2545890 103.0210800  68.7357310  47.3664510 104.3518840
  68.2587870  48.1736700 104.1591450  68.0519100  46.7142840 104.5045050
  66.7795350  40.3807450  93.2544800  67.2188630  39.5429880  93.1082620
  67.4923770  41.0136850  93.3408940  64.8890730  45.3203520  97.2226040
  65.3286640  46.0627850  96.8081430  64.8277620  45.5630090  98.1465000
  70.3612490  31.6350260  91.5685840  70.0485150  31.7277090  92.4684910
  71.1224960  32.2131290  91.5183270  56.8794630  39.0010060  96.0263180
  56.7592230  39.7272150  95.4144450  56.5695520  38.2312970  95.5491090
  54.5180000  42.1725200 101.8331820  54.5960420  42.3073970 100.8887540
  55.1321680  41.4641090 102.0259940  55.7627630  43.8725390  98.2438000
  55.3555710  44.0139980  97.3891600  56.6540640  43.5885550  98.0409210
  67.5560910  48.3072640  94.5789050  67.3962050  48.0175580  95.4770880
  67.3907620  47.5312770  94.0434280  60.0349290  48.0871170  96.3560670
  59.8591770  47.1706710  96.1428470  59.1805030  48.4458460  96.5958470
  67.2587040  45.8160200  93.1387050  66.5652200  45.8137490  92.4789330
  68.0009900  45.3919520  92.7081220  66.8236970  47.4422910  97.2135540
  67.2793920  46.6612290  97.5274160  67.1629490  48.1529730  97.7576720
  59.3458290  32.3445130  99.4086850  58.9026440  33.1254670  99.0771370
  59.9043280  32.6675020 100.1157790  62.4617110  31.9655830  94.2892680
  61.8371290  31.9615700  95.0145990  62.3747230  31.0986790  93.8928650
  61.3834190  32.8892460 101.2676450  61.6806520  33.7955290 101.1868470
  61.9319750  32.4011240 100.6536020  59.1372510  37.4678700  97.1368100
  58.9113430  37.2515870  98.0414720  58.3565040  37.9007160  96.7914070
  66.3670270  37.4742070  95.7358750  65.7679160  38.1977870  95.5522370
  66.9149880  37.4118850  94.9535200  64.9735140  36.1105610  97.7662030
  65.3664710  36.4277810  96.9530720  65.3351990  35.2317490  97.8806550
  54.0099310  32.7006410  99.9892230  53.7212360  33.2709270 100.7017210
  54.7545070  32.2210860 100.3523460  54.1969540  36.6426530  91.1994950
  54.1144210  37.5857290  91.3409940  53.8452600  36.5001440  90.3207300
  65.5590280  38.7011360 101.8612810  64.8271400  39.2098170 102.2102910
  65.1614620  37.8841340 101.5601590  61.9967670  35.3765560 100.2665300
  62.0003730  34.9355510  99.4169840  62.8918790  35.6982890 100.3737120
  57.8470050  35.2592050  99.2259510  57.5070100  35.7367280  99.9826560
  57.0847370  34.8057170  98.8660610  62.0587820  36.3777640  93.2572060
  62.1800640  36.3364120  94.2057880  61.6736330  37.2401790  93.1018790
  66.0216190  34.1545040 101.2735750  66.0388930  34.6053690 102.1177600
  65.7731770  33.2550680 101.4869190  61.0709320  38.6878780  92.6555360
  60.5026220  38.2397030  92.0291270  61.7798320  39.0471560  92.1220510
  62.2975640  39.4367340 102.0130710  62.6645770  38.9625910 102.7592050
  62.1080700  40.3108910 102.3539050  55.1616130  34.1811030  98.1424180
  54.8763050  33.8166700  98.9802800  55.0994990  33.4491490  97.5287320
  60.0875010  38.4775980 104.3314920  59.7832080  39.3567960 104.5565280
  61.0421470  38.5375770 104.3672360  58.6156800  42.6836970  94.9281770
  57.8419060  42.1434590  94.7680490  59.3451430  42.1643580  94.5899530
  69.3744780  41.6802330 100.7208160  70.0943900  42.1757620 100.3304270
  69.1726600  41.0020220 100.0762030  64.8354720  33.0740290  94.8637550
  64.0219330  32.5753460  94.7882860  64.6416670  33.9138540  94.4473900
  67.5503110  37.4459940  93.1599710  68.4382730  37.7577170  92.9851050
  67.5208200  36.5732190  92.7680290  58.6594200  42.3517350  98.5660580
  59.1772870  41.5485610  98.5117470  58.2078220  42.2896490  99.4077410
  63.5463700  43.6183630  93.8387880  63.8879400  44.3625860  93.3431200
  62.7176410  43.9314750  94.2012710  69.8217380  38.7571780  92.6279570
  69.7381100  39.1886000  91.7776010  70.5411570  39.2170130  93.0606390
  70.8504630  45.6114040  95.3561700  70.2080790  44.9569660  95.6305420
  70.4635290  46.0169130  94.5802370  66.4291110  42.9399470  99.2033390
  66.7814930  42.3427600  98.5434760  65.5453440  42.6143700  99.3741640
  62.5154390  43.6997160  96.6103800  63.2025520  44.2466370  96.9911390
  61.7286810  44.2437890  96.6453410  54.6546790  39.3169980  92.1020880
  55.5241640  39.5994780  92.3856800  54.1637110  40.1305850  91.9869690
  61.8181600  40.7043190  96.2229160  62.2744380  41.5148440  96.4489350
  61.4669810  40.3866330  97.0547650  64.1214210  46.2149530 103.4521460
  64.7656430  46.4208910 104.1294880  64.4843650  45.4537930 102.9992310
  57.7193380  31.0480840  96.6951680  57.5908010  31.0398740  97.6436600
  56.8955400  31.3863930  96.3442690  65.3946290  44.2181880 102.1698910
  66.0368520  43.5175040 102.2831080  65.9195640  44.9980320 101.9895800
  69.2402010  44.5030500  91.8938050  69.0139590  43.7860940  92.4862690
  68.8498210  44.2542940  91.0559800  55.0218040  48.5297360  92.6682510
  55.3815680  49.1286700  92.0139780  54.8810380  49.0757250  93.4417540
  68.8218260  42.4202440  93.5552210  68.5339960  42.8815130  94.3430090
  69.6170430  41.9600210  93.8236430  61.0386660  45.9128560  93.4856180
  61.0296760  46.6458250  92.8700690  60.1185020  45.6660140  93.5783140
  56.6393300  41.1343450  94.2302940  56.0321250  41.8742350  94.2398240
  57.1142650  41.2242810  93.4041140  66.2126090  35.2994270 103.9059830
  66.5806910  34.4789480 104.2339400  65.3524290  35.3596160 104.3215480
  69.5788120  34.2551210  94.7147390  68.9501280  34.3596880  94.0005620
  69.0840040  34.4747990  95.5041270  64.0246260  45.9756800  92.1481370
  64.1258240  45.7720790  91.2183350  63.1248000  45.7215080  92.3529150
  61.5472150  36.5337160  96.1305270  60.8388300  37.0023500  96.5718880
  61.8316630  35.8759170  96.7650460  63.1728080  37.9533860 104.1297800
  63.6713330  38.4279680 104.7949650  63.3151030  37.0297380 104.3367830
  65.5787580  33.2587820  97.5701060  65.4555360  33.2773950  96.6210570
  66.5272140  33.3066760  97.6899460  62.6664370  48.4943120  96.8429040
  62.9205870  48.4564510  95.9208410  61.7176850  48.3676450  96.8357290
  59.7507170  34.8422240  93.5055980  60.5997700  35.2792390  93.4396170
  59.3838440  35.1542500  94.3328040  68.6716950  39.4135000  98.4187550
  67.7307090  39.4285230  98.5935240  68.9861020  38.6270960  98.8647850
  58.6498590  41.0954600  91.9791510  59.4161860  40.9835960  92.5416940
  58.7273280  40.3992570  91.3268280  57.3445350  38.5279670  92.6624400
  57.4248940  37.5807180  92.7741800  58.2365100  38.8586550  92.7685060
  70.6742530  46.5843850 100.0941810  70.7989950  47.4075020 100.5665620
  71.5408090  46.3734580  99.7465960  58.1460060  48.6775060  99.7658940
  58.8822540  48.1290520 100.0367510  58.5300980  49.5431070  99.6264930
  55.0305540  44.7448630  95.6400450  54.1045320  44.9869770  95.6305860
  55.4961970  45.5722890  95.5185200  61.2562370  47.8505370  91.5884510
  62.0490980  48.1394200  91.1366300  60.7366720  47.4197540  90.9096990
  70.3092540  47.0775500  93.0121250  70.0234050  46.6640640  92.1975430
  70.1112090  48.0063210  92.8921770  61.7739770  43.0708780  91.4526860
  61.6690410  42.4561130  92.1788240  61.6063990  42.5474670  90.6689870
  65.0142500  42.1328810  92.0568850  64.4652600  42.5798110  92.7011590
  65.6361760  41.6278060  92.5806520  60.6817620  41.0919730  93.9534150
  61.1034040  40.9259600  94.7965540  60.8068460  40.2819960  93.4589290
  63.1945260  40.1157340  91.2011250  63.7150920  39.4006360  90.8352400
  63.8413660  40.7543210  91.5011760  62.0978780  32.5951890 103.8729810
  61.6496080  32.6176150 103.0275360  61.4643980  32.1970910 104.4700110
  62.5038330  41.4906220 104.4942250  62.9226440  42.3338950 104.3218490
  61.5846960  41.6278260 104.2649030  59.5776520  37.1652960  90.8992310
  59.3765580  36.3020320  91.2605650  59.4068570  37.0786320  89.9613910
  67.0564830  31.9761190  93.4279190  67.3367120  31.1329090  93.7838610
  66.2830560  32.2084300  93.9417940  58.3759320  34.2653580  90.8870190
  58.6785220  34.2721010  89.9789340  59.1153910  33.9151440  91.3837850
  61.5944250  33.2088200  91.8726390  61.2466250  32.5312190  91.2928840
  61.7957020  32.7477710  92.6869780  63.7593290  48.1968950  93.4912990
  64.6544080  48.5353920  93.5131750  63.7910920  47.4748360  92.8637270
  57.3989450  43.5696000  91.7199990  57.8364320  44.1125670  92.3757570
  57.8837180  42.7442950  91.7296330  54.6135250  46.3585030  99.1720250
  54.9438260  45.4906090  98.9398890  55.0426250  46.5643550 100.0025210
  59.2097170  44.6894040  96.8322220  58.9092710  44.5659010  97.7326130
  59.1034660  43.8302630  96.4237950  55.1025460  47.2255620 101.9101880
  54.6656450  47.4056420 102.7426030  55.6703140  47.9830240 101.7683600
  71.9789090  44.4690440  91.5348900  71.1482050  44.5367090  92.0056130
  72.1560920  45.3594560  91.2315760  71.4345550  41.2137920  94.0383100
  72.1964460  41.7834570  94.1442790  71.4499920  40.6465120  94.8091410
  54.9349890  39.7375850  98.2690760  54.2798730  39.4687490  97.6250460
  55.7727840  39.6280330  97.8192740  72.4405520  42.0688020  98.8825030
  72.8114350  41.2855340  98.4761000  73.0807450  42.7577120  98.7042330
  69.4239280  43.4524600 104.2955350  68.6099120  43.8821760 104.5581140
  69.8313480  44.0643010 103.6824400  71.4864720  41.5072290  91.1955620
  71.7613560  42.4151170  91.0674840  71.2975460  41.4434820  92.1317610
  67.8840330  34.5317140  92.4909250  68.3025210  34.3448120  91.6505910
  67.5776390  33.6796190  92.8012180  71.3830060  39.4441280  96.1885050
  71.0073660  38.6769210  95.7566340  70.6533180  39.8263980  96.6759980
  55.9725820  40.1228420 102.8094100  56.3398860  40.0355820 103.6890120
  55.4036640  39.3594970 102.7100960  54.1487970  36.9474780  94.2116090
  53.2452050  37.2104980  94.0367750  54.6328590  37.2185950  93.4316050
  70.6581020  37.6698770  99.4892290  71.1818500  37.1761420  98.8582460
  71.2440440  37.8049130 100.2339860  70.8370740  37.7538640 103.0111840
  69.8873450  37.7202180 103.1256830  71.0183750  38.6638750 102.7761610
  56.6915180  36.0040320  92.1210470  57.4006880  35.5823540  91.6357750
  55.9755120  36.0715550  91.4893820  56.3389340  32.0579650  91.1613120
  57.0617470  32.5988590  91.4794340  56.6113860  31.7843070  90.2854660
  70.1480990  36.9272120  95.4284700  70.6440110  36.6942990  96.2133580
  69.9497060  36.0883960  95.0122340  56.0281530  31.3085840 101.0635740
  56.6757720  30.7583220 100.6230900  56.4483370  31.5628990 101.8851550
  71.5768150  35.5633070  97.9622380  71.4667430  35.4089110  98.9004650
  72.3375740  35.0354010  97.7197790  69.9233870  31.5027200 104.4205380
  70.5606090  32.1161340 104.7864570  70.0708760  31.5387860 103.4754610
  72.4658420  33.3940990  91.2028520  73.3907730  33.2622170  90.9946810
  72.4434210  33.4733810  92.1564970  72.5396910  34.1651650  93.8285230
  71.7448410  34.0996770  94.3578140  72.7440190  35.1002290  93.8170580
  69.4815330  48.2043200  97.8223620  70.0774400  47.8827770  97.1458040
  69.7393480  47.7315020  98.6136890  55.7813530  31.4641510 103.8061060
  55.4328350  31.9205330 104.5719240  55.4501230  30.5698640 103.8883490
  61.0883930  46.1920700 103.5723970  60.8475290  46.4595260 102.6854490
  62.0286570  46.3626430 103.6274830  72.3488090  48.2115080 104.3734610
  71.8546370  48.6083950 103.6561740  71.7401380  47.5864290 104.7671890
  66.6720950  30.8755590 103.2942060  65.7980790  31.2090700 103.0914990
  66.5631700  30.4028770 104.1193930  67.5792930  33.0826460 104.6783780
  67.2506290  32.2678220 104.2985510  68.5275230  33.0396270 104.5549470
  70.0327540  48.8538500 101.6521350  69.5730510  49.6054310 101.2779370
  69.4040000  48.1344970 101.5936150  56.8578160  44.9481740 104.0420070
  56.1312220  44.3287030 103.9746020  56.9187310  45.3422350 103.1718150
  60.4623260  47.1626740 100.8269480  60.9788280  46.5514100 100.3017740
  61.1120640  47.6655520 101.3180490  63.2018760  48.0535230 101.6538460
  63.4896570  47.7989530 100.7771470  63.7141980  47.5012590 102.2444030
  64.4195770  31.7925430 102.2334970  63.6367560  32.2670930 102.5131730
  64.1258700  30.8880260 102.1248150  68.9716840  32.4948530 100.2784060
  69.4124930  32.4393630  99.4305660  68.7024430  33.4106540 100.3494240
  70.8355410  32.1263770  98.2892880  70.7743810  31.1824990  98.1423900
  71.6147440  32.2343860  98.8346340  55.1408160  48.2656130  97.2516830
  54.9730200  47.6326810  97.9498720  54.2742670  48.4715530  96.9011020
  55.7636180  32.0972910  94.7548690  56.5215540  32.2101790  94.1812720
  55.3013350  32.9342110  94.7092120  62.3049990  34.2112180  97.7451000
  61.4924500  33.8369070  97.4046880  62.8091630  33.4557260  98.0472190
  66.8074970  30.8754630  98.9834070  67.4104340  31.4474840  99.4582590
  66.0667960  31.4394070  98.7607970  69.9509570  31.2776190  94.2574350
  70.1460200  32.1759640  94.5241780  69.1639440  31.0463270  94.7507300
  56.7470860  46.9589360  94.6966970  56.2218480  47.3397390  93.9928930
  56.6715440  47.5840130  95.4176680  58.1361330  32.6236960  93.2950660
  58.6654090  31.8366760  93.1658610  58.7689650  33.3028150  93.5286190
  60.3299170  32.3612100  96.3496050  59.7001910  31.6599410  96.5166180
  59.7904310  33.1216230  96.1329210  71.5036180  48.5176900  96.0180910
  71.6788370  47.8314640  95.3741830  70.8057750  49.0423950  95.6257580
  59.3463830  48.9071740  93.5716220  60.0782650  48.6231020  93.0240110
  59.6057500  48.6685020  94.4615600  58.5078620  45.0236470  93.5762550
  57.8787500  45.4921570  94.1248380  58.6226450  44.1785690  94.0108740
  68.1153810  45.2581340  80.3872150  67.6535340  44.4868580  80.7159320
  68.9279360  45.2847410  80.8924600  58.0913470  45.1981050  82.6806800
  58.3941510  44.3078790  82.5017020  58.8357060  45.7551270  82.4529050
  63.5355370  43.5278340  81.6143180  63.4663650  42.5868280  81.4532310
  64.2975230  43.6179750  82.1865750  55.7262040  34.1332860  83.9399800
  55.5464880  33.2358610  84.2202560  55.3242120  34.6804730  84.6146750
  68.3484660  33.8299160  78.7740450  69.1694280  33.3395730  78.8165930
  68.3818740  34.4196820  79.5272290  56.3448710  36.6293360  82.5482140
  57.0258820  36.8931730  83.1669540  56.0296760  35.7894230  82.8820150
  72.6384210  35.8465910  85.3384080  71.9336380  36.2347620  84.8199190
  72.9042130  36.5416200  85.9405010  58.8209380  32.3159280  85.9018150
  58.8227820  32.8331670  85.0964050  57.9913690  31.8389460  85.8788080
  60.0712230  41.9554460  84.0791650  59.7381610  42.5823380  84.7212720
  60.2478910  42.4816340  83.2993320  68.5846140  35.7699540  81.5467990
  67.8801710  36.0584430  82.1271100  68.9458300  36.5799650  81.1867550
  58.5024710  34.0269240  83.9088600  58.8441520  34.8711290  83.6142470
  57.5640520  34.1752980  84.0253940  59.2831330  43.9235260  85.8940830
  59.9005330  44.5986340  85.6125280  58.4224450  44.3323240  85.8028330
  70.2008920  45.3874670  83.8095470  69.5172440  46.0573780  83.8012140
  70.7403210  45.5855320  83.0440330  71.6533060  35.2154330  81.9377200
  70.7057970  35.2493310  82.0692630  71.9783050  36.0293280  82.3226560
  67.7367660  47.2318800  82.5240650  67.7494820  46.8281090  81.6562910
  67.1842880  48.0066090  82.4202080  69.0313080  43.9535020  77.6130820
  68.9209410  43.0109350  77.7380240  69.0281330  44.3150660  78.4993580
  67.1353100  42.1348640  83.8523260  67.5521890  41.9208750  83.0176720
  67.8592920  42.3921430  84.4231880  71.0815200  40.5335860  83.9439500
  70.2533830  40.6028950  83.4689630  71.6765680  41.1190170  83.4755330
  68.0457210  37.3205180  84.8894370  67.6328390  38.1458890  85.1434360
  67.3133160  36.7350220  84.6970730  60.6471700  43.7932640  81.9152250
  60.3499990  43.1878110  81.2360030  61.5971520  43.8309950  81.8041610
  58.8918620  36.8808290  83.5312080  59.4433210  36.9903630  82.7565330
  59.4062130  37.2545890  84.2467310  68.7357310  47.3664510  85.5775350
  68.2587870  48.1736700  85.3847960  68.0519100  46.7142840  85.7301560
  59.7390130  43.5314330  88.5660050  58.8418660  43.7554300  88.8133450
  59.7643000  43.6549270  87.6171450  66.7795350  40.3807450  74.4801310
  67.2188630  39.5429880  74.3339130  67.4923770  41.0136850  74.5665450
  58.5661350  40.4027650  87.1417420  58.4269120  41.2750450  87.5104820
  57.6842710  40.0600460  86.9965360  64.8890730  45.3203520  78.4482550
  65.3286640  46.0627850  78.0337940  64.8277620  45.5630090  79.3721510
  60.3641700  46.3449350  89.3502570  60.3357130  46.7492300  88.4831000
  60.2006670  45.4159710  89.1874170  70.3612490  31.6350260  72.7942350
  70.0485150  31.7277090  73.6941420  71.1224960  32.2131290  72.7439780
  72.3156520  47.1276450  90.6466740  72.7916240  47.6059340  91.3255820
  72.9363680  47.0593940  89.9212240  71.7189770  44.3189300  87.8066750
  71.8452830  44.0801180  86.8883930  71.7611150  43.4873840  88.2788830
  65.5806510  48.0217300  86.3761560  66.0951180  47.9325310  87.1783990
  64.7375590  48.3677000  86.6689470  67.5560910  48.3072640  75.8045560
  67.3962050  48.0175580  76.7027390  67.3907620  47.5312770  75.2690790
  60.0349290  48.0871170  77.5817180  59.8591770  47.1706710  77.3684980
  59.1805030  48.4458460  77.8214980  67.2587040  45.8160200  74.3643560
  66.5652200  45.8137490  73.7045840  68.0009900  45.3919520  73.9337730
  66.8236970  47.4422910  78.4392050  67.2793920  46.6612290  78.7530670
  67.1629490  48.1529730  78.9833230  71.5713780  36.3721760  88.7716490
  70.9558050  36.8801430  88.2431950  71.2510200  35.4720090  88.7142430
  54.5739520  43.2139370  85.5982790  54.7370560  42.7444730  84.7802160
  55.0391970  42.7062930  86.2631630  63.6328100  35.2113650  86.2378680
  63.1707470  35.4196670  87.0498620  63.2306210  34.3973000  85.9349350
  68.6332610  36.4322600  87.3675340  67.7826200  36.1328350  87.6884410
  68.4734400  36.6764610  86.4559160  65.7282320  37.9324350  89.4674130
  66.0535730  37.0988100  89.1276360  66.5162650  38.4552870  89.6152460
  61.3834190  32.8892460  82.4932960  61.6806520  33.7955290  82.4124980
  61.9319750  32.4011240  81.8792530  61.5771720  38.3664280  89.0284880
  61.4815320  37.4259010  88.8785280  62.4203700  38.5879350  88.6332950
  56.7082260  34.7777950  87.1818660  56.3145650  35.6253160  87.3891440
  56.0200660  34.1404320  87.3727300  63.2827310  34.8612920  90.2515400
  62.5925630  34.6685120  90.8861490  64.0259610  35.1447560  90.7839700
  54.0099310  32.7006410  81.2148740  53.7212360  33.2709270  81.9273720
  54.7545070  32.2210860  81.5779970  65.5590280  38.7011360  83.0869320
  64.8271400  39.2098170  83.4359420  65.1614620  37.8841340  82.7858100
  66.0216190  34.1545040  82.4992260  66.0388930  34.6053690  83.3434110
  65.7731770  33.2550680  82.7125700  69.4486940  31.5677220  88.3378640
  69.7732710  30.8366880  88.8636620  69.4843450  31.2490860  87.4359630
  56.1478500  42.5890800  87.7578600  55.7633290  41.9484470  88.3561560
  56.4590690  43.2926920  88.3273330  60.0875010  38.4775980  85.5571430
  59.7832080  39.3567960  85.7821790  61.0421470  38.5375770  85.5928870
  69.3744780  41.6802330  81.9464670  70.0943900  42.1757620  81.5560780
  69.1726600  41.0020220  81.3018540  64.7563580  41.7511390  87.8333670
  64.6900890  40.8307060  87.5791260  64.1268720  41.8486830  88.5478310
  56.1438740  39.3178720  86.7042790  55.7853680  39.9832570  87.2916130
  55.8493300  38.4862270  87.0755410  59.3451860  39.7762960  89.5882340
  59.0452000  39.9220140  88.6910160  60.1163100  39.2168250  89.4955730
  64.6880310  44.5731960  87.5837470  64.7024850  43.6412920  87.3656380
  63.9805410  44.6591720  88.2227240  69.8217380  38.7571780  73.8536080
  69.7381100  39.1886000  73.0032520  70.5411570  39.2170130  74.2862900
  70.8991520  41.2139300  86.9306050  70.1739710  41.8068080  86.7335440
  71.4266980  41.2062840  86.1319420  70.8504630  45.6114040  76.5818210
  70.2080790  44.9569660  76.8561930  70.4635290  46.0169130  75.8058880
  64.1214210  46.2149530  84.6777970  64.7656430  46.4208910  85.3551390
  64.4843650  45.4537930  84.2248820  65.3946290  44.2181880  83.3955420
  66.0368520  43.5175040  83.5087590  65.9195640  44.9980320  83.2152310
  67.1683910  45.0176780  86.5991480  67.5040150  45.6043470  87.2769400
  66.2484250  44.8869490  86.8289270  54.7187310  32.8071960  87.3814890
  54.0045830  33.0068880  87.9867500  55.1382350  32.0311530  87.7529690
  55.0059900  46.7952220  88.3681420  55.1151020  45.8546960  88.2276810
  54.3540460  47.0606970  87.7195150  62.9972490  45.0668110  89.7679540
  62.6769360  44.3477350  90.3125230  62.3230850  45.7423180  89.8415600
  66.2126090  35.2994270  85.1316340  66.5806910  34.4789480  85.4595910
  65.3524290  35.3596160  85.5471990  69.5788120  34.2551210  75.9403900
  68.9501280  34.3596880  75.2262130  69.0840040  34.4747990  76.7297780
  63.1728080  37.9533860  85.3554310  63.6713330  38.4279680  86.0206160
  63.3151030  37.0297380  85.5624340  62.6664370  48.4943120  78.0685550
  62.9205870  48.4564510  77.1464920  61.7176850  48.3676450  78.0613800
  70.3794940  34.1701820  86.1982700  69.8768540  34.9107220  86.5376510
  71.1951600  34.5585820  85.8819490  70.6742530  46.5843850  81.3198320
  70.7989950  47.4075020  81.7922130  71.5408090  46.3734580  80.9722470
  58.1460060  48.6775060  80.9915450  58.8822540  48.1290520  81.2624020
  58.5300980  49.5431070  80.8521440  57.1518340  47.8621130  90.1801030
  57.9531070  48.1833180  90.5936430  56.6370160  47.5016710  90.9020940
  65.9882970  43.9701000  90.1276440  65.3821130  43.9932600  89.3872190
  65.6837080  43.2384040  90.6643690  67.4183340  47.6981290  88.7385850
  68.3705090  47.6139310  88.6886090  67.2711560  48.3623000  89.4119640
  54.8716150  40.3494590  89.1237080  55.3755170  39.7701870  89.6953310
  54.1323570  40.6334820  89.6613450  61.9254090  41.7565580  88.6572600
  61.1599760  42.3250580  88.5727270  62.1070050  41.4641790  87.7640830
  69.0677440  43.4870910  89.2147620  69.8086910  43.8246670  88.7115080
  68.3050120  43.6562970  88.6617390  56.9039230  38.4924180  90.0187150
  56.9444570  38.1938050  90.9272380  57.7584730  38.8931790  89.8594670
  58.8445040  37.0716280  87.9861640  58.3141500  36.5807230  87.3584980
  59.5133110  37.5000480  87.4519570  67.7423100  41.5385740  87.7502830
  68.1564120  41.6930820  88.5993250  66.8074100  41.6640960  87.9128610
  68.2145270  38.8781900  89.7541980  68.7966040  38.1234220  89.6662460
  68.3907040  39.4089340  88.9773460  59.3317340  34.0378650  88.0658930
  59.2374210  33.4199400  87.3409800  58.7514730  34.7644940  87.8388840
  62.0978780  32.5951890  85.0986320  61.6496080  32.6176150  84.2531870
  61.4643980  32.1970910  85.6956620  62.5038330  41.4906220  85.7198760
  62.9226440  42.3338950  85.5475000  61.5846960  41.6278260  85.4905540
  64.8402230  39.2222400  87.1036600  64.9598440  38.6263540  87.8431440
  65.6996230  39.2592090  86.6837900  67.1790130  39.7759590  85.6799110
  66.6525350  40.3002210  85.0764250  67.5221470  40.4086980  86.3108840
  60.3545750  47.7959230  86.8356490  59.8166840  48.5205290  86.5165190
  60.6079710  47.3189570  86.0453830  61.6071000  35.7643750  88.3612420
  62.1970690  35.4559600  89.0490240  60.7891240  35.2923500  88.5172320
  66.4264430  35.3809560  88.5945440  65.7379950  34.7191100  88.5295430
  67.1470450  34.9347830  89.0393900  63.2107960  49.0310440  87.0943140
  63.1366660  49.9345580  87.4015510  62.3086800  48.7122340  87.0665210
  63.7593290  48.1968950  74.7169500  64.6544080  48.5353920  74.7388260
  63.7910920  47.4748360  74.0893780  55.1025460  47.2255620  83.1358390
  54.6656450  47.4056420  83.9682540  55.6703140  47.9830240  82.9940110
  70.7387640  46.7272620  87.4235700  70.1389630  46.7865180  86.6799620
  70.8681540  45.7877600  87.5532550  71.4345550  41.2137920  75.2639610
  72.1964460  41.7834570  75.3699300  71.4499920  40.6465120  76.0347920
  72.4405520  42.0688020  80.1081540  72.8114350  41.2855340  79.7017510
  73.0807450  42.7577120  79.9298840  69.4239280  43.4524600  85.5211860
  68.6099120  43.8821760  85.7837650  69.8313480  44.0643010  84.9080910
  71.3830060  39.4441280  77.4141560  71.0073660  38.6769210  76.9822850
  70.6533180  39.8263980  77.9016490  70.7729680  38.5912800  87.0481080
  70.5415770  38.3625550  86.1479030  71.0334230  39.5112350  87.0025970
  55.5241820  37.0337510  87.9409030  54.6297870  37.0004270  88.2802740
  56.0639370  37.2324300  88.7060280  69.2117750  33.8169230  89.8260780
  70.0887930  33.8252630  90.2094780  69.2238590  33.0800070  89.2153130
  70.6581020  37.6698770  80.7148800  71.1818500  37.1761420  80.0838970
  71.2440440  37.8049130  81.4596370  70.8370740  37.7538640  84.2368350
  69.8873450  37.7202180  84.3513340  71.0183750  38.6638750  84.0018120
  70.1480990  36.9272120  76.6541210  70.6440110  36.6942990  77.4390090
  69.9497060  36.0883960  76.2378850  56.0281530  31.3085840  82.2892250
  56.6757720  30.7583220  81.8487410  56.4483370  31.5628990  83.1108060
  71.5768150  35.5633070  79.1878890  71.4667430  35.4089110  80.1261160
  72.3375740  35.0354010  78.9454300  69.9233870  31.5027200  85.6461890
  70.5606090  32.1161340  86.0121080  70.0708760  31.5387860  84.7011120
  72.4658420  33.3940990  72.4285030  73.3907730  33.2622170  72.2203320
  72.4434210  33.4733810  73.3821480  72.5396910  34.1651650  75.0541740
  71.7448410  34.0996770  75.5834650  72.7440190  35.1002290  75.0427090
  55.7813530  31.4641510  85.0317570  55.4328350  31.9205330  85.7975750
  55.4501230  30.5698640  85.1140000  57.3877900  44.6361110  89.1970760
  57.3447530  44.2654020  90.0785220  57.5188910  45.5738680  89.3372580
  61.0883930  46.1920700  84.7980480  60.8475290  46.4595260  83.9111000
  62.0286570  46.3626430  84.8531340  63.2938350  32.6553390  88.5536990
  63.2327240  33.2475220  89.3032400  64.2338730  32.5479350  88.4087250
  65.9312910  32.3123450  88.1929280  66.5453320  32.6302740  87.5310360
  66.4762470  31.8272040  88.8125140  72.3488090  48.2115080  85.5991120
  71.8546370  48.6083950  84.8818250  71.7401380  47.5864290  85.9928400
  56.4534170  30.9917710  88.3068340  57.0017160  30.8105760  87.5434450
  56.5189480  30.2011820  88.8424650  57.2265930  47.5823360  86.3168540
  56.6326250  47.4508060  87.0558580  57.2189770  46.7461500  85.8510640
  66.6720950  30.8755590  84.5198570  65.7980790  31.2090700  84.3171500
  66.5631700  30.4028770  85.3450440  67.5792930  33.0826460  85.9040290
  67.2506290  32.2678220  85.5242020  68.5275230  33.0396270  85.7805980
  70.0327540  48.8538500  82.8777860  69.5730510  49.6054310  82.5035880
  69.4040000  48.1344970  82.8192660  56.8578160  44.9481740  85.2676580
  56.1312220  44.3287030  85.2002530  56.9187310  45.3422350  84.3974660
  60.4623260  47.1626740  82.0525990  60.9788280  46.5514100  81.5274250
  61.1120640  47.6655520  82.5437000  64.4195770  31.7925430  83.4591480
  63.6367560  32.2670930  83.7388240  64.1258700  30.8880260  83.3504660
  68.9716840  32.4948530  81.5040570  69.4124930  32.4393630  80.6562170
  68.7024430  33.4106540  81.5750750  70.8355410  32.1263770  79.5149390
  70.7743810  31.1824990  79.3680410  71.6147440  32.2343860  80.0602850
  69.9509570  31.2776190  75.4830860  70.1460200  32.1759640  75.7498290
  69.1639440  31.0463270  75.9763810  63.2691120  48.9751330  90.2463170
  64.1958430  48.7395600  90.2899130  63.2541550  49.8023330  89.7649200
  60.4554730  31.6396080  90.0105050  60.1739000  32.1429680  89.2465870
  60.8374430  30.8417830  89.6447180  67.0570190  31.0549660  90.5885520
  66.9435640  31.3744270  91.4837040  67.8739930  31.4562170  90.2922800
  69.8368680  48.2021190  90.0704210  70.6294000  47.7070420  89.8630170
  70.1301830  48.8811330  90.6779820  72.6384210  35.8465910  66.5640590
  71.9336380  36.2347620  66.0455700  72.9042130  36.5416200  67.1661520
  71.6533060  35.2154330  63.1633710  70.7057970  35.2493310  63.2949140
  71.9783050  36.0293280  63.5483070  71.0815200  40.5335860  65.1696010
  70.2533830  40.6028950  64.6946140  71.6765680  41.1190170  64.7011840
  68.0457210  37.3205180  66.1150880  67.6328390  38.1458890  66.3690870
  67.3133160  36.7350220  65.9227240  70.3612490  31.6350260  54.0198860
  70.0485150  31.7277090  54.9197930  71.1224960  32.2131290  53.9696290
  71.7189770  44.3189300  69.0323260  71.8452830  44.0801180  68.1140440
  71.7611150  43.4873840  69.5045340  60.0349290  48.0871170  58.8073690
  59.8591770  47.1706710  58.5941490  59.1805030  48.4458460  59.0471490
  67.2587040  45.8160200  55.5900070  66.5652200  45.8137490  54.9302350
  68.0009900  45.3919520  55.1594240  71.5713780  36.3721760  69.9973000
  70.9558050  36.8801430  69.4688460  71.2510200  35.4720090  69.9398940
  68.6332610  36.4322600  68.5931850  67.7826200  36.1328350  68.9140920
  68.4734400  36.6764610  67.6815670  69.3744780  41.6802330  63.1721180
  70.0943900  42.1757620  62.7817290  69.1726600  41.0020220  62.5275050
  69.8217380  38.7571780  55.0792590  69.7381100  39.1886000  54.2289030
  70.5411570  39.2170130  55.5119410  70.8991520  41.2139300  68.1562560
  70.1739710  41.8068080  67.9591950  71.4266980  41.2062840  67.3575930
  70.8504630  45.6114040  57.8074720  70.2080790  44.9569660  58.0818440
  70.4635290  46.0169130  57.0315390  69.2402010  44.5030500  54.3451070
  69.0139590  43.7860940  54.9375710  68.8498210  44.2542940  53.5072820
  68.8218260  42.4202440  56.0065230  68.5339960  42.8815130  56.7943110
  69.6170430  41.9600210  56.2749450  64.0246260  45.9756800  54.5994390
  64.1258240  45.7720790  53.6696370  63.1248000  45.7215080  54.8042170
  70.3794940  34.1701820  67.4239210  69.8768540  34.9107220  67.7633020
  71.1951600  34.5585820  67.1076000  70.6742530  46.5843850  62.5454830
  70.7989950  47.4075020  63.0178640  71.5408090  46.3734580  62.1978980
  70.3092540  47.0775500  55.4634270  70.0234050  46.6640640  54.6488450
  70.1112090  48.0063210  55.3434790  67.0564830  31.9761190  55.8792210
  67.3367120  31.1329090  56.2351630  66.2830560  32.2084300  56.3930960
  63.7593290  48.1968950  55.9426010  64.6544080  48.5353920  55.9644770
  63.7910920  47.4748360  55.3150290  71.9789090  44.4690440  53.9861920
  71.1482050  44.5367090  54.4569150  72.1560920  45.3594560  53.6828780
  71.4345550  41.2137920  56.4896120  72.1964460  41.7834570  56.5955810
  71.4499920  40.6465120  57.2604430  72.4405520  42.0688020  61.3338050
  72.8114350  41.2855340  60.9274020  73.0807450  42.7577120  61.1555350
  71.4864720  41.5072290  53.6468640  71.7613560  42.4151170  53.5187860
  71.2975460  41.4434820  54.5830630  67.8840330  34.5317140  54.9422270
  68.3025210  34.3448120  54.1018930  67.5776390  33.6796190  55.2525200
  71.3830060  39.4441280  58.6398070  71.0073660  38.6769210  58.2079360
  70.6533180  39.8263980  59.1273000  70.7729680  38.5912800  68.2737590
  70.5415770  38.3625550  67.3735540  71.0334230  39.5112350  68.2282480
  70.8370740  37.7538640  65.4624860  69.8873450  37.7202180  65.5769850
  71.0183750  38.6638750  65.2274630  69.9233870  31.5027200  66.8718400
  70.5606090  32.1161340  67.2377590  70.0708760  31.5387860  65.9267630
  72.4658420  33.3940990  53.6541540  73.3907730  33.2622170  53.4459830
  72.4434210  33.4733810  54.6077990  72.5396910  34.1651650  56.2798250
  71.7448410  34.0996770  56.8091160  72.7440190  35.1002290  56.2683600
  69.4815330  48.2043200  60.2736640  70.0774400  47.8827770  59.5971060
  69.7393480  47.7315020  61.0649910  72.3488090  48.2115080  66.8247630
  71.8546370  48.6083950  66.1074760  71.7401380  47.5864290  67.2184910
  66.6720950  30.8755590  65.7455080  65.7980790  31.2090700  65.5428010
  66.5631700  30.4028770  66.5706950  67.5792930  33.0826460  67.1296800
  67.2506290  32.2678220  66.7498530  68.5275230  33.0396270  67.0062490
  70.8355410  32.1263770  60.7405900  70.7743810  31.1824990  60.5936920
  71.6147440  32.2343860  61.2859360  69.9509570  31.2776190  56.7087370
  70.1460200  32.1759640  56.9754800  69.1639440  31.0463270  57.2020320
  71.5036180  48.5176900  58.4693930  71.6788370  47.8314640  57.8254850
  70.8057750  49.0423950  58.0770600  70.2008920  45.3874670  46.2608490
  69.5172440  46.0573780  46.2525160  70.7403210  45.5855320  45.4953350
  67.7367660  47.2318800  44.9753670  67.7494820  46.8281090  44.1075930
  67.1842880  48.0066090  44.8715100  68.7357310  47.3664510  48.0288370
  68.2587870  48.1736700  47.8360980  68.0519100  46.7142840  48.1814580
  72.3156520  47.1276450  53.0979760  72.7916240  47.6059340  53.7768840
  72.9363680  47.0593940  52.3725260  71.7189770  44.3189300  50.2579770
  71.8452830  44.0801180  49.3396950  71.7611150  43.4873840  50.7301850
  65.5806510  48.0217300  48.8274580  66.0951180  47.9325310  49.6297010
  64.7375590  48.3677000  49.1202490  67.5560910  48.3072640  38.2558580
  67.3962050  48.0175580  39.1540410  67.3907620  47.5312770  37.7203810
  71.5713780  36.3721760  51.2229510  70.9558050  36.8801430  50.6944970
  71.2510200  35.4720090  51.1655450  70.8504630  45.6114040  39.0331230
  70.2080790  44.9569660  39.3074950  70.4635290  46.0169130  38.2571900
  70.6742530  46.5843850  43.7711340  70.7989950  47.4075020  44.2435150
  71.5408090  46.3734580  43.4235490  65.9882970  43.9701000  52.5789460
  65.3821130  43.9932600  51.8385210  65.6837080  43.2384040  53.1156710
  67.4183340  47.6981290  51.1898870  68.3705090  47.6139310  51.1399110
  67.2711560  48.3623000  51.8632660  70.3092540  47.0775500  36.6890780
  70.0234050  46.6640640  35.8744960  70.1112090  48.0063210  36.5691300
  70.7387640  46.7272620  49.8748720  70.1389630  46.7865180  49.1312640
  70.8681540  45.7877600  50.0045570  71.9789090  44.4690440  35.2118430
  71.1482050  44.5367090  35.6825660  72.1560920  45.3594560  34.9085290
  71.4345550  41.2137920  37.7152630  72.1964460  41.7834570  37.8212320
  71.4499920  40.6465120  38.4860940  72.4405520  42.0688020  42.5594560
  72.8114350  41.2855340  42.1530530  73.0807450  42.7577120  42.3811860
  71.4864720  41.5072290  34.8725150  71.7613560  42.4151170  34.7444370
  71.2975460  41.4434820  35.8087140  71.3830060  39.4441280  39.8654580
  71.0073660  38.6769210  39.4335870  70.6533180  39.8263980  40.3529510
  69.2117750  33.8169230  52.2773800  70.0887930  33.8252630  52.6607800
  69.2238590  33.0800070  51.6666150  72.4658420  33.3940990  34.8798050
  73.3907730  33.2622170  34.6716340  72.4434210  33.4733810  35.8334500
  69.4815330  48.2043200  41.4993150  70.0774400  47.8827770  40.8227570
  69.7393480  47.7315020  42.2906420  72.3488090  48.2115080  48.0504140
  71.8546370  48.6083950  47.3331270  71.7401380  47.5864290  48.4441420
  70.0327540  48.8538500  45.3290880  69.5730510  49.6054310  44.9548900
  69.4040000  48.1344970  45.2705680  71.5036180  48.5176900  39.6950440
  71.6788370  47.8314640  39.0511360  70.8057750  49.0423950  39.3027110
  67.0570190  31.0549660  53.0398540  66.9435640  31.3744270  53.9350060
  67.8739930  31.4562170  52.7435820  69.8368680  48.2021190  52.5217230
  70.6294000  47.7070420  52.3143190  70.1301830  48.8811330  53.1292840
  65.9628340  39.0742130  23.4033280  65.8822390  38.1596740  23.1324990
  65.5492760  39.5709200  22.6972990  64.0946380  40.8521150  25.2842550
  63.3188480  40.3721590  25.5741120  64.7459310  40.1726800  25.1098710
  58.1112210  41.1640960  26.1618310  57.2797090  40.9089670  26.5614820
  58.7193190  41.2351730  26.8976230  68.1153810  45.2581340  24.0641680
  67.6535340  44.4868580  24.3928850  68.9279360  45.2847410  24.5694130
  58.0913470  45.1981050  26.3576330  58.3941510  44.3078790  26.1786550
  58.8357060  45.7551270  26.1298580  56.5204160  36.1242850  19.9460700
  55.6320860  36.4658820  19.8440580  56.8045350  35.9243170  19.0541530
  54.4837170  38.7248500  25.8300400  55.0553280  37.9570700  25.8304040
  54.4838710  39.0237260  24.9207010  64.3417120  47.5439350  23.6845670
  63.7228560  47.9996850  23.1140110  65.1968900  47.6990810  23.2835370
  63.5355370  43.5278340  25.2912710  63.4663650  42.5868280  25.1301840
  64.2975230  43.6179750  25.8635280  64.5660540  36.3348720  25.5181640
  64.9425360  35.4620600  25.4055310  64.4680050  36.6707420  24.6272080
  58.6965550  34.7074350  20.9799080  58.8032300  35.6078080  21.2867840
  57.7857910  34.6592320  20.6893730  68.3484660  33.8299160  22.4509980
  69.1694280  33.3395730  22.4935460  68.3818740  34.4196820  23.2041820
  60.5373280  37.6760720  25.3124260  61.0451500  38.1741690  25.9529280
  61.0686520  36.8995920  25.1363620  72.6384210  35.8465910  29.0153610
  71.9336380  36.2347620  28.4968720  72.9042130  36.5416200  29.6174540
  65.2080470  42.4278590  21.0777580  64.5897740  42.8928040  20.5140300
  65.7203720  43.1206070  21.4947090  60.0712230  41.9554460  27.7561180
  59.7381610  42.5823380  28.3982250  60.2478910  42.4816340  26.9762850
  68.5846140  35.7699540  25.2237520  67.8801710  36.0584430  25.8040630
  68.9458300  36.5799650  24.8637080  54.5763670  43.1135120  18.4517210
  54.1991650  43.6022220  17.7202110  54.8336740  43.7860400  19.0823740
  70.2008920  45.3874670  27.4865000  69.5172440  46.0573780  27.4781670
  70.7403210  45.5855320  26.7209860  71.6533060  35.2154330  25.6146730
  70.7057970  35.2493310  25.7462160  71.9783050  36.0293280  25.9996090
  62.1852600  31.5151510  23.9102720  62.4927580  30.9598400  23.1938220
  61.2553300  31.6495970  23.7275710  67.7367660  47.2318800  26.2010180
  67.7494820  46.8281090  25.3332440  67.1842880  48.0066090  26.0971610
  69.0313080  43.9535020  21.2900350  68.9209410  43.0109350  21.4149770
  69.0281330  44.3150660  22.1763110  67.1353100  42.1348640  27.5292790
  67.5521890  41.9208750  26.6946250  67.8592920  42.3921430  28.1001410
  64.5733360  39.5800340  20.6462840  63.6462640  39.5137720  20.8751310
  64.7258180  40.5180470  20.5318080  64.5602440  35.8517340  17.6430000
  63.6206110  36.0131300  17.7282460  64.8785700  36.5703020  17.0965990
  71.0815200  40.5335860  27.6209030  70.2533830  40.6028950  27.1459160
  71.6765680  41.1190170  27.1524860  68.6030650  41.1420640  21.1498090
  67.9843070  40.8040190  20.5024390  68.5855100  40.4980400  21.8577280
  68.0457210  37.3205180  28.5663900  67.6328390  38.1458890  28.8203890
  67.3133160  36.7350220  28.3740260  60.1790000  40.1065080  23.4282570
  59.7747000  39.3942330  22.9328470  60.2653120  39.7618320  24.3170610
  60.6471700  43.7932640  25.5921780  60.3499990  43.1878110  24.9129560
  61.5971520  43.8309950  25.4811140  68.7357310  47.3664510  29.2544880
  68.2587870  48.1736700  29.0617490  68.0519100  46.7142840  29.4071090
  66.7795350  40.3807450  18.1570840  67.2188630  39.5429880  18.0108660
  67.4923770  41.0136850  18.2434980  64.8890730  45.3203520  22.1252080
  65.3286640  46.0627850  21.7107470  64.8277620  45.5630090  23.0491040
  70.3612490  31.6350260  16.4711880  70.0485150  31.7277090  17.3710950
  71.1224960  32.2131290  16.4209310  56.8794630  39.0010060  20.9289220
  56.7592230  39.7272150  20.3170490  56.5695520  38.2312970  20.4517130
  72.3156520  47.1276450  34.3236270  72.7916240  47.6059340  35.0025350
  72.9363680  47.0593940  33.5981770  55.7627630  43.8725390  23.1464040
  55.3555710  44.0139980  22.2917640  56.6540640  43.5885550  22.9435250
  71.7189770  44.3189300  31.4836280  71.8452830  44.0801180  30.5653460
  71.7611150  43.4873840  31.9558360  65.5806510  48.0217300  30.0531090
  66.0951180  47.9325310  30.8553520  64.7375590  48.3677000  30.3459000
  67.5560910  48.3072640  19.4815090  67.3962050  48.0175580  20.3796920
  67.3907620  47.5312770  18.9460320  60.0349290  48.0871170  21.2586710
  59.8591770  47.1706710  21.0454510  59.1805030  48.4458460  21.4984510
  67.2587040  45.8160200  18.0413090  66.5652200  45.8137490  17.3815370
  68.0009900  45.3919520  17.6107260  66.8236970  47.4422910  22.1161580
  67.2793920  46.6612290  22.4300200  67.1629490  48.1529730  22.6602760
  71.5713780  36.3721760  32.4486020  70.9558050  36.8801430  31.9201480
  71.2510200  35.4720090  32.3911960  68.6332610  36.4322600  31.0444870
  67.7826200  36.1328350  31.3653940  68.4734400  36.6764610  30.1328690
  62.4617110  31.9655830  19.1918720  61.8371290  31.9615700  19.9172030
  62.3747230  31.0986790  18.7954690  61.3834190  32.8892460  26.1702490
  61.6806520  33.7955290  26.0894510  61.9319750  32.4011240  25.5562060
  59.1372510  37.4678700  22.0394140  58.9113430  37.2515870  22.9440760
  58.3565040  37.9007160  21.6940110  66.3670270  37.4742070  20.6384790
  65.7679160  38.1977870  20.4548410  66.9149880  37.4118850  19.8561240
  64.9735140  36.1105610  22.6688070  65.3664710  36.4277810  21.8556760
  65.3351990  35.2317490  22.7832590  54.1969540  36.6426530  16.1020990
  54.1144210  37.5857290  16.2435980  53.8452600  36.5001440  15.2233340
  65.5590280  38.7011360  26.7638850  64.8271400  39.2098170  27.1128950
  65.1614620  37.8841340  26.4627630  61.9967670  35.3765560  25.1691340
  62.0003730  34.9355510  24.3195880  62.8918790  35.6982890  25.2763160
  57.8470050  35.2592050  24.1285550  57.5070100  35.7367280  24.8852600
  57.0847370  34.8057170  23.7686650  62.0587820  36.3777640  18.1598100
  62.1800640  36.3364120  19.1083920  61.6736330  37.2401790  18.0044830
  66.0216190  34.1545040  26.1761790  66.0388930  34.6053690  27.0203640
  65.7731770  33.2550680  26.3895230  61.0709320  38.6878780  17.5581400
  60.5026220  38.2397030  16.9317310  61.7798320  39.0471560  17.0246550
  69.4486940  31.5677220  32.0148170  69.7732710  30.8366880  32.5406150
  69.4843450  31.2490860  31.1129160  62.2975640  39.4367340  26.9156750
  62.6645770  38.9625910  27.6618090  62.1080700  40.3108910  27.2565090
  55.1616130  34.1811030  23.0450220  54.8763050  33.8166700  23.8828840
  55.0994990  33.4491490  22.4313360  58.6156800  42.6836970  19.8307810
  57.8419060  42.1434590  19.6706530  59.3451430  42.1643580  19.4925570
  69.3744780  41.6802330  25.6234200  70.0943900  42.1757620  25.2330310
  69.1726600  41.0020220  24.9788070  64.8354720  33.0740290  19.7663590
  64.0219330  32.5753460  19.6908900  64.6416670  33.9138540  19.3499940
  67.5503110  37.4459940  18.0625750  68.4382730  37.7577170  17.8877090
  67.5208200  36.5732190  17.6706330  58.6594200  42.3517350  23.4686620
  59.1772870  41.5485610  23.4143510  58.2078220  42.2896490  24.3103450
  63.5463700  43.6183630  18.7413920  63.8879400  44.3625860  18.2457240
  62.7176410  43.9314750  19.1038750  64.6880310  44.5731960  31.2607000
  64.7024850  43.6412920  31.0425910  63.9805410  44.6591720  31.8996770
  69.8217380  38.7571780  17.5305610  69.7381100  39.1886000  16.6802050
  70.5411570  39.2170130  17.9632430  70.8991520  41.2139300  30.6075580
  70.1739710  41.8068080  30.4104970  71.4266980  41.2062840  29.8088950
  70.8504630  45.6114040  20.2587740  70.2080790  44.9569660  20.5331460
  70.4635290  46.0169130  19.4828410  66.4291110  42.9399470  24.1059430
  66.7814930  42.3427600  23.4460800  65.5453440  42.6143700  24.2767680
  62.5154390  43.6997160  21.5129840  63.2025520  44.2466370  21.8937430
  61.7286810  44.2437890  21.5479450  54.6546790  39.3169980  17.0046920
  55.5241640  39.5994780  17.2882840  54.1637110  40.1305850  16.8895730
  61.8181600  40.7043190  21.1255200  62.2744380  41.5148440  21.3515390
  61.4669810  40.3866330  21.9573690  64.1214210  46.2149530  28.3547500
  64.7656430  46.4208910  29.0320920  64.4843650  45.4537930  27.9018350
  65.3946290  44.2181880  27.0724950  66.0368520  43.5175040  27.1857120
  65.9195640  44.9980320  26.8921840  69.2402010  44.5030500  16.7964090
  69.0139590  43.7860940  17.3888730  68.8498210  44.2542940  15.9585840
  67.1683910  45.0176780  30.2761010  67.5040150  45.6043470  30.9538930
  66.2484250  44.8869490  30.5058800  55.0218040  48.5297360  17.5708550
  55.3815680  49.1286700  16.9165820  54.8810380  49.0757250  18.3443580
  68.8218260  42.4202440  18.4578250  68.5339960  42.8815130  19.2456130
  69.6170430  41.9600210  18.7262470  61.0386660  45.9128560  18.3882220
  61.0296760  46.6458250  17.7726730  60.1185020  45.6660140  18.4809180
  56.6393300  41.1343450  19.1328980  56.0321250  41.8742350  19.1424280
  57.1142650  41.2242810  18.3067180  69.5788120  34.2551210  19.6173430
  68.9501280  34.3596880  18.9031660  69.0840040  34.4747990  20.4067310
  64.0246260  45.9756800  17.0507410  64.1258240  45.7720790  16.1209390
  63.1248000  45.7215080  17.2555190  61.5472150  36.5337160  21.0331310
  60.8388300  37.0023500  21.4744920  61.8316630  35.8759170  21.6676500
  65.5787580  33.2587820  22.4727100  65.4555360  33.2773950  21.5236610
  66.5272140  33.3066760  22.5925500  62.6664370  48.4943120  21.7455080
  62.9205870  48.4564510  20.8234450  61.7176850  48.3676450  21.7383330
  59.7507170  34.8422240  18.4082020  60.5997700  35.2792390  18.3422210
  59.3838440  35.1542500  19.2354080  70.3794940  34.1701820  29.8752230
  69.8768540  34.9107220  30.2146040  71.1951600  34.5585820  29.5589020
  68.6716950  39.4135000  23.3213590  67.7307090  39.4285230  23.4961280
  68.9861020  38.6270960  23.7673890  58.6498590  41.0954600  16.8817550
  59.4161860  40.9835960  17.4442980  58.7273280  40.3992570  16.2294320
  57.3445350  38.5279670  17.5650440  57.4248940  37.5807180  17.6767840
  58.2365100  38.8586550  17.6711100  70.6742530  46.5843850  24.9967850
  70.7989950  47.4075020  25.4691660  71.5408090  46.3734580  24.6492000
  58.1460060  48.6775060  24.6684980  58.8822540  48.1290520  24.9393550
  58.5300980  49.5431070  24.5290970  55.0305540  44.7448630  20.5426490
  54.1045320  44.9869770  20.5331900  55.4961970  45.5722890  20.4211240
  61.2562370  47.8505370  16.4910550  62.0490980  48.1394200  16.0392340
  60.7366720  47.4197540  15.8123030  67.4183340  47.6981290  32.4155380
  68.3705090  47.6139310  32.3655620  67.2711560  48.3623000  33.0889170
  70.3092540  47.0775500  17.9147290  70.0234050  46.6640640  17.1001470
  70.1112090  48.0063210  17.7947810  61.7739770  43.0708780  16.3552900
  61.6690410  42.4561130  17.0814280  61.6063990  42.5474670  15.5715910
  65.0142500  42.1328810  16.9594890  64.4652600  42.5798110  17.6037630
  65.6361760  41.6278060  17.4832560  69.0677440  43.4870910  32.8917150
  69.8086910  43.8246670  32.3884610  68.3050120  43.6562970  32.3386920
  60.6817620  41.0919730  18.8560190  61.1034040  40.9259600  19.6991580
  60.8068460  40.2819960  18.3615330  63.1945260  40.1157340  16.1037290
  63.7150920  39.4006360  15.7378440  63.8413660  40.7543210  16.4037800
  67.7423100  41.5385740  31.4272360  68.1564120  41.6930820  32.2762780
  66.8074100  41.6640960  31.5898140  67.1790130  39.7759590  29.3568640
  66.6525350  40.3002210  28.7533780  67.5221470  40.4086980  29.9878370
  59.5776520  37.1652960  15.8018350  59.3765580  36.3020320  16.1631690
  59.4068570  37.0786320  14.8639950  60.3545750  47.7959230  30.5126020
  59.8166840  48.5205290  30.1934720  60.6079710  47.3189570  29.7223360
  67.0564830  31.9761190  18.3305230  67.3367120  31.1329090  18.6864650
  66.2830560  32.2084300  18.8443980  58.3759320  34.2653580  15.7896230
  58.6785220  34.2721010  14.8815380  59.1153910  33.9151440  16.2863890
  63.2107960  49.0310440  30.7712670  63.1366660  49.9345580  31.0785040
  62.3086800  48.7122340  30.7434740  61.5944250  33.2088200  16.7752430
  61.2466250  32.5312190  16.1954880  61.7957020  32.7477710  17.5895820
  63.7593290  48.1968950  18.3939030  64.6544080  48.5353920  18.4157790
  63.7910920  47.4748360  17.7663310  57.3989450  43.5696000  16.6226030
  57.8364320  44.1125670  17.2783610  57.8837180  42.7442950  16.6322370
  54.6135250  46.3585030  24.0746290  54.9438260  45.4906090  23.8424930
  55.0426250  46.5643550  24.9051250  59.2097170  44.6894040  21.7348260
  58.9092710  44.5659010  22.6352170  59.1034660  43.8302630  21.3263990
  55.1025460  47.2255620  26.8127920  54.6656450  47.4056420  27.6452070
  55.6703140  47.9830240  26.6709640  70.7387640  46.7272620  31.1005230
  70.1389630  46.7865180  30.3569150  70.8681540  45.7877600  31.2302080
  71.9789090  44.4690440  16.4374940  71.1482050  44.5367090  16.9082170
  72.1560920  45.3594560  16.1341800  71.4345550  41.2137920  18.9409140
  72.1964460  41.7834570  19.0468830  71.4499920  40.6465120  19.7117450
  54.9349890  39.7375850  23.1716800  54.2798730  39.4687490  22.5276500
  55.7727840  39.6280330  22.7218780  72.4405520  42.0688020  23.7851070
  72.8114350  41.2855340  23.3787040  73.0807450  42.7577120  23.6068370
  69.4239280  43.4524600  29.1981390  68.6099120  43.8821760  29.4607180
  69.8313480  44.0643010  28.5850440  71.4864720  41.5072290  16.0981660
  71.7613560  42.4151170  15.9700880  71.2975460  41.4434820  17.0343650
  67.8840330  34.5317140  17.3935290  68.3025210  34.3448120  16.5531950
  67.5776390  33.6796190  17.7038220  71.3830060  39.4441280  21.0911090
  71.0073660  38.6769210  20.6592380  70.6533180  39.8263980  21.5786020
  70.7729680  38.5912800  30.7250610  70.5415770  38.3625550  29.8248560
  71.0334230  39.5112350  30.6795500  54.1487970  36.9474780  19.1142130
  53.2452050  37.2104980  18.9393790  54.6328590  37.2185950  18.3342090
  70.6581020  37.6698770  24.3918330  71.1818500  37.1761420  23.7608500
  71.2440440  37.8049130  25.1365900  70.8370740  37.7538640  27.9137880
  69.8873450  37.7202180  28.0282870  71.0183750  38.6638750  27.6787650
  56.6915180  36.0040320  17.0236510  57.4006880  35.5823540  16.5383790
  55.9755120  36.0715550  16.3919860  56.3389340  32.0579650  16.0639160
  57.0617470  32.5988590  16.3820380  56.6113860  31.7843070  15.1880700
  70.1480990  36.9272120  20.3310740  70.6440110  36.6942990  21.1159620
  69.9497060  36.0883960  19.9148380  71.5768150  35.5633070  22.8648420
  71.4667430  35.4089110  23.8030690  72.3375740  35.0354010  22.6223830
  69.9233870  31.5027200  29.3231420  70.5606090  32.1161340  29.6890610
  70.0708760  31.5387860  28.3780650  72.4658420  33.3940990  16.1054560
  73.3907730  33.2622170  15.8972850  72.4434210  33.4733810  17.0591010
  72.5396910  34.1651650  18.7311270  71.7448410  34.0996770  19.2604180
  72.7440190  35.1002290  18.7196620  69.4815330  48.2043200  22.7249660
  70.0774400  47.8827770  22.0484080  69.7393480  47.7315020  23.5162930
  61.0883930  46.1920700  28.4750010  60.8475290  46.4595260  27.5880530
  62.0286570  46.3626430  28.5300870  72.3488090  48.2115080  29.2760650
  71.8546370  48.6083950  28.5587780  71.7401380  47.5864290  29.6697930
  70.0327540  48.8538500  26.5547390  69.5730510  49.6054310  26.1805410
  69.4040000  48.1344970  26.4962190  56.8578160  44.9481740  28.9446110
  56.1312220  44.3287030  28.8772060  56.9187310  45.3422350  28.0744190
  60.4623260  47.1626740  25.7295520  60.9788280  46.5514100  25.2043780
  61.1120640  47.6655520  26.2206530  63.2018760  48.0535230  26.5564500
  63.4896570  47.7989530  25.6797510  63.7141980  47.5012590  27.1470070
  68.9716840  32.4948530  25.1810100  69.4124930  32.4393630  24.3331700
  68.7024430  33.4106540  25.2520280  70.8355410  32.1263770  23.1918920
  70.7743810  31.1824990  23.0449940  71.6147440  32.2343860  23.7372380
  55.1408160  48.2656130  22.1542870  54.9730200  47.6326810  22.8524760
  54.2742670  48.4715530  21.8037060  55.7636180  32.0972910  19.6574730
  56.5215540  32.2101790  19.0838760  55.3013350  32.9342110  19.6118160
  62.3049990  34.2112180  22.6477040  61.4924500  33.8369070  22.3072920
  62.8091630  33.4557260  22.9498230  66.8074970  30.8754630  23.8860110
  67.4104340  31.4474840  24.3608630  66.0667960  31.4394070  23.6634010
  69.9509570  31.2776190  19.1600390  70.1460200  32.1759640  19.4267820
  69.1639440  31.0463270  19.6533340  56.7470860  46.9589360  19.5993010
  56.2218480  47.3397390  18.8954970  56.6715440  47.5840130  20.3202720
  58.1361330  32.6236960  18.1976700  58.6654090  31.8366760  18.0684650
  58.7689650  33.3028150  18.4312230  60.3299170  32.3612100  21.2522090
  59.7001910  31.6599410  21.4192220  59.7904310  33.1216230  21.0355250
  63.2691120  48.9751330  33.9232700  64.1958430  48.7395600  33.9668660
  63.2541550  49.8023330  33.4418730  71.5036180  48.5176900  20.9206950
  71.6788370  47.8314640  20.2767870  70.8057750  49.0423950  20.5283620
  59.3463830  48.9071740  18.4742260  60.0782650  48.6231020  17.9266150
  59.6057500  48.6685020  19.3641640  58.5078620  45.0236470  18.4788590
  57.8787500  45.4921570  19.0274420  58.6226450  44.1785690  18.9134780
  69.8368680  48.2021190  33.7473740  70.6294000  47.7070420  33.5399700
  70.1301830  48.8811330  34.3549350  65.9628340  39.0742130   4.6289790
  65.8822390  38.1596740   4.3581500  65.5492760  39.5709200   3.9229500
  64.0946380  40.8521150   6.5099060  63.3188480  40.3721590   6.7997630
  64.7459310  40.1726800   6.3355220  58.1112210  41.1640960   7.3874820
  57.2797090  40.9089670   7.7871330  58.7193190  41.2351730   8.1232740
  68.1153810  45.2581340   5.2898190  67.6535340  44.4868580   5.6185360
  68.9279360  45.2847410   5.7950640  58.0913470  45.1981050   7.5832840
  58.3941510  44.3078790   7.4043060  58.8357060  45.7551270   7.3555090
  54.4837170  38.7248500   7.0556910  55.0553280  37.9570700   7.0560550
  54.4838710  39.0237260   6.1463520  64.3417120  47.5439350   4.9102180
  63.7228560  47.9996850   4.3396620  65.1968900  47.6990810   4.5091880
  63.5355370  43.5278340   6.5169220  63.4663650  42.5868280   6.3558350
  64.2975230  43.6179750   7.0891790  55.7262040  34.1332860   8.8425840
  55.5464880  33.2358610   9.1228600  55.3242120  34.6804730   9.5172790
  64.5660540  36.3348720   6.7438150  64.9425360  35.4620600   6.6311820
  64.4680050  36.6707420   5.8528590  58.6965550  34.7074350   2.2055590
  58.8032300  35.6078080   2.5124350  57.7857910  34.6592320   1.9150240
  68.3484660  33.8299160   3.6766490  69.1694280  33.3395730   3.7191970
  68.3818740  34.4196820   4.4298330  56.3448710  36.6293360   7.4508180
  57.0258820  36.8931730   8.0695580  56.0296760  35.7894230   7.7846190
  60.5373280  37.6760720   6.5380770  61.0451500  38.1741690   7.1785790
  61.0686520  36.8995920   6.3620130  72.6384210  35.8465910  10.2410120
  71.9336380  36.2347620   9.7225230  72.9042130  36.5416200  10.8431050
  58.8209380  32.3159280  10.8044190  58.8227820  32.8331670   9.9990090
  57.9913690  31.8389460  10.7814120  65.2080470  42.4278590   2.3034090
  64.5897740  42.8928040   1.7396810  65.7203720  43.1206070   2.7203600
  60.0712230  41.9554460   8.9817690  59.7381610  42.5823380   9.6238760
  60.2478910  42.4816340   8.2019360  68.5846140  35.7699540   6.4494030
  67.8801710  36.0584430   7.0297140  68.9458300  36.5799650   6.0893590
  58.5024710  34.0269240   8.8114640  58.8441520  34.8711290   8.5168510
  57.5640520  34.1752980   8.9279980  59.2831330  43.9235260  10.7966870
  59.9005330  44.5986340  10.5151320  58.4224450  44.3323240  10.7054370
  70.2008920  45.3874670   8.7121510  69.5172440  46.0573780   8.7038180
  70.7403210  45.5855320   7.9466370  71.6533060  35.2154330   6.8403240
  70.7057970  35.2493310   6.9718670  71.9783050  36.0293280   7.2252600
  62.1852600  31.5151510   5.1359230  62.4927580  30.9598400   4.4194730
  61.2553300  31.6495970   4.9532220  67.7367660  47.2318800   7.4266690
  67.7494820  46.8281090   6.5588950  67.1842880  48.0066090   7.3228120
  69.0313080  43.9535020   2.5156860  68.9209410  43.0109350   2.6406280
  69.0281330  44.3150660   3.4019620  67.1353100  42.1348640   8.7549300
  67.5521890  41.9208750   7.9202760  67.8592920  42.3921430   9.3257920
  64.5733360  39.5800340   1.8719350  63.6462640  39.5137720   2.1007820
  64.7258180  40.5180470   1.7574590  71.0815200  40.5335860   8.8465540
  70.2533830  40.6028950   8.3715670  71.6765680  41.1190170   8.3781370
  68.6030650  41.1420640   2.3754600  67.9843070  40.8040190   1.7280900
  68.5855100  40.4980400   3.0833790  68.0457210  37.3205180   9.7920410
  67.6328390  38.1458890  10.0460400  67.3133160  36.7350220   9.5996770
  60.1790000  40.1065080   4.6539080  59.7747000  39.3942330   4.1584980
  60.2653120  39.7618320   5.5427120  60.6471700  43.7932640   6.8178290
  60.3499990  43.1878110   6.1386070  61.5971520  43.8309950   6.7067650
  58.8918620  36.8808290   8.4338120  59.4433210  36.9903630   7.6591370
  59.4062130  37.2545890   9.1493350  68.7357310  47.3664510  10.4801390
  68.2587870  48.1736700  10.2874000  68.0519100  46.7142840  10.6327600
  59.7390130  43.5314330  13.4686090  58.8418660  43.7554300  13.7159490
  59.7643000  43.6549270  12.5197490  58.5661350  40.4027650  12.0443460
  58.4269120  41.2750450  12.4130860  57.6842710  40.0600460  11.8991400
  64.8890730  45.3203520   3.3508590  65.3286640  46.0627850   2.9363980
  64.8277620  45.5630090   4.2747550  60.3641700  46.3449350  14.2528610
  60.3357130  46.7492300  13.3857040  60.2006670  45.4159710  14.0900210
  56.8794630  39.0010060   2.1545730  56.7592230  39.7272150   1.5427000
  56.5695520  38.2312970   1.6773640  72.3156520  47.1276450  15.5492780
  72.7916240  47.6059340  16.2281860  72.9363680  47.0593940  14.8238280
  54.5180000  42.1725200   7.9614370  54.5960420  42.3073970   7.0170090
  55.1321680  41.4641090   8.1542490  55.7627630  43.8725390   4.3720550
  55.3555710  44.0139980   3.5174150  56.6540640  43.5885550   4.1691760
  71.7189770  44.3189300  12.7092790  71.8452830  44.0801180  11.7909970
  71.7611150  43.4873840  13.1814870  65.5806510  48.0217300  11.2787600
  66.0951180  47.9325310  12.0810030  64.7375590  48.3677000  11.5715510
  60.0349290  48.0871170   2.4843220  59.8591770  47.1706710   2.2711020
  59.1805030  48.4458460   2.7241020  66.8236970  47.4422910   3.3418090
  67.2793920  46.6612290   3.6556710  67.1629490  48.1529730   3.8859270
  71.5713780  36.3721760  13.6742530  70.9558050  36.8801430  13.1457990
  71.2510200  35.4720090  13.6168470  54.5739520  43.2139370  10.5008830
  54.7370560  42.7444730   9.6828200  55.0391970  42.7062930  11.1657670
  59.3458290  32.3445130   5.5369400  58.9026440  33.1254670   5.2053920
  59.9043280  32.6675020   6.2440340  63.6328100  35.2113650  11.1404720
  63.1707470  35.4196670  11.9524660  63.2306210  34.3973000  10.8375390
  68.6332610  36.4322600  12.2701380  67.7826200  36.1328350  12.5910450
  68.4734400  36.6764610  11.3585200  65.7282320  37.9324350  14.3700170
  66.0535730  37.0988100  14.0302400  66.5162650  38.4552870  14.5178500
  61.3834190  32.8892460   7.3959000  61.6806520  33.7955290   7.3151020
  61.9319750  32.4011240   6.7818570  59.1372510  37.4678700   3.2650650
  58.9113430  37.2515870   4.1697270  58.3565040  37.9007160   2.9196620
  61.5771720  38.3664280  13.9310920  61.4815320  37.4259010  13.7811320
  62.4203700  38.5879350  13.5358990  64.9735140  36.1105610   3.8944580
  65.3664710  36.4277810   3.0813270  65.3351990  35.2317490   4.0089100
  56.7082260  34.7777950  12.0844700  56.3145650  35.6253160  12.2917480
  56.0200660  34.1404320  12.2753340  63.2827310  34.8612920  15.1541440
  62.5925630  34.6685120  15.7887530  64.0259610  35.1447560  15.6865740
  54.0099310  32.7006410   6.1174780  53.7212360  33.2709270   6.8299760
  54.7545070  32.2210860   6.4806010  65.5590280  38.7011360   7.9895360
  64.8271400  39.2098170   8.3385460  65.1614620  37.8841340   7.6884140
  61.9967670  35.3765560   6.3947850  62.0003730  34.9355510   5.5452390
  62.8918790  35.6982890   6.5019670  57.8470050  35.2592050   5.3542060
  57.5070100  35.7367280   6.1109110  57.0847370  34.8057170   4.9943160
  66.0216190  34.1545040   7.4018300  66.0388930  34.6053690   8.2460150
  65.7731770  33.2550680   7.6151740  69.4486940  31.5677220  13.2404680
  69.7732710  30.8366880  13.7662660  69.4843450  31.2490860  12.3385670
  56.1478500  42.5890800  12.6604640  55.7633290  41.9484470  13.2587600
  56.4590690  43.2926920  13.2299370  62.2975640  39.4367340   8.1413260
  62.6645770  38.9625910   8.8874600  62.1080700  40.3108910   8.4821600
  55.1616130  34.1811030   4.2706730  54.8763050  33.8166700   5.1085350
  55.0994990  33.4491490   3.6569870  60.0875010  38.4775980  10.4597470
  59.7832080  39.3567960  10.6847830  61.0421470  38.5375770  10.4954910
  69.3744780  41.6802330   6.8490710  70.0943900  42.1757620   6.4586820
  69.1726600  41.0020220   6.2044580  64.7563580  41.7511390  12.7359710
  64.6900890  40.8307060  12.4817300  64.1268720  41.8486830  13.4504350
  58.6594200  42.3517350   4.6943130  59.1772870  41.5485610   4.6400020
  58.2078220  42.2896490   5.5359960  56.1438740  39.3178720  11.6068830
  55.7853680  39.9832570  12.1942170  55.8493300  38.4862270  11.9781450
  59.3451860  39.7762960  14.4908380  59.0452000  39.9220140  13.5936200
  60.1163100  39.2168250  14.3981770  64.6880310  44.5731960  12.4863510
  64.7024850  43.6412920  12.2682420  63.9805410  44.6591720  13.1253280
  70.8991520  41.2139300  11.8332090  70.1739710  41.8068080  11.6361480
  71.4266980  41.2062840  11.0345460  66.4291110  42.9399470   5.3315940
  66.7814930  42.3427600   4.6717310  65.5453440  42.6143700   5.5024190
  62.5154390  43.6997160   2.7386350  63.2025520  44.2466370   3.1193940
  61.7286810  44.2437890   2.7735960  61.8181600  40.7043190   2.3511710
  62.2744380  41.5148440   2.5771900  61.4669810  40.3866330   3.1830200
  64.1214210  46.2149530   9.5804010  64.7656430  46.4208910  10.2577430
  64.4843650  45.4537930   9.1274860  57.7193380  31.0480840   2.8234230
  57.5908010  31.0398740   3.7719150  56.8955400  31.3863930   2.4725240
  65.3946290  44.2181880   8.2981460  66.0368520  43.5175040   8.4113630
  65.9195640  44.9980320   8.1178350  67.1683910  45.0176780  11.5017520
  67.5040150  45.6043470  12.1795440  66.2484250  44.8869490  11.7315310
  54.7187310  32.8071960  12.2840930  54.0045830  33.0068880  12.8893540
  55.1382350  32.0311530  12.6555730  55.0059900  46.7952220  13.2707460
  55.1151020  45.8546960  13.1302850  54.3540460  47.0606970  12.6221190
  62.9972490  45.0668110  14.6705580  62.6769360  44.3477350  15.2151270
  62.3230850  45.7423180  14.7441640  66.2126090  35.2994270  10.0342380
  66.5806910  34.4789480  10.3621950  65.3524290  35.3596160  10.4498030
  61.5472150  36.5337160   2.2587820  60.8388300  37.0023500   2.7001430
  61.8316630  35.8759170   2.8933010  63.1728080  37.9533860  10.2580350
  63.6713330  38.4279680  10.9232200  63.3151030  37.0297380  10.4650380
  65.5787580  33.2587820   3.6983610  65.4555360  33.2773950   2.7493120
  66.5272140  33.3066760   3.8182010  62.6664370  48.4943120   2.9711590
  62.9205870  48.4564510   2.0490960  61.7176850  48.3676450   2.9639840
  70.3794940  34.1701820  11.1008740  69.8768540  34.9107220  11.4402550
  71.1951600  34.5585820  10.7845530  68.6716950  39.4135000   4.5470100
  67.7307090  39.4285230   4.7217790  68.9861020  38.6270960   4.9930400
  70.6742530  46.5843850   6.2224360  70.7989950  47.4075020   6.6948170
  71.5408090  46.3734580   5.8748510  58.1460060  48.6775060   5.8941490
  58.8822540  48.1290520   6.1650060  58.5300980  49.5431070   5.7547480
  55.0305540  44.7448630   1.7683000  54.1045320  44.9869770   1.7588410
  55.4961970  45.5722890   1.6467750  57.1518340  47.8621130  15.0827070
  57.9531070  48.1833180  15.4962470  56.6370160  47.5016710  15.8046980
  65.9882970  43.9701000  15.0302480  65.3821130  43.9932600  14.2898230
  65.6837080  43.2384040  15.5669730  67.4183340  47.6981290  13.6411890
  68.3705090  47.6139310  13.5912130  67.2711560  48.3623000  14.3145680
  54.8716150  40.3494590  14.0263120  55.3755170  39.7701870  14.5979350
  54.1323570  40.6334820  14.5639490  61.9254090  41.7565580  13.5598640
  61.1599760  42.3250580  13.4753310  62.1070050  41.4641790  12.6666870
  69.0677440  43.4870910  14.1173660  69.8086910  43.8246670  13.6141120
  68.3050120  43.6562970  13.5643430  56.9039230  38.4924180  14.9213190
  56.9444570  38.1938050  15.8298420  57.7584730  38.8931790  14.7620710
  58.8445040  37.0716280  12.8887680  58.3141500  36.5807230  12.2611020
  59.5133110  37.5000480  12.3545610  67.7423100  41.5385740  12.6528870
  68.1564120  41.6930820  13.5019290  66.8074100  41.6640960  12.8154650
  68.2145270  38.8781900  14.6568020  68.7966040  38.1234220  14.5688500
  68.3907040  39.4089340  13.8799500  59.3317340  34.0378650  12.9684970
  59.2374210  33.4199400  12.2435840  58.7514730  34.7644940  12.7414880
  62.0978780  32.5951890  10.0012360  61.6496080  32.6176150   9.1557910
  61.4643980  32.1970910  10.5982660  62.5038330  41.4906220  10.6224800
  62.9226440  42.3338950  10.4501040  61.5846960  41.6278260  10.3931580
  64.8402230  39.2222400  12.0062640  64.9598440  38.6263540  12.7457480
  65.6996230  39.2592090  11.5863940  67.1790130  39.7759590  10.5825150
  66.6525350  40.3002210   9.9790290  67.5221470  40.4086980  11.2134880
  60.3545750  47.7959230  11.7382530  59.8166840  48.5205290  11.4191230
  60.6079710  47.3189570  10.9479870  61.6071000  35.7643750  13.2638460
  62.1970690  35.4559600  13.9516280  60.7891240  35.2923500  13.4198360
  66.4264430  35.3809560  13.4971480  65.7379950  34.7191100  13.4321470
  67.1470450  34.9347830  13.9419940  63.2107960  49.0310440  11.9969180
  63.1366660  49.9345580  12.3041550  62.3086800  48.7122340  11.9691250
  54.6135250  46.3585030   5.3002800  54.9438260  45.4906090   5.0681440
  55.0426250  46.5643550   6.1307760  59.2097170  44.6894040   2.9604770
  58.9092710  44.5659010   3.8608680  59.1034660  43.8302630   2.5520500
  55.1025460  47.2255620   8.0384430  54.6656450  47.4056420   8.8708580
  55.6703140  47.9830240   7.8966150  70.7387640  46.7272620  12.3261740
  70.1389630  46.7865180  11.5825660  70.8681540  45.7877600  12.4558590
  54.9349890  39.7375850   4.3973310  54.2798730  39.4687490   3.7533010
  55.7727840  39.6280330   3.9475290  72.4405520  42.0688020   5.0107580
  72.8114350  41.2855340   4.6043550  73.0807450  42.7577120   4.8324880
  69.4239280  43.4524600  10.4237900  68.6099120  43.8821760  10.6863690
  69.8313480  44.0643010   9.8106950  71.3830060  39.4441280   2.3167600
  71.0073660  38.6769210   1.8848890  70.6533180  39.8263980   2.8042530
  55.9725820  40.1228420   8.9376650  56.3398860  40.0355820   9.8172670
  55.4036640  39.3594970   8.8383510  70.7729680  38.5912800  11.9507120
  70.5415770  38.3625550  11.0505070  71.0334230  39.5112350  11.9052010
  55.5241820  37.0337510  12.8435070  54.6297870  37.0004270  13.1828780
  56.0639370  37.2324300  13.6086320  69.2117750  33.8169230  14.7286820
  70.0887930  33.8252630  15.1120820  69.2238590  33.0800070  14.1179170
  70.6581020  37.6698770   5.6174840  71.1818500  37.1761420   4.9865010
  71.2440440  37.8049130   6.3622410  70.8370740  37.7538640   9.1394390
  69.8873450  37.7202180   9.2539380  71.0183750  38.6638750   8.9044160
  56.0281530  31.3085840   7.1918290  56.6757720  30.7583220   6.7513450
  56.4483370  31.5628990   8.0134100  71.5768150  35.5633070   4.0904930
  71.4667430  35.4089110   5.0287200  72.3375740  35.0354010   3.8480340
  69.9233870  31.5027200  10.5487930  70.5606090  32.1161340  10.9147120
  70.0708760  31.5387860   9.6037160  69.4815330  48.2043200   3.9506170
  70.0774400  47.8827770   3.2740590  69.7393480  47.7315020   4.7419440
  55.7813530  31.4641510   9.9343610  55.4328350  31.9205330  10.7001790
  55.4501230  30.5698640  10.0166040  57.3877900  44.6361110  14.0996800
  57.3447530  44.2654020  14.9811260  57.5188910  45.5738680  14.2398620
  61.0883930  46.1920700   9.7006520  60.8475290  46.4595260   8.8137040
  62.0286570  46.3626430   9.7557380  63.2938350  32.6553390  13.4563030
  63.2327240  33.2475220  14.2058440  64.2338730  32.5479350  13.3113290
  65.9312910  32.3123450  13.0955320  66.5453320  32.6302740  12.4336400
  66.4762470  31.8272040  13.7151180  72.3488090  48.2115080  10.5017160
  71.8546370  48.6083950   9.7844290  71.7401380  47.5864290  10.8954440
  56.4534170  30.9917710  13.2094380  57.0017160  30.8105760  12.4460490
  56.5189480  30.2011820  13.7450690  57.2265930  47.5823360  11.2194580
  56.6326250  47.4508060  11.9584620  57.2189770  46.7461500  10.7536680
  66.6720950  30.8755590   9.4224610  65.7980790  31.2090700   9.2197540
  66.5631700  30.4028770  10.2476480  67.5792930  33.0826460  10.8066330
  67.2506290  32.2678220  10.4268060  68.5275230  33.0396270  10.6832020
  70.0327540  48.8538500   7.7803900  69.5730510  49.6054310   7.4061920
  69.4040000  48.1344970   7.7218700  56.8578160  44.9481740  10.1702620
  56.1312220  44.3287030  10.1028570  56.9187310  45.3422350   9.3000700
  60.4623260  47.1626740   6.9552030  60.9788280  46.5514100   6.4300290
  61.1120640  47.6655520   7.4463040  63.2018760  48.0535230   7.7821010
  63.4896570  47.7989530   6.9054020  63.7141980  47.5012590   8.3726580
  64.4195770  31.7925430   8.3617520  63.6367560  32.2670930   8.6414280
  64.1258700  30.8880260   8.2530700  68.9716840  32.4948530   6.4066610
  69.4124930  32.4393630   5.5588210  68.7024430  33.4106540   6.4776790
  70.8355410  32.1263770   4.4175430  70.7743810  31.1824990   4.2706450
  71.6147440  32.2343860   4.9628890  55.1408160  48.2656130   3.3799380
  54.9730200  47.6326810   4.0781270  54.2742670  48.4715530   3.0293570
  62.3049990  34.2112180   3.8733550  61.4924500  33.8369070   3.5329430
  62.8091630  33.4557260   4.1754740  66.8074970  30.8754630   5.1116620
  67.4104340  31.4474840   5.5865140  66.0667960  31.4394070   4.8890520
  60.3299170  32.3612100   2.4778600  59.7001910  31.6599410   2.6448730
  59.7904310  33.1216230   2.2611760  63.2691120  48.9751330  15.1489210
  64.1958430  48.7395600  15.1925170  63.2541550  49.8023330  14.6675240
  71.5036180  48.5176900   2.1463460  71.6788370  47.8314640   1.5024380
  70.8057750  49.0423950   1.7540130  60.4554730  31.6396080  14.9131090
  60.1739000  32.1429680  14.1491910  60.8374430  30.8417830  14.5473220
  67.0570190  31.0549660  15.4911560  66.9435640  31.3744270  16.3863080
  67.8739930  31.4562170  15.1948840  69.8368680  48.2021190  14.9730250
  70.6294000  47.7070420  14.7656210  70.1301830  48.8811330  15.5805860
  65.9628340  20.2998640  98.5007240  65.8822390  19.3853250  98.2298950
  65.5492760  20.7965710  97.7946950  64.0946380  22.0777660 100.3816510
  63.3188480  21.5978100 100.6715080  64.7459310  21.3983310 100.2072670
  58.1112210  22.3897470 101.2592270  57.2797090  22.1346180 101.6588780
  58.7193190  22.4608240 101.9950190  68.1153810  26.4837850  99.1615640
  67.6535340  25.7125090  99.4902810  68.9279360  26.5103920  99.6668090
  58.0913470  26.4237560 101.4550290  58.3941510  25.5335300 101.2760510
  58.8357060  26.9807780 101.2272540  56.5204160  17.3499360  95.0434660
  55.6320860  17.6915330  94.9414540  56.8045350  17.1499680  94.1515490
  54.4837170  19.9505010 100.9274360  55.0553280  19.1827210 100.9278000
  54.4838710  20.2493770 100.0180970  64.3417120  28.7695860  98.7819630
  63.7228560  29.2253360  98.2114070  65.1968900  28.9247320  98.3809330
  63.5355370  24.7534850 100.3886670  63.4663650  23.8124790 100.2275800
  64.2975230  24.8436260 100.9609240  55.7262040  15.3589370 102.7143290
  55.5464880  14.4615120 102.9946050  55.3242120  15.9061240 103.3890240
  64.5660540  17.5605230 100.6155600  64.9425360  16.6877110 100.5029270
  64.4680050  17.8963930  99.7246040  58.6965550  15.9330860  96.0773040
  58.8032300  16.8334590  96.3841800  57.7857910  15.8848830  95.7867690
  68.3484660  15.0555670  97.5483940  69.1694280  14.5652240  97.5909420
  68.3818740  15.6453330  98.3015780  56.3448710  17.8549870 101.3225630
  57.0258820  18.1188240 101.9413030  56.0296760  17.0150740 101.6563640
  60.5373280  18.9017230 100.4098220  61.0451500  19.3998200 101.0503240
  61.0686520  18.1252430 100.2337580  72.6384210  17.0722420 104.1127570
  71.9336380  17.4604130 103.5942680  72.9042130  17.7672710 104.7148500
  58.8209380  13.5415790 104.6761640  58.8227820  14.0588180 103.8707540
  57.9913690  13.0645970 104.6531570  65.2080470  23.6535100  96.1751540
  64.5897740  24.1184550  95.6114260  65.7203720  24.3462580  96.5921050
  60.0712230  23.1810970 102.8535140  59.7381610  23.8079890 103.4956210
  60.2478910  23.7072850 102.0736810  68.5846140  16.9956050 100.3211480
  67.8801710  17.2840940 100.9014590  68.9458300  17.8056160  99.9611040
  58.5024710  15.2525750 102.6832090  58.8441520  16.0967800 102.3885960
  57.5640520  15.4009490 102.7997430  59.2831330  25.1491770 104.6684320
  59.9005330  25.8242850 104.3868770  58.4224450  25.5579750 104.5771820
  54.5763670  24.3391630  93.5491170  54.1991650  24.8278730  92.8176070
  54.8336740  25.0116910  94.1797700  70.2008920  26.6131180 102.5838960
  69.5172440  27.2830290 102.5755630  70.7403210  26.8111830 101.8183820
  71.6533060  16.4410840 100.7120690  70.7057970  16.4749820 100.8436120
  71.9783050  17.2549790 101.0970050  62.1852600  12.7408020  99.0076680
  62.4927580  12.1854910  98.2912180  61.2553300  12.8752480  98.8249670
  67.7367660  28.4575310 101.2984140  67.7494820  28.0537600 100.4306400
  67.1842880  29.2322600 101.1945570  69.0313080  25.1791530  96.3874310
  68.9209410  24.2365860  96.5123730  69.0281330  25.5407170  97.2737070
  67.1353100  23.3605150 102.6266750  67.5521890  23.1465260 101.7920210
  67.8592920  23.6177940 103.1975370  64.5733360  20.8056850  95.7436800
  63.6462640  20.7394230  95.9725270  64.7258180  21.7436980  95.6292040
  64.5602440  17.0773850  92.7403960  63.6206110  17.2387810  92.8256420
  64.8785700  17.7959530  92.1939950  71.0815200  21.7592370 102.7182990
  70.2533830  21.8285460 102.2433120  71.6765680  22.3446680 102.2498820
  68.6030650  22.3677150  96.2472050  67.9843070  22.0296700  95.5998350
  68.5855100  21.7236910  96.9551240  68.0457210  18.5461690 103.6637860
  67.6328390  19.3715400 103.9177850  67.3133160  17.9606730 103.4714220
  60.1790000  21.3321590  98.5256530  59.7747000  20.6198840  98.0302430
  60.2653120  20.9874830  99.4144570  60.6471700  25.0189150 100.6895740
  60.3499990  24.4134620 100.0103520  61.5971520  25.0566460 100.5785100
  58.8918620  18.1064800 102.3055570  59.4433210  18.2160140 101.5308820
  59.4062130  18.4802400 103.0210800  68.7357310  28.5921020 104.3518840
  68.2587870  29.3993210 104.1591450  68.0519100  27.9399350 104.5045050
  66.7795350  21.6063960  93.2544800  67.2188630  20.7686390  93.1082620
  67.4923770  22.2393360  93.3408940  64.8890730  26.5460030  97.2226040
  65.3286640  27.2884360  96.8081430  64.8277620  26.7886600  98.1465000
  70.3612490  12.8606770  91.5685840  70.0485150  12.9533600  92.4684910
  71.1224960  13.4387800  91.5183270  56.8794630  20.2266570  96.0263180
  56.7592230  20.9528660  95.4144450  56.5695520  19.4569480  95.5491090
  54.5180000  23.3981710 101.8331820  54.5960420  23.5330480 100.8887540
  55.1321680  22.6897600 102.0259940  55.7627630  25.0981900  98.2438000
  55.3555710  25.2396490  97.3891600  56.6540640  24.8142060  98.0409210
  67.5560910  29.5329150  94.5789050  67.3962050  29.2432090  95.4770880
  67.3907620  28.7569280  94.0434280  60.0349290  29.3127680  96.3560670
  59.8591770  28.3963220  96.1428470  59.1805030  29.6714970  96.5958470
  67.2587040  27.0416710  93.1387050  66.5652200  27.0394000  92.4789330
  68.0009900  26.6176030  92.7081220  66.8236970  28.6679420  97.2135540
  67.2793920  27.8868800  97.5274160  67.1629490  29.3786240  97.7576720
  59.3458290  13.5701640  99.4086850  58.9026440  14.3511180  99.0771370
  59.9043280  13.8931530 100.1157790  62.4617110  13.1912340  94.2892680
  61.8371290  13.1872210  95.0145990  62.3747230  12.3243300  93.8928650
  61.3834190  14.1148970 101.2676450  61.6806520  15.0211800 101.1868470
  61.9319750  13.6267750 100.6536020  59.1372510  18.6935210  97.1368100
  58.9113430  18.4772380  98.0414720  58.3565040  19.1263670  96.7914070
  66.3670270  18.6998580  95.7358750  65.7679160  19.4234380  95.5522370
  66.9149880  18.6375360  94.9535200  64.9735140  17.3362120  97.7662030
  65.3664710  17.6534320  96.9530720  65.3351990  16.4574000  97.8806550
  54.0099310  13.9262920  99.9892230  53.7212360  14.4965780 100.7017210
  54.7545070  13.4467370 100.3523460  54.1969540  17.8683040  91.1994950
  54.1144210  18.8113800  91.3409940  53.8452600  17.7257950  90.3207300
  65.5590280  19.9267870 101.8612810  64.8271400  20.4354680 102.2102910
  65.1614620  19.1097850 101.5601590  61.9967670  16.6022070 100.2665300
  62.0003730  16.1612020  99.4169840  62.8918790  16.9239400 100.3737120
  57.8470050  16.4848560  99.2259510  57.5070100  16.9623790  99.9826560
  57.0847370  16.0313680  98.8660610  62.0587820  17.6034150  93.2572060
  62.1800640  17.5620630  94.2057880  61.6736330  18.4658300  93.1018790
  66.0216190  15.3801550 101.2735750  66.0388930  15.8310200 102.1177600
  65.7731770  14.4807190 101.4869190  61.0709320  19.9135290  92.6555360
  60.5026220  19.4653540  92.0291270  61.7798320  20.2728070  92.1220510
  62.2975640  20.6623850 102.0130710  62.6645770  20.1882420 102.7592050
  62.1080700  21.5365420 102.3539050  55.1616130  15.4067540  98.1424180
  54.8763050  15.0423210  98.9802800  55.0994990  14.6748000  97.5287320
  60.0875010  19.7032490 104.3314920  59.7832080  20.5824470 104.5565280
  61.0421470  19.7632280 104.3672360  58.6156800  23.9093480  94.9281770
  57.8419060  23.3691100  94.7680490  59.3451430  23.3900090  94.5899530
  69.3744780  22.9058840 100.7208160  70.0943900  23.4014130 100.3304270
  69.1726600  22.2276730 100.0762030  64.8354720  14.2996800  94.8637550
  64.0219330  13.8009970  94.7882860  64.6416670  15.1395050  94.4473900
  67.5503110  18.6716450  93.1599710  68.4382730  18.9833680  92.9851050
  67.5208200  17.7988700  92.7680290  58.6594200  23.5773860  98.5660580
  59.1772870  22.7742120  98.5117470  58.2078220  23.5153000  99.4077410
  63.5463700  24.8440140  93.8387880  63.8879400  25.5882370  93.3431200
  62.7176410  25.1571260  94.2012710  69.8217380  19.9828290  92.6279570
  69.7381100  20.4142510  91.7776010  70.5411570  20.4426640  93.0606390
  70.8504630  26.8370550  95.3561700  70.2080790  26.1826170  95.6305420
  70.4635290  27.2425640  94.5802370  66.4291110  24.1655980  99.2033390
  66.7814930  23.5684110  98.5434760  65.5453440  23.8400210  99.3741640
  62.5154390  24.9253670  96.6103800  63.2025520  25.4722880  96.9911390
  61.7286810  25.4694400  96.6453410  54.6546790  20.5426490  92.1020880
  55.5241640  20.8251290  92.3856800  54.1637110  21.3562360  91.9869690
  61.8181600  21.9299700  96.2229160  62.2744380  22.7404950  96.4489350
  61.4669810  21.6122840  97.0547650  64.1214210  27.4406040 103.4521460
  64.7656430  27.6465420 104.1294880  64.4843650  26.6794440 102.9992310
  57.7193380  12.2737350  96.6951680  57.5908010  12.2655250  97.6436600
  56.8955400  12.6120440  96.3442690  65.3946290  25.4438390 102.1698910
  66.0368520  24.7431550 102.2831080  65.9195640  26.2236830 101.9895800
  69.2402010  25.7287010  91.8938050  69.0139590  25.0117450  92.4862690
  68.8498210  25.4799450  91.0559800  55.0218040  29.7553870  92.6682510
  55.3815680  30.3543210  92.0139780  54.8810380  30.3013760  93.4417540
  68.8218260  23.6458950  93.5552210  68.5339960  24.1071640  94.3430090
  69.6170430  23.1856720  93.8236430  61.0386660  27.1385070  93.4856180
  61.0296760  27.8714760  92.8700690  60.1185020  26.8916650  93.5783140
  56.6393300  22.3599960  94.2302940  56.0321250  23.0998860  94.2398240
  57.1142650  22.4499320  93.4041140  66.2126090  16.5250780 103.9059830
  66.5806910  15.7045990 104.2339400  65.3524290  16.5852670 104.3215480
  69.5788120  15.4807720  94.7147390  68.9501280  15.5853390  94.0005620
  69.0840040  15.7004500  95.5041270  64.0246260  27.2013310  92.1481370
  64.1258240  26.9977300  91.2183350  63.1248000  26.9471590  92.3529150
  61.5472150  17.7593670  96.1305270  60.8388300  18.2280010  96.5718880
  61.8316630  17.1015680  96.7650460  63.1728080  19.1790370 104.1297800
  63.6713330  19.6536190 104.7949650  63.3151030  18.2553890 104.3367830
  65.5787580  14.4844330  97.5701060  65.4555360  14.5030460  96.6210570
  66.5272140  14.5323270  97.6899460  62.6664370  29.7199630  96.8429040
  62.9205870  29.6821020  95.9208410  61.7176850  29.5932960  96.8357290
  59.7507170  16.0678750  93.5055980  60.5997700  16.5048900  93.4396170
  59.3838440  16.3799010  94.3328040  68.6716950  20.6391510  98.4187550
  67.7307090  20.6541740  98.5935240  68.9861020  19.8527470  98.8647850
  58.6498590  22.3211110  91.9791510  59.4161860  22.2092470  92.5416940
  58.7273280  21.6249080  91.3268280  57.3445350  19.7536180  92.6624400
  57.4248940  18.8063690  92.7741800  58.2365100  20.0843060  92.7685060
  70.6742530  27.8100360 100.0941810  70.7989950  28.6331530 100.5665620
  71.5408090  27.5991090  99.7465960  58.1460060  29.9031570  99.7658940
  58.8822540  29.3547030 100.0367510  58.5300980  30.7687580  99.6264930
  55.0305540  25.9705140  95.6400450  54.1045320  26.2126280  95.6305860
  55.4961970  26.7979400  95.5185200  61.2562370  29.0761880  91.5884510
  62.0490980  29.3650710  91.1366300  60.7366720  28.6454050  90.9096990
  70.3092540  28.3032010  93.0121250  70.0234050  27.8897150  92.1975430
  70.1112090  29.2319720  92.8921770  61.7739770  24.2965290  91.4526860
  61.6690410  23.6817640  92.1788240  61.6063990  23.7731180  90.6689870
  65.0142500  23.3585320  92.0568850  64.4652600  23.8054620  92.7011590
  65.6361760  22.8534570  92.5806520  60.6817620  22.3176240  93.9534150
  61.1034040  22.1516110  94.7965540  60.8068460  21.5076470  93.4589290
  63.1945260  21.3413850  91.2011250  63.7150920  20.6262870  90.8352400
  63.8413660  21.9799720  91.5011760  62.0978780  13.8208400 103.8729810
  61.6496080  13.8432660 103.0275360  61.4643980  13.4227420 104.4700110
  62.5038330  22.7162730 104.4942250  62.9226440  23.5595460 104.3218490
  61.5846960  22.8534770 104.2649030  59.5776520  18.3909470  90.8992310
  59.3765580  17.5276830  91.2605650  59.4068570  18.3042830  89.9613910
  67.0564830  13.2017700  93.4279190  67.3367120  12.3585600  93.7838610
  66.2830560  13.4340810  93.9417940  58.3759320  15.4910090  90.8870190
  58.6785220  15.4977520  89.9789340  59.1153910  15.1407950  91.3837850
  61.5944250  14.4344710  91.8726390  61.2466250  13.7568700  91.2928840
  61.7957020  13.9734220  92.6869780  63.7593290  29.4225460  93.4912990
  64.6544080  29.7610430  93.5131750  63.7910920  28.7004870  92.8637270
  57.3989450  24.7952510  91.7199990  57.8364320  25.3382180  92.3757570
  57.8837180  23.9699460  91.7296330  54.6135250  27.5841540  99.1720250
  54.9438260  26.7162600  98.9398890  55.0426250  27.7900060 100.0025210
  59.2097170  25.9150550  96.8322220  58.9092710  25.7915520  97.7326130
  59.1034660  25.0559140  96.4237950  55.1025460  28.4512130 101.9101880
  54.6656450  28.6312930 102.7426030  55.6703140  29.2086750 101.7683600
  71.9789090  25.6946950  91.5348900  71.1482050  25.7623600  92.0056130
  72.1560920  26.5851070  91.2315760  71.4345550  22.4394430  94.0383100
  72.1964460  23.0091080  94.1442790  71.4499920  21.8721630  94.8091410
  54.9349890  20.9632360  98.2690760  54.2798730  20.6944000  97.6250460
  55.7727840  20.8536840  97.8192740  72.4405520  23.2944530  98.8825030
  72.8114350  22.5111850  98.4761000  73.0807450  23.9833630  98.7042330
  69.4239280  24.6781110 104.2955350  68.6099120  25.1078270 104.5581140
  69.8313480  25.2899520 103.6824400  71.4864720  22.7328800  91.1955620
  71.7613560  23.6407680  91.0674840  71.2975460  22.6691330  92.1317610
  67.8840330  15.7573650  92.4909250  68.3025210  15.5704630  91.6505910
  67.5776390  14.9052700  92.8012180  71.3830060  20.6697790  96.1885050
  71.0073660  19.9025720  95.7566340  70.6533180  21.0520490  96.6759980
  55.9725820  21.3484930 102.8094100  56.3398860  21.2612330 103.6890120
  55.4036640  20.5851480 102.7100960  54.1487970  18.1731290  94.2116090
  53.2452050  18.4361490  94.0367750  54.6328590  18.4442460  93.4316050
  70.6581020  18.8955280  99.4892290  71.1818500  18.4017930  98.8582460
  71.2440440  19.0305640 100.2339860  70.8370740  18.9795150 103.0111840
  69.8873450  18.9458690 103.1256830  71.0183750  19.8895260 102.7761610
  56.6915180  17.2296830  92.1210470  57.4006880  16.8080050  91.6357750
  55.9755120  17.2972060  91.4893820  56.3389340  13.2836160  91.1613120
  57.0617470  13.8245100  91.4794340  56.6113860  13.0099580  90.2854660
  70.1480990  18.1528630  95.4284700  70.6440110  17.9199500  96.2133580
  69.9497060  17.3140470  95.0122340  56.0281530  12.5342350 101.0635740
  56.6757720  11.9839730 100.6230900  56.4483370  12.7885500 101.8851550
  71.5768150  16.7889580  97.9622380  71.4667430  16.6345620  98.9004650
  72.3375740  16.2610520  97.7197790  69.9233870  12.7283710 104.4205380
  70.5606090  13.3417850 104.7864570  70.0708760  12.7644370 103.4754610
  72.4658420  14.6197500  91.2028520  73.3907730  14.4878680  90.9946810
  72.4434210  14.6990320  92.1564970  72.5396910  15.3908160  93.8285230
  71.7448410  15.3253280  94.3578140  72.7440190  16.3258800  93.8170580
  69.4815330  29.4299710  97.8223620  70.0774400  29.1084280  97.1458040
  69.7393480  28.9571530  98.6136890  55.7813530  12.6898020 103.8061060
  55.4328350  13.1461840 104.5719240  55.4501230  11.7955150 103.8883490
  61.0883930  27.4177210 103.5723970  60.8475290  27.6851770 102.6854490
  62.0286570  27.5882940 103.6274830  72.3488090  29.4371590 104.3734610
  71.8546370  29.8340460 103.6561740  71.7401380  28.8120800 104.7671890
  66.6720950  12.1012100 103.2942060  65.7980790  12.4347210 103.0914990
  66.5631700  11.6285280 104.1193930  67.5792930  14.3082970 104.6783780
  67.2506290  13.4934730 104.2985510  68.5275230  14.2652780 104.5549470
  70.0327540  30.0795010 101.6521350  69.5730510  30.8310820 101.2779370
  69.4040000  29.3601480 101.5936150  56.8578160  26.1738250 104.0420070
  56.1312220  25.5543540 103.9746020  56.9187310  26.5678860 103.1718150
  60.4623260  28.3883250 100.8269480  60.9788280  27.7770610 100.3017740
  61.1120640  28.8912030 101.3180490  63.2018760  29.2791740 101.6538460
  63.4896570  29.0246040 100.7771470  63.7141980  28.7269100 102.2444030
  64.4195770  13.0181940 102.2334970  63.6367560  13.4927440 102.5131730
  64.1258700  12.1136770 102.1248150  68.9716840  13.7205040 100.2784060
  69.4124930  13.6650140  99.4305660  68.7024430  14.6363050 100.3494240
  70.8355410  13.3520280  98.2892880  70.7743810  12.4081500  98.1423900
  71.6147440  13.4600370  98.8346340  55.1408160  29.4912640  97.2516830
  54.9730200  28.8583320  97.9498720  54.2742670  29.6972040  96.9011020
  55.7636180  13.3229420  94.7548690  56.5215540  13.4358300  94.1812720
  55.3013350  14.1598620  94.7092120  62.3049990  15.4368690  97.7451000
  61.4924500  15.0625580  97.4046880  62.8091630  14.6813770  98.0472190
  66.8074970  12.1011140  98.9834070  67.4104340  12.6731350  99.4582590
  66.0667960  12.6650580  98.7607970  69.9509570  12.5032700  94.2574350
  70.1460200  13.4016150  94.5241780  69.1639440  12.2719780  94.7507300
  56.7470860  28.1845870  94.6966970  56.2218480  28.5653900  93.9928930
  56.6715440  28.8096640  95.4176680  58.1361330  13.8493470  93.2950660
  58.6654090  13.0623270  93.1658610  58.7689650  14.5284660  93.5286190
  60.3299170  13.5868610  96.3496050  59.7001910  12.8855920  96.5166180
  59.7904310  14.3472740  96.1329210  71.5036180  29.7433410  96.0180910
  71.6788370  29.0571150  95.3741830  70.8057750  30.2680460  95.6257580
  59.3463830  30.1328250  93.5716220  60.0782650  29.8487530  93.0240110
  59.6057500  29.8941530  94.4615600  58.5078620  26.2492980  93.5762550
  57.8787500  26.7178080  94.1248380  58.6226450  25.4042200  94.0108740
  65.9628340  20.2998640  79.7263750  65.8822390  19.3853250  79.4555460
  65.5492760  20.7965710  79.0203460  64.0946380  22.0777660  81.6073020
  63.3188480  21.5978100  81.8971590  64.7459310  21.3983310  81.4329180
  58.1112210  22.3897470  82.4848780  57.2797090  22.1346180  82.8845290
  58.7193190  22.4608240  83.2206700  68.1153810  26.4837850  80.3872150
  67.6535340  25.7125090  80.7159320  68.9279360  26.5103920  80.8924600
  58.0913470  26.4237560  82.6806800  58.3941510  25.5335300  82.5017020
  58.8357060  26.9807780  82.4529050  56.5204160  17.3499360  76.2691170
  55.6320860  17.6915330  76.1671050  56.8045350  17.1499680  75.3772000
  54.4837170  19.9505010  82.1530870  55.0553280  19.1827210  82.1534510
  54.4838710  20.2493770  81.2437480  63.5355370  24.7534850  81.6143180
  63.4663650  23.8124790  81.4532310  64.2975230  24.8436260  82.1865750
  55.7262040  15.3589370  83.9399800  55.5464880  14.4615120  84.2202560
  55.3242120  15.9061240  84.6146750  64.5660540  17.5605230  81.8412110
  64.9425360  16.6877110  81.7285780  64.4680050  17.8963930  80.9502550
  58.6965550  15.9330860  77.3029550  58.8032300  16.8334590  77.6098310
  57.7857910  15.8848830  77.0124200  68.3484660  15.0555670  78.7740450
  69.1694280  14.5652240  78.8165930  68.3818740  15.6453330  79.5272290
  56.3448710  17.8549870  82.5482140  57.0258820  18.1188240  83.1669540
  56.0296760  17.0150740  82.8820150  60.5373280  18.9017230  81.6354730
  61.0451500  19.3998200  82.2759750  61.0686520  18.1252430  81.4594090
  72.6384210  17.0722420  85.3384080  71.9336380  17.4604130  84.8199190
  72.9042130  17.7672710  85.9405010  58.8209380  13.5415790  85.9018150
  58.8227820  14.0588180  85.0964050  57.9913690  13.0645970  85.8788080
  65.2080470  23.6535100  77.4008050  64.5897740  24.1184550  76.8370770
  65.7203720  24.3462580  77.8177560  60.0712230  23.1810970  84.0791650
  59.7381610  23.8079890  84.7212720  60.2478910  23.7072850  83.2993320
  68.5846140  16.9956050  81.5467990  67.8801710  17.2840940  82.1271100
  68.9458300  17.8056160  81.1867550  58.5024710  15.2525750  83.9088600
  58.8441520  16.0967800  83.6142470  57.5640520  15.4009490  84.0253940
  59.2831330  25.1491770  85.8940830  59.9005330  25.8242850  85.6125280
  58.4224450  25.5579750  85.8028330  54.5763670  24.3391630  74.7747680
  54.1991650  24.8278730  74.0432580  54.8336740  25.0116910  75.4054210
  70.2008920  26.6131180  83.8095470  69.5172440  27.2830290  83.8012140
  70.7403210  26.8111830  83.0440330  71.6533060  16.4410840  81.9377200
  70.7057970  16.4749820  82.0692630  71.9783050  17.2549790  82.3226560
  62.1852600  12.7408020  80.2333190  62.4927580  12.1854910  79.5168690
  61.2553300  12.8752480  80.0506180  67.7367660  28.4575310  82.5240650
  67.7494820  28.0537600  81.6562910  67.1842880  29.2322600  82.4202080
  69.0313080  25.1791530  77.6130820  68.9209410  24.2365860  77.7380240
  69.0281330  25.5407170  78.4993580  67.1353100  23.3605150  83.8523260
  67.5521890  23.1465260  83.0176720  67.8592920  23.6177940  84.4231880
  64.5733360  20.8056850  76.9693310  63.6462640  20.7394230  77.1981780
  64.7258180  21.7436980  76.8548550  64.5602440  17.0773850  73.9660470
  63.6206110  17.2387810  74.0512930  64.8785700  17.7959530  73.4196460
  71.0815200  21.7592370  83.9439500  70.2533830  21.8285460  83.4689630
  71.6765680  22.3446680  83.4755330  68.6030650  22.3677150  77.4728560
  67.9843070  22.0296700  76.8254860  68.5855100  21.7236910  78.1807750
  68.0457210  18.5461690  84.8894370  67.6328390  19.3715400  85.1434360
  67.3133160  17.9606730  84.6970730  60.1790000  21.3321590  79.7513040
  59.7747000  20.6198840  79.2558940  60.2653120  20.9874830  80.6401080
  60.6471700  25.0189150  81.9152250  60.3499990  24.4134620  81.2360030
  61.5971520  25.0566460  81.8041610  58.8918620  18.1064800  83.5312080
  59.4433210  18.2160140  82.7565330  59.4062130  18.4802400  84.2467310
  68.7357310  28.5921020  85.5775350  68.2587870  29.3993210  85.3847960
  68.0519100  27.9399350  85.7301560  59.7390130  24.7570840  88.5660050
  58.8418660  24.9810810  88.8133450  59.7643000  24.8805780  87.6171450
  66.7795350  21.6063960  74.4801310  67.2188630  20.7686390  74.3339130
  67.4923770  22.2393360  74.5665450  58.5661350  21.6284160  87.1417420
  58.4269120  22.5006960  87.5104820  57.6842710  21.2856970  86.9965360
  60.3641700  27.5705860  89.3502570  60.3357130  27.9748810  88.4831000
  60.2006670  26.6416220  89.1874170  70.3612490  12.8606770  72.7942350
  70.0485150  12.9533600  73.6941420  71.1224960  13.4387800  72.7439780
  56.8794630  20.2266570  77.2519690  56.7592230  20.9528660  76.6400960
  56.5695520  19.4569480  76.7747600  72.3156520  28.3532960  90.6466740
  72.7916240  28.8315850  91.3255820  72.9363680  28.2850450  89.9212240
  54.5180000  23.3981710  83.0588330  54.5960420  23.5330480  82.1144050
  55.1321680  22.6897600  83.2516450  55.7627630  25.0981900  79.4694510
  55.3555710  25.2396490  78.6148110  56.6540640  24.8142060  79.2665720
  71.7189770  25.5445810  87.8066750  71.8452830  25.3057690  86.8883930
  71.7611150  24.7130350  88.2788830  65.5806510  29.2473810  86.3761560
  66.0951180  29.1581820  87.1783990  64.7375590  29.5933510  86.6689470
  60.0349290  29.3127680  77.5817180  59.8591770  28.3963220  77.3684980
  59.1805030  29.6714970  77.8214980  71.5713780  17.5978270  88.7716490
  70.9558050  18.1057940  88.2431950  71.2510200  16.6976600  88.7142430
  54.5739520  24.4395880  85.5982790  54.7370560  23.9701240  84.7802160
  55.0391970  23.9319440  86.2631630  59.3458290  13.5701640  80.6343360
  58.9026440  14.3511180  80.3027880  59.9043280  13.8931530  81.3414300
  63.6328100  16.4370160  86.2378680  63.1707470  16.6453180  87.0498620
  63.2306210  15.6229510  85.9349350  68.6332610  17.6579110  87.3675340
  67.7826200  17.3584860  87.6884410  68.4734400  17.9021120  86.4559160
  65.7282320  19.1580860  89.4674130  66.0535730  18.3244610  89.1276360
  66.5162650  19.6809380  89.6152460  62.4617110  13.1912340  75.5149190
  61.8371290  13.1872210  76.2402500  62.3747230  12.3243300  75.1185160
  61.3834190  14.1148970  82.4932960  61.6806520  15.0211800  82.4124980
  61.9319750  13.6267750  81.8792530  59.1372510  18.6935210  78.3624610
  58.9113430  18.4772380  79.2671230  58.3565040  19.1263670  78.0170580
  66.3670270  18.6998580  76.9615260  65.7679160  19.4234380  76.7778880
  66.9149880  18.6375360  76.1791710  61.5771720  19.5920790  89.0284880
  61.4815320  18.6515520  88.8785280  62.4203700  19.8135860  88.6332950
  64.9735140  17.3362120  78.9918540  65.3664710  17.6534320  78.1787230
  65.3351990  16.4574000  79.1063060  56.7082260  16.0034460  87.1818660
  56.3145650  16.8509670  87.3891440  56.0200660  15.3660830  87.3727300
  63.2827310  16.0869430  90.2515400  62.5925630  15.8941630  90.8861490
  64.0259610  16.3704070  90.7839700  54.0099310  13.9262920  81.2148740
  53.7212360  14.4965780  81.9273720  54.7545070  13.4467370  81.5779970
  54.1969540  17.8683040  72.4251460  54.1144210  18.8113800  72.5666450
  53.8452600  17.7257950  71.5463810  65.5590280  19.9267870  83.0869320
  64.8271400  20.4354680  83.4359420  65.1614620  19.1097850  82.7858100
  61.9967670  16.6022070  81.4921810  62.0003730  16.1612020  80.6426350
  62.8918790  16.9239400  81.5993630  57.8470050  16.4848560  80.4516020
  57.5070100  16.9623790  81.2083070  57.0847370  16.0313680  80.0917120
  62.0587820  17.6034150  74.4828570  62.1800640  17.5620630  75.4314390
  61.6736330  18.4658300  74.3275300  66.0216190  15.3801550  82.4992260
  66.0388930  15.8310200  83.3434110  65.7731770  14.4807190  82.7125700
  61.0709320  19.9135290  73.8811870  60.5026220  19.4653540  73.2547780
  61.7798320  20.2728070  73.3477020  69.4486940  12.7933730  88.3378640
  69.7732710  12.0623390  88.8636620  69.4843450  12.4747370  87.4359630
  56.1478500  23.8147310  87.7578600  55.7633290  23.1740980  88.3561560
  56.4590690  24.5183430  88.3273330  62.2975640  20.6623850  83.2387220
  62.6645770  20.1882420  83.9848560  62.1080700  21.5365420  83.5795560
  55.1616130  15.4067540  79.3680690  54.8763050  15.0423210  80.2059310
  55.0994990  14.6748000  78.7543830  60.0875010  19.7032490  85.5571430
  59.7832080  20.5824470  85.7821790  61.0421470  19.7632280  85.5928870
  58.6156800  23.9093480  76.1538280  57.8419060  23.3691100  75.9937000
  59.3451430  23.3900090  75.8156040  69.3744780  22.9058840  81.9464670
  70.0943900  23.4014130  81.5560780  69.1726600  22.2276730  81.3018540
  64.8354720  14.2996800  76.0894060  64.0219330  13.8009970  76.0139370
  64.6416670  15.1395050  75.6730410  64.7563580  22.9767900  87.8333670
  64.6900890  22.0563570  87.5791260  64.1268720  23.0743340  88.5478310
  67.5503110  18.6716450  74.3856220  68.4382730  18.9833680  74.2107560
  67.5208200  17.7988700  73.9936800  58.6594200  23.5773860  79.7917090
  59.1772870  22.7742120  79.7373980  58.2078220  23.5153000  80.6333920
  56.1438740  20.5435230  86.7042790  55.7853680  21.2089080  87.2916130
  55.8493300  19.7118780  87.0755410  59.3451860  21.0019470  89.5882340
  59.0452000  21.1476650  88.6910160  60.1163100  20.4424760  89.4955730
  64.6880310  25.7988470  87.5837470  64.7024850  24.8669430  87.3656380
  63.9805410  25.8848230  88.2227240  69.8217380  19.9828290  73.8536080
  69.7381100  20.4142510  73.0032520  70.5411570  20.4426640  74.2862900
  70.8991520  22.4395810  86.9306050  70.1739710  23.0324590  86.7335440
  71.4266980  22.4319350  86.1319420  70.8504630  26.8370550  76.5818210
  70.2080790  26.1826170  76.8561930  70.4635290  27.2425640  75.8058880
  66.4291110  24.1655980  80.4289900  66.7814930  23.5684110  79.7691270
  65.5453440  23.8400210  80.5998150  62.5154390  24.9253670  77.8360310
  63.2025520  25.4722880  78.2167900  61.7286810  25.4694400  77.8709920
  54.6546790  20.5426490  73.3277390  55.5241640  20.8251290  73.6113310
  54.1637110  21.3562360  73.2126200  61.8181600  21.9299700  77.4485670
  62.2744380  22.7404950  77.6745860  61.4669810  21.6122840  78.2804160
  64.1214210  27.4406040  84.6777970  64.7656430  27.6465420  85.3551390
  64.4843650  26.6794440  84.2248820  57.7193380  12.2737350  77.9208190
  57.5908010  12.2655250  78.8693110  56.8955400  12.6120440  77.5699200
  65.3946290  25.4438390  83.3955420  66.0368520  24.7431550  83.5087590
  65.9195640  26.2236830  83.2152310  69.2402010  25.7287010  73.1194560
  69.0139590  25.0117450  73.7119200  68.8498210  25.4799450  72.2816310
  67.1683910  26.2433290  86.5991480  67.5040150  26.8299980  87.2769400
  66.2484250  26.1126000  86.8289270  54.7187310  14.0328470  87.3814890
  54.0045830  14.2325390  87.9867500  55.1382350  13.2568040  87.7529690
  68.8218260  23.6458950  74.7808720  68.5339960  24.1071640  75.5686600
  69.6170430  23.1856720  75.0492940  55.0059900  28.0208730  88.3681420
  55.1151020  27.0803470  88.2276810  54.3540460  28.2863480  87.7195150
  62.9972490  26.2924620  89.7679540  62.6769360  25.5733860  90.3125230
  62.3230850  26.9679690  89.8415600  56.6393300  22.3599960  75.4559450
  56.0321250  23.0998860  75.4654750  57.1142650  22.4499320  74.6297650
  66.2126090  16.5250780  85.1316340  66.5806910  15.7045990  85.4595910
  65.3524290  16.5852670  85.5471990  69.5788120  15.4807720  75.9403900
  68.9501280  15.5853390  75.2262130  69.0840040  15.7004500  76.7297780
  61.5472150  17.7593670  77.3561780  60.8388300  18.2280010  77.7975390
  61.8316630  17.1015680  77.9906970  63.1728080  19.1790370  85.3554310
  63.6713330  19.6536190  86.0206160  63.3151030  18.2553890  85.5624340
  65.5787580  14.4844330  78.7957570  65.4555360  14.5030460  77.8467080
  66.5272140  14.5323270  78.9155970  59.7507170  16.0678750  74.7312490
  60.5997700  16.5048900  74.6652680  59.3838440  16.3799010  75.5584550
  70.3794940  15.3958330  86.1982700  69.8768540  16.1363730  86.5376510
  71.1951600  15.7842330  85.8819490  68.6716950  20.6391510  79.6444060
  67.7307090  20.6541740  79.8191750  68.9861020  19.8527470  80.0904360
  58.6498590  22.3211110  73.2048020  59.4161860  22.2092470  73.7673450
  58.7273280  21.6249080  72.5524790  57.3445350  19.7536180  73.8880910
  57.4248940  18.8063690  73.9998310  58.2365100  20.0843060  73.9941570
  70.6742530  27.8100360  81.3198320  70.7989950  28.6331530  81.7922130
  71.5408090  27.5991090  80.9722470  58.1460060  29.9031570  80.9915450
  58.8822540  29.3547030  81.2624020  58.5300980  30.7687580  80.8521440
  55.0305540  25.9705140  76.8656960  54.1045320  26.2126280  76.8562370
  55.4961970  26.7979400  76.7441710  57.1518340  29.0877640  90.1801030
  57.9531070  29.4089690  90.5936430  56.6370160  28.7273220  90.9020940
  65.9882970  25.1957510  90.1276440  65.3821130  25.2189110  89.3872190
  65.6837080  24.4640550  90.6643690  67.4183340  28.9237800  88.7385850
  68.3705090  28.8395820  88.6886090  67.2711560  29.5879510  89.4119640
  70.3092540  28.3032010  74.2377760  70.0234050  27.8897150  73.4231940
  70.1112090  29.2319720  74.1178280  54.8716150  21.5751100  89.1237080
  55.3755170  20.9958380  89.6953310  54.1323570  21.8591330  89.6613450
  61.7739770  24.2965290  72.6783370  61.6690410  23.6817640  73.4044750
  61.6063990  23.7731180  71.8946380  61.9254090  22.9822090  88.6572600
  61.1599760  23.5507090  88.5727270  62.1070050  22.6898300  87.7640830
  65.0142500  23.3585320  73.2825360  64.4652600  23.8054620  73.9268100
  65.6361760  22.8534570  73.8063030  69.0677440  24.7127420  89.2147620
  69.8086910  25.0503180  88.7115080  68.3050120  24.8819480  88.6617390
  56.9039230  19.7180690  90.0187150  56.9444570  19.4194560  90.9272380
  57.7584730  20.1188300  89.8594670  60.6817620  22.3176240  75.1790660
  61.1034040  22.1516110  76.0222050  60.8068460  21.5076470  74.6845800
  58.8445040  18.2972790  87.9861640  58.3141500  17.8063740  87.3584980
  59.5133110  18.7256990  87.4519570  63.1945260  21.3413850  72.4267760
  63.7150920  20.6262870  72.0608910  63.8413660  21.9799720  72.7268270
  67.7423100  22.7642250  87.7502830  68.1564120  22.9187330  88.5993250
  66.8074100  22.8897470  87.9128610  68.2145270  20.1038410  89.7541980
  68.7966040  19.3490730  89.6662460  68.3907040  20.6345850  88.9773460
  59.3317340  15.2635160  88.0658930  59.2374210  14.6455910  87.3409800
  58.7514730  15.9901450  87.8388840  62.0978780  13.8208400  85.0986320
  61.6496080  13.8432660  84.2531870  61.4643980  13.4227420  85.6956620
  62.5038330  22.7162730  85.7198760  62.9226440  23.5595460  85.5475000
  61.5846960  22.8534770  85.4905540  64.8402230  20.4478910  87.1036600
  64.9598440  19.8520050  87.8431440  65.6996230  20.4848600  86.6837900
  67.1790130  21.0016100  85.6799110  66.6525350  21.5258720  85.0764250
  67.5221470  21.6343490  86.3108840  59.5776520  18.3909470  72.1248820
  59.3765580  17.5276830  72.4862160  59.4068570  18.3042830  71.1870420
  60.3545750  29.0215740  86.8356490  59.8166840  29.7461800  86.5165190
  60.6079710  28.5446080  86.0453830  61.6071000  16.9900260  88.3612420
  62.1970690  16.6816110  89.0490240  60.7891240  16.5180010  88.5172320
  66.4264430  16.6066070  88.5945440  65.7379950  15.9447610  88.5295430
  67.1470450  16.1604340  89.0393900  67.0564830  13.2017700  74.6535700
  67.3367120  12.3585600  75.0095120  66.2830560  13.4340810  75.1674450
  58.3759320  15.4910090  72.1126700  58.6785220  15.4977520  71.2045850
  59.1153910  15.1407950  72.6094360  63.2107960  30.2566950  87.0943140
  63.1366660  31.1602090  87.4015510  62.3086800  29.9378850  87.0665210
  61.5944250  14.4344710  73.0982900  61.2466250  13.7568700  72.5185350
  61.7957020  13.9734220  73.9126290  57.3989450  24.7952510  72.9456500
  57.8364320  25.3382180  73.6014080  57.8837180  23.9699460  72.9552840
  54.6135250  27.5841540  80.3976760  54.9438260  26.7162600  80.1655400
  55.0426250  27.7900060  81.2281720  59.2097170  25.9150550  78.0578730
  58.9092710  25.7915520  78.9582640  59.1034660  25.0559140  77.6494460
  55.1025460  28.4512130  83.1358390  54.6656450  28.6312930  83.9682540
  55.6703140  29.2086750  82.9940110  70.7387640  27.9529130  87.4235700
  70.1389630  28.0121690  86.6799620  70.8681540  27.0134110  87.5532550
  71.9789090  25.6946950  72.7605410  71.1482050  25.7623600  73.2312640
  72.1560920  26.5851070  72.4572270  71.4345550  22.4394430  75.2639610
  72.1964460  23.0091080  75.3699300  71.4499920  21.8721630  76.0347920
  54.9349890  20.9632360  79.4947270  54.2798730  20.6944000  78.8506970
  55.7727840  20.8536840  79.0449250  72.4405520  23.2944530  80.1081540
  72.8114350  22.5111850  79.7017510  73.0807450  23.9833630  79.9298840
  69.4239280  24.6781110  85.5211860  68.6099120  25.1078270  85.7837650
  69.8313480  25.2899520  84.9080910  71.4864720  22.7328800  72.4212130
  71.7613560  23.6407680  72.2931350  71.2975460  22.6691330  73.3574120
  67.8840330  15.7573650  73.7165760  68.3025210  15.5704630  72.8762420
  67.5776390  14.9052700  74.0268690  71.3830060  20.6697790  77.4141560
  71.0073660  19.9025720  76.9822850  70.6533180  21.0520490  77.9016490
  55.9725820  21.3484930  84.0350610  56.3398860  21.2612330  84.9146630
  55.4036640  20.5851480  83.9357470  70.7729680  19.8169310  87.0481080
  70.5415770  19.5882060  86.1479030  71.0334230  20.7368860  87.0025970
  55.5241820  18.2594020  87.9409030  54.6297870  18.2260780  88.2802740
  56.0639370  18.4580810  88.7060280  69.2117750  15.0425740  89.8260780
  70.0887930  15.0509140  90.2094780  69.2238590  14.3056580  89.2153130
  54.1487970  18.1731290  75.4372600  53.2452050  18.4361490  75.2624260
  54.6328590  18.4442460  74.6572560  70.6581020  18.8955280  80.7148800
  71.1818500  18.4017930  80.0838970  71.2440440  19.0305640  81.4596370
  70.8370740  18.9795150  84.2368350  69.8873450  18.9458690  84.3513340
  71.0183750  19.8895260  84.0018120  56.6915180  17.2296830  73.3466980
  57.4006880  16.8080050  72.8614260  55.9755120  17.2972060  72.7150330
  56.3389340  13.2836160  72.3869630  57.0617470  13.8245100  72.7050850
  56.6113860  13.0099580  71.5111170  70.1480990  18.1528630  76.6541210
  70.6440110  17.9199500  77.4390090  69.9497060  17.3140470  76.2378850
  56.0281530  12.5342350  82.2892250  56.6757720  11.9839730  81.8487410
  56.4483370  12.7885500  83.1108060  71.5768150  16.7889580  79.1878890
  71.4667430  16.6345620  80.1261160  72.3375740  16.2610520  78.9454300
  69.9233870  12.7283710  85.6461890  70.5606090  13.3417850  86.0121080
  70.0708760  12.7644370  84.7011120  72.4658420  14.6197500  72.4285030
  73.3907730  14.4878680  72.2203320  72.4434210  14.6990320  73.3821480
  72.5396910  15.3908160  75.0541740  71.7448410  15.3253280  75.5834650
  72.7440190  16.3258800  75.0427090  69.4815330  29.4299710  79.0480130
  70.0774400  29.1084280  78.3714550  69.7393480  28.9571530  79.8393400
  55.7813530  12.6898020  85.0317570  55.4328350  13.1461840  85.7975750
  55.4501230  11.7955150  85.1140000  57.3877900  25.8617620  89.1970760
  57.3447530  25.4910530  90.0785220  57.5188910  26.7995190  89.3372580
  61.0883930  27.4177210  84.7980480  60.8475290  27.6851770  83.9111000
  62.0286570  27.5882940  84.8531340  63.2938350  13.8809900  88.5536990
  63.2327240  14.4731730  89.3032400  64.2338730  13.7735860  88.4087250
  65.9312910  13.5379960  88.1929280  66.5453320  13.8559250  87.5310360
  66.4762470  13.0528550  88.8125140  72.3488090  29.4371590  85.5991120
  71.8546370  29.8340460  84.8818250  71.7401380  28.8120800  85.9928400
  56.4534170  12.2174220  88.3068340  57.0017160  12.0362270  87.5434450
  56.5189480  11.4268330  88.8424650  57.2265930  28.8079870  86.3168540
  56.6326250  28.6764570  87.0558580  57.2189770  27.9718010  85.8510640
  66.6720950  12.1012100  84.5198570  65.7980790  12.4347210  84.3171500
  66.5631700  11.6285280  85.3450440  67.5792930  14.3082970  85.9040290
  67.2506290  13.4934730  85.5242020  68.5275230  14.2652780  85.7805980
  70.0327540  30.0795010  82.8777860  69.5730510  30.8310820  82.5035880
  69.4040000  29.3601480  82.8192660  56.8578160  26.1738250  85.2676580
  56.1312220  25.5543540  85.2002530  56.9187310  26.5678860  84.3974660
  60.4623260  28.3883250  82.0525990  60.9788280  27.7770610  81.5274250
  61.1120640  28.8912030  82.5437000  63.2018760  29.2791740  82.8794970
  63.4896570  29.0246040  82.0027980  63.7141980  28.7269100  83.4700540
  64.4195770  13.0181940  83.4591480  63.6367560  13.4927440  83.7388240
  64.1258700  12.1136770  83.3504660  68.9716840  13.7205040  81.5040570
  69.4124930  13.6650140  80.6562170  68.7024430  14.6363050  81.5750750
  70.8355410  13.3520280  79.5149390  70.7743810  12.4081500  79.3680410
  71.6147440  13.4600370  80.0602850  55.1408160  29.4912640  78.4773340
  54.9730200  28.8583320  79.1755230  54.2742670  29.6972040  78.1267530
  55.7636180  13.3229420  75.9805200  56.5215540  13.4358300  75.4069230
  55.3013350  14.1598620  75.9348630  62.3049990  15.4368690  78.9707510
  61.4924500  15.0625580  78.6303390  62.8091630  14.6813770  79.2728700
  66.8074970  12.1011140  80.2090580  67.4104340  12.6731350  80.6839100
  66.0667960  12.6650580  79.9864480  69.9509570  12.5032700  75.4830860
  70.1460200  13.4016150  75.7498290  69.1639440  12.2719780  75.9763810
  58.1361330  13.8493470  74.5207170  58.6654090  13.0623270  74.3915120
  58.7689650  14.5284660  74.7542700  60.3299170  13.5868610  77.5752560
  59.7001910  12.8855920  77.7422690  59.7904310  14.3472740  77.3585720
  63.2691120  30.2007840  90.2463170  64.1958430  29.9652110  90.2899130
  63.2541550  31.0279840  89.7649200  71.5036180  29.7433410  77.2437420
  71.6788370  29.0571150  76.5998340  70.8057750  30.2680460  76.8514090
  60.4554730  12.8652590  90.0105050  60.1739000  13.3686190  89.2465870
  60.8374430  12.0674340  89.6447180  58.5078620  26.2492980  74.8019060
  57.8787500  26.7178080  75.3504890  58.6226450  25.4042200  75.2365250
  67.0570190  12.2806170  90.5885520  66.9435640  12.6000780  91.4837040
  67.8739930  12.6818680  90.2922800  69.8368680  29.4277700  90.0704210
  70.6294000  28.9326930  89.8630170  70.1301830  30.1067840  90.6779820
  65.9628340  20.2998640  60.9520260  65.8822390  19.3853250  60.6811970
  65.5492760  20.7965710  60.2459970  64.0946380  22.0777660  62.8329530
  63.3188480  21.5978100  63.1228100  64.7459310  21.3983310  62.6585690
  58.1112210  22.3897470  63.7105290  57.2797090  22.1346180  64.1101800
  58.7193190  22.4608240  64.4463210  68.1153810  26.4837850  61.6128660
  67.6535340  25.7125090  61.9415830  68.9279360  26.5103920  62.1181110
  54.4837170  19.9505010  63.3787380  55.0553280  19.1827210  63.3791020
  54.4838710  20.2493770  62.4693990  64.3417120  28.7695860  61.2332650
  63.7228560  29.2253360  60.6627090  65.1968900  28.9247320  60.8322350
  63.5355370  24.7534850  62.8399690  63.4663650  23.8124790  62.6788820
  64.2975230  24.8436260  63.4122260  55.7262040  15.3589370  65.1656310
  55.5464880  14.4615120  65.4459070  55.3242120  15.9061240  65.8403260
  64.5660540  17.5605230  63.0668620  64.9425360  16.6877110  62.9542290
  64.4680050  17.8963930  62.1759060  58.6965550  15.9330860  58.5286060
  58.8032300  16.8334590  58.8354820  57.7857910  15.8848830  58.2380710
  68.3484660  15.0555670  59.9996960  69.1694280  14.5652240  60.0422440
  68.3818740  15.6453330  60.7528800  56.3448710  17.8549870  63.7738650
  57.0258820  18.1188240  64.3926050  56.0296760  17.0150740  64.1076660
  60.5373280  18.9017230  62.8611240  61.0451500  19.3998200  63.5016260
  61.0686520  18.1252430  62.6850600  72.6384210  17.0722420  66.5640590
  71.9336380  17.4604130  66.0455700  72.9042130  17.7672710  67.1661520
  58.8209380  13.5415790  67.1274660  58.8227820  14.0588180  66.3220560
  57.9913690  13.0645970  67.1044590  65.2080470  23.6535100  58.6264560
  64.5897740  24.1184550  58.0627280  65.7203720  24.3462580  59.0434070
  60.0712230  23.1810970  65.3048160  59.7381610  23.8079890  65.9469230
  60.2478910  23.7072850  64.5249830  68.5846140  16.9956050  62.7724500
  67.8801710  17.2840940  63.3527610  68.9458300  17.8056160  62.4124060
  58.5024710  15.2525750  65.1345110  58.8441520  16.0967800  64.8398980
  57.5640520  15.4009490  65.2510450  59.2831330  25.1491770  67.1197340
  59.9005330  25.8242850  66.8381790  58.4224450  25.5579750  67.0284840
  70.2008920  26.6131180  65.0351980  69.5172440  27.2830290  65.0268650
  70.7403210  26.8111830  64.2696840  71.6533060  16.4410840  63.1633710
  70.7057970  16.4749820  63.2949140  71.9783050  17.2549790  63.5483070
  62.1852600  12.7408020  61.4589700  62.4927580  12.1854910  60.7425200
  61.2553300  12.8752480  61.2762690  67.7367660  28.4575310  63.7497160
  67.7494820  28.0537600  62.8819420  67.1842880  29.2322600  63.6458590
  69.0313080  25.1791530  58.8387330  68.9209410  24.2365860  58.9636750
  69.0281330  25.5407170  59.7250090  67.1353100  23.3605150  65.0779770
  67.5521890  23.1465260  64.2433230  67.8592920  23.6177940  65.6488390
  64.5733360  20.8056850  58.1949820  63.6462640  20.7394230  58.4238290
  64.7258180  21.7436980  58.0805060  64.5602440  17.0773850  55.1916980
  63.6206110  17.2387810  55.2769440  64.8785700  17.7959530  54.6452970
  71.0815200  21.7592370  65.1696010  70.2533830  21.8285460  64.6946140
  71.6765680  22.3446680  64.7011840  68.6030650  22.3677150  58.6985070
  67.9843070  22.0296700  58.0511370  68.5855100  21.7236910  59.4064260
  68.0457210  18.5461690  66.1150880  67.6328390  19.3715400  66.3690870
  67.3133160  17.9606730  65.9227240  60.1790000  21.3321590  60.9769550
  59.7747000  20.6198840  60.4815450  60.2653120  20.9874830  61.8657590
  60.6471700  25.0189150  63.1408760  60.3499990  24.4134620  62.4616540
  61.5971520  25.0566460  63.0298120  58.8918620  18.1064800  64.7568590
  59.4433210  18.2160140  63.9821840  59.4062130  18.4802400  65.4723820
  68.7357310  28.5921020  66.8031860  68.2587870  29.3993210  66.6104470
  68.0519100  27.9399350  66.9558070  59.7390130  24.7570840  69.7916560
  58.8418660  24.9810810  70.0389960  59.7643000  24.8805780  68.8427960
  66.7795350  21.6063960  55.7057820  67.2188630  20.7686390  55.5595640
  67.4923770  22.2393360  55.7921960  58.5661350  21.6284160  68.3673930
  58.4269120  22.5006960  68.7361330  57.6842710  21.2856970  68.2221870
  64.8890730  26.5460030  59.6739060  65.3286640  27.2884360  59.2594450
  64.8277620  26.7886600  60.5978020  70.3612490  12.8606770  54.0198860
  70.0485150  12.9533600  54.9197930  71.1224960  13.4387800  53.9696290
  72.3156520  28.3532960  71.8723250  72.7916240  28.8315850  72.5512330
  72.9363680  28.2850450  71.1468750  54.5180000  23.3981710  64.2844840
  54.5960420  23.5330480  63.3400560  55.1321680  22.6897600  64.4772960
  71.7189770  25.5445810  69.0323260  71.8452830  25.3057690  68.1140440
  71.7611150  24.7130350  69.5045340  67.5560910  29.5329150  57.0302070
  67.3962050  29.2432090  57.9283900  67.3907620  28.7569280  56.4947300
  67.2587040  27.0416710  55.5900070  66.5652200  27.0394000  54.9302350
  68.0009900  26.6176030  55.1594240  66.8236970  28.6679420  59.6648560
  67.2793920  27.8868800  59.9787180  67.1629490  29.3786240  60.2089740
  71.5713780  17.5978270  69.9973000  70.9558050  18.1057940  69.4688460
  71.2510200  16.6976600  69.9398940  54.5739520  24.4395880  66.8239300
  54.7370560  23.9701240  66.0058670  55.0391970  23.9319440  67.4888140
  59.3458290  13.5701640  61.8599870  58.9026440  14.3511180  61.5284390
  59.9043280  13.8931530  62.5670810  63.6328100  16.4370160  67.4635190
  63.1707470  16.6453180  68.2755130  63.2306210  15.6229510  67.1605860
  68.6332610  17.6579110  68.5931850  67.7826200  17.3584860  68.9140920
  68.4734400  17.9021120  67.6815670  65.7282320  19.1580860  70.6930640
  66.0535730  18.3244610  70.3532870  66.5162650  19.6809380  70.8408970
  62.4617110  13.1912340  56.7405700  61.8371290  13.1872210  57.4659010
  62.3747230  12.3243300  56.3441670  61.3834190  14.1148970  63.7189470
  61.6806520  15.0211800  63.6381490  61.9319750  13.6267750  63.1049040
  59.1372510  18.6935210  59.5881120  58.9113430  18.4772380  60.4927740
  58.3565040  19.1263670  59.2427090  66.3670270  18.6998580  58.1871770
  65.7679160  19.4234380  58.0035390  66.9149880  18.6375360  57.4048220
  61.5771720  19.5920790  70.2541390  61.4815320  18.6515520  70.1041790
  62.4203700  19.8135860  69.8589460  64.9735140  17.3362120  60.2175050
  65.3664710  17.6534320  59.4043740  65.3351990  16.4574000  60.3319570
  56.7082260  16.0034460  68.4075170  56.3145650  16.8509670  68.6147950
  56.0200660  15.3660830  68.5983810  63.2827310  16.0869430  71.4771910
  62.5925630  15.8941630  72.1118000  64.0259610  16.3704070  72.0096210
  54.0099310  13.9262920  62.4405250  53.7212360  14.4965780  63.1530230
  54.7545070  13.4467370  62.8036480  65.5590280  19.9267870  64.3125830
  64.8271400  20.4354680  64.6615930  65.1614620  19.1097850  64.0114610
  61.9967670  16.6022070  62.7178320  62.0003730  16.1612020  61.8682860
  62.8918790  16.9239400  62.8250140  57.8470050  16.4848560  61.6772530
  57.5070100  16.9623790  62.4339580  57.0847370  16.0313680  61.3173630
  62.0587820  17.6034150  55.7085080  62.1800640  17.5620630  56.6570900
  61.6736330  18.4658300  55.5531810  66.0216190  15.3801550  63.7248770
  66.0388930  15.8310200  64.5690620  65.7731770  14.4807190  63.9382210
  69.4486940  12.7933730  69.5635150  69.7732710  12.0623390  70.0893130
  69.4843450  12.4747370  68.6616140  56.1478500  23.8147310  68.9835110
  55.7633290  23.1740980  69.5818070  56.4590690  24.5183430  69.5529840
  62.2975640  20.6623850  64.4643730  62.6645770  20.1882420  65.2105070
  62.1080700  21.5365420  64.8052070  55.1616130  15.4067540  60.5937200
  54.8763050  15.0423210  61.4315820  55.0994990  14.6748000  59.9800340
  60.0875010  19.7032490  66.7827940  59.7832080  20.5824470  67.0078300
  61.0421470  19.7632280  66.8185380  69.3744780  22.9058840  63.1721180
  70.0943900  23.4014130  62.7817290  69.1726600  22.2276730  62.5275050
  64.8354720  14.2996800  57.3150570  64.0219330  13.8009970  57.2395880
  64.6416670  15.1395050  56.8986920  64.7563580  22.9767900  69.0590180
  64.6900890  22.0563570  68.8047770  64.1268720  23.0743340  69.7734820
  67.5503110  18.6716450  55.6112730  68.4382730  18.9833680  55.4364070
  67.5208200  17.7988700  55.2193310  63.5463700  24.8440140  56.2900900
  63.8879400  25.5882370  55.7944220  62.7176410  25.1571260  56.6525730
  56.1438740  20.5435230  67.9299300  55.7853680  21.2089080  68.5172640
  55.8493300  19.7118780  68.3011920  59.3451860  21.0019470  70.8138850
  59.0452000  21.1476650  69.9166670  60.1163100  20.4424760  70.7212240
  64.6880310  25.7988470  68.8093980  64.7024850  24.8669430  68.5912890
  63.9805410  25.8848230  69.4483750  69.8217380  19.9828290  55.0792590
  69.7381100  20.4142510  54.2289030  70.5411570  20.4426640  55.5119410
  70.8991520  22.4395810  68.1562560  70.1739710  23.0324590  67.9591950
  71.4266980  22.4319350  67.3575930  70.8504630  26.8370550  57.8074720
  70.2080790  26.1826170  58.0818440  70.4635290  27.2425640  57.0315390
  66.4291110  24.1655980  61.6546410  66.7814930  23.5684110  60.9947780
  65.5453440  23.8400210  61.8254660  62.5154390  24.9253670  59.0616820
  63.2025520  25.4722880  59.4424410  61.7286810  25.4694400  59.0966430
  61.8181600  21.9299700  58.6742180  62.2744380  22.7404950  58.9002370
  61.4669810  21.6122840  59.5060670  64.1214210  27.4406040  65.9034480
  64.7656430  27.6465420  66.5807900  64.4843650  26.6794440  65.4505330
  57.7193380  12.2737350  59.1464700  57.5908010  12.2655250  60.0949620
  56.8955400  12.6120440  58.7955710  65.3946290  25.4438390  64.6211930
  66.0368520  24.7431550  64.7344100  65.9195640  26.2236830  64.4408820
  69.2402010  25.7287010  54.3451070  69.0139590  25.0117450  54.9375710
  68.8498210  25.4799450  53.5072820  67.1683910  26.2433290  67.8247990
  67.5040150  26.8299980  68.5025910  66.2484250  26.1126000  68.0545780
  54.7187310  14.0328470  68.6071400  54.0045830  14.2325390  69.2124010
  55.1382350  13.2568040  68.9786200  68.8218260  23.6458950  56.0065230
  68.5339960  24.1071640  56.7943110  69.6170430  23.1856720  56.2749450
  66.2126090  16.5250780  66.3572850  66.5806910  15.7045990  66.6852420
  65.3524290  16.5852670  66.7728500  69.5788120  15.4807720  57.1660410
  68.9501280  15.5853390  56.4518640  69.0840040  15.7004500  57.9554290
  64.0246260  27.2013310  54.5994390  64.1258240  26.9977300  53.6696370
  63.1248000  26.9471590  54.8042170  61.5472150  17.7593670  58.5818290
  60.8388300  18.2280010  59.0231900  61.8316630  17.1015680  59.2163480
  63.1728080  19.1790370  66.5810820  63.6713330  19.6536190  67.2462670
  63.3151030  18.2553890  66.7880850  65.5787580  14.4844330  60.0214080
  65.4555360  14.5030460  59.0723590  66.5272140  14.5323270  60.1412480
  62.6664370  29.7199630  59.2942060  62.9205870  29.6821020  58.3721430
  61.7176850  29.5932960  59.2870310  59.7507170  16.0678750  55.9569000
  60.5997700  16.5048900  55.8909190  59.3838440  16.3799010  56.7841060
  70.3794940  15.3958330  67.4239210  69.8768540  16.1363730  67.7633020
  71.1951600  15.7842330  67.1076000  68.6716950  20.6391510  60.8700570
  67.7307090  20.6541740  61.0448260  68.9861020  19.8527470  61.3160870
  70.6742530  27.8100360  62.5454830  70.7989950  28.6331530  63.0178640
  71.5408090  27.5991090  62.1978980  70.3092540  28.3032010  55.4634270
  70.0234050  27.8897150  54.6488450  70.1112090  29.2319720  55.3434790
  54.8716150  21.5751100  70.3493590  55.3755170  20.9958380  70.9209820
  54.1323570  21.8591330  70.8869960  61.7739770  24.2965290  53.9039880
  61.6690410  23.6817640  54.6301260  61.6063990  23.7731180  53.1202890
  61.9254090  22.9822090  69.8829110  61.1599760  23.5507090  69.7983780
  62.1070050  22.6898300  68.9897340  65.0142500  23.3585320  54.5081870
  64.4652600  23.8054620  55.1524610  65.6361760  22.8534570  55.0319540
  69.0677440  24.7127420  70.4404130  69.8086910  25.0503180  69.9371590
  68.3050120  24.8819480  69.8873900  56.9039230  19.7180690  71.2443660
  56.9444570  19.4194560  72.1528890  57.7584730  20.1188300  71.0851180
  58.8445040  18.2972790  69.2118150  58.3141500  17.8063740  68.5841490
  59.5133110  18.7256990  68.6776080  63.1945260  21.3413850  53.6524270
  63.7150920  20.6262870  53.2865420  63.8413660  21.9799720  53.9524780
  67.7423100  22.7642250  68.9759340  68.1564120  22.9187330  69.8249760
  66.8074100  22.8897470  69.1385120  68.2145270  20.1038410  70.9798490
  68.7966040  19.3490730  70.8918970  68.3907040  20.6345850  70.2029970
  59.3317340  15.2635160  69.2915440  59.2374210  14.6455910  68.5666310
  58.7514730  15.9901450  69.0645350  62.0978780  13.8208400  66.3242830
  61.6496080  13.8432660  65.4788380  61.4643980  13.4227420  66.9213130
  62.5038330  22.7162730  66.9455270  62.9226440  23.5595460  66.7731510
  61.5846960  22.8534770  66.7162050  64.8402230  20.4478910  68.3293110
  64.9598440  19.8520050  69.0687950  65.6996230  20.4848600  67.9094410
  67.1790130  21.0016100  66.9055620  66.6525350  21.5258720  66.3020760
  67.5221470  21.6343490  67.5365350  60.3545750  29.0215740  68.0613000
  59.8166840  29.7461800  67.7421700  60.6079710  28.5446080  67.2710340
  61.6071000  16.9900260  69.5868930  62.1970690  16.6816110  70.2746750
  60.7891240  16.5180010  69.7428830  66.4264430  16.6066070  69.8201950
  65.7379950  15.9447610  69.7551940  67.1470450  16.1604340  70.2650410
  67.0564830  13.2017700  55.8792210  67.3367120  12.3585600  56.2351630
  66.2830560  13.4340810  56.3930960  63.2107960  30.2566950  68.3199650
  63.1366660  31.1602090  68.6272020  62.3086800  29.9378850  68.2921720
  61.5944250  14.4344710  54.3239410  61.2466250  13.7568700  53.7441860
  61.7957020  13.9734220  55.1382800  70.7387640  27.9529130  68.6492210
  70.1389630  28.0121690  67.9056130  70.8681540  27.0134110  68.7789060
  71.9789090  25.6946950  53.9861920  71.1482050  25.7623600  54.4569150
  72.1560920  26.5851070  53.6828780  71.4345550  22.4394430  56.4896120
  72.1964460  23.0091080  56.5955810  71.4499920  21.8721630  57.2604430
  54.9349890  20.9632360  60.7203780  54.2798730  20.6944000  60.0763480
  55.7727840  20.8536840  60.2705760  72.4405520  23.2944530  61.3338050
  72.8114350  22.5111850  60.9274020  73.0807450  23.9833630  61.1555350
  69.4239280  24.6781110  66.7468370  68.6099120  25.1078270  67.0094160
  69.8313480  25.2899520  66.1337420  71.4864720  22.7328800  53.6468640
  71.7613560  23.6407680  53.5187860  71.2975460  22.6691330  54.5830630
  67.8840330  15.7573650  54.9422270  68.3025210  15.5704630  54.1018930
  67.5776390  14.9052700  55.2525200  71.3830060  20.6697790  58.6398070
  71.0073660  19.9025720  58.2079360  70.6533180  21.0520490  59.1273000
  55.9725820  21.3484930  65.2607120  56.3398860  21.2612330  66.1403140
  55.4036640  20.5851480  65.1613980  70.7729680  19.8169310  68.2737590
  70.5415770  19.5882060  67.3735540  71.0334230  20.7368860  68.2282480
  55.5241820  18.2594020  69.1665540  54.6297870  18.2260780  69.5059250
  56.0639370  18.4580810  69.9316790  69.2117750  15.0425740  71.0517290
  70.0887930  15.0509140  71.4351290  69.2238590  14.3056580  70.4409640
  70.6581020  18.8955280  61.9405310  71.1818500  18.4017930  61.3095480
  71.2440440  19.0305640  62.6852880  70.8370740  18.9795150  65.4624860
  69.8873450  18.9458690  65.5769850  71.0183750  19.8895260  65.2274630
  56.3389340  13.2836160  53.6126140  57.0617470  13.8245100  53.9307360
  56.6113860  13.0099580  52.7367680  70.1480990  18.1528630  57.8797720
  70.6440110  17.9199500  58.6646600  69.9497060  17.3140470  57.4635360
  56.0281530  12.5342350  63.5148760  56.6757720  11.9839730  63.0743920
  56.4483370  12.7885500  64.3364570  71.5768150  16.7889580  60.4135400
  71.4667430  16.6345620  61.3517670  72.3375740  16.2610520  60.1710810
  69.9233870  12.7283710  66.8718400  70.5606090  13.3417850  67.2377590
  70.0708760  12.7644370  65.9267630  72.4658420  14.6197500  53.6541540
  73.3907730  14.4878680  53.4459830  72.4434210  14.6990320  54.6077990
  72.5396910  15.3908160  56.2798250  71.7448410  15.3253280  56.8091160
  72.7440190  16.3258800  56.2683600  69.4815330  29.4299710  60.2736640
  70.0774400  29.1084280  59.5971060  69.7393480  28.9571530  61.0649910
  55.7813530  12.6898020  66.2574080  55.4328350  13.1461840  67.0232260
  55.4501230  11.7955150  66.3396510  57.3877900  25.8617620  70.4227270
  57.3447530  25.4910530  71.3041730  57.5188910  26.7995190  70.5629090
  61.0883930  27.4177210  66.0236990  60.8475290  27.6851770  65.1367510
  62.0286570  27.5882940  66.0787850  63.2938350  13.8809900  69.7793500
  63.2327240  14.4731730  70.5288910  64.2338730  13.7735860  69.6343760
  65.9312910  13.5379960  69.4185790  66.5453320  13.8559250  68.7566870
  66.4762470  13.0528550  70.0381650  72.3488090  29.4371590  66.8247630
  71.8546370  29.8340460  66.1074760  71.7401380  28.8120800  67.2184910
  56.4534170  12.2174220  69.5324850  57.0017160  12.0362270  68.7690960
  56.5189480  11.4268330  70.0681160  66.6720950  12.1012100  65.7455080
  65.7980790  12.4347210  65.5428010  66.5631700  11.6285280  66.5706950
  67.5792930  14.3082970  67.1296800  67.2506290  13.4934730  66.7498530
  68.5275230  14.2652780  67.0062490  70.0327540  30.0795010  64.1034370
  69.5730510  30.8310820  63.7292390  69.4040000  29.3601480  64.0449170
  56.8578160  26.1738250  66.4933090  56.1312220  25.5543540  66.4259040
  56.9187310  26.5678860  65.6231170  60.4623260  28.3883250  63.2782500
  60.9788280  27.7770610  62.7530760  61.1120640  28.8912030  63.7693510
  63.2018760  29.2791740  64.1051480  63.4896570  29.0246040  63.2284490
  63.7141980  28.7269100  64.6957050  64.4195770  13.0181940  64.6847990
  63.6367560  13.4927440  64.9644750  64.1258700  12.1136770  64.5761170
  68.9716840  13.7205040  62.7297080  69.4124930  13.6650140  61.8818680
  68.7024430  14.6363050  62.8007260  70.8355410  13.3520280  60.7405900
  70.7743810  12.4081500  60.5936920  71.6147440  13.4600370  61.2859360
  55.7636180  13.3229420  57.2061710  56.5215540  13.4358300  56.6325740
  55.3013350  14.1598620  57.1605140  62.3049990  15.4368690  60.1964020
  61.4924500  15.0625580  59.8559900  62.8091630  14.6813770  60.4985210
  66.8074970  12.1011140  61.4347090  67.4104340  12.6731350  61.9095610
  66.0667960  12.6650580  61.2120990  69.9509570  12.5032700  56.7087370
  70.1460200  13.4016150  56.9754800  69.1639440  12.2719780  57.2020320
  58.1361330  13.8493470  55.7463680  58.6654090  13.0623270  55.6171630
  58.7689650  14.5284660  55.9799210  60.3299170  13.5868610  58.8009070
  59.7001910  12.8855920  58.9679200  59.7904310  14.3472740  58.5842230
  71.5036180  29.7433410  58.4693930  71.6788370  29.0571150  57.8254850
  70.8057750  30.2680460  58.0770600  60.4554730  12.8652590  71.2361560
  60.1739000  13.3686190  70.4722380  60.8374430  12.0674340  70.8703690
  67.0570190  12.2806170  71.8142030  66.9435640  12.6000780  72.7093550
  67.8739930  12.6818680  71.5179310  65.9628340  20.2998640  42.1776770
  65.8822390  19.3853250  41.9068480  65.5492760  20.7965710  41.4716480
  56.5204160  17.3499360  38.7204190  55.6320860  17.6915330  38.6184070
  56.8045350  17.1499680  37.8285020  64.5660540  17.5605230  44.2925130
  64.9425360  16.6877110  44.1798800  64.4680050  17.8963930  43.4015570
  58.6965550  15.9330860  39.7542570  58.8032300  16.8334590  40.0611330
  57.7857910  15.8848830  39.4637220  68.3484660  15.0555670  41.2253470
  69.1694280  14.5652240  41.2678950  68.3818740  15.6453330  41.9785310
  60.5373280  18.9017230  44.0867750  61.0451500  19.3998200  44.7272770
  61.0686520  18.1252430  43.9107110  72.6384210  17.0722420  47.7897100
  71.9336380  17.4604130  47.2712210  72.9042130  17.7672710  48.3918030
  58.8209380  13.5415790  48.3531170  58.8227820  14.0588180  47.5477070
  57.9913690  13.0645970  48.3301100  68.5846140  16.9956050  43.9981010
  67.8801710  17.2840940  44.5784120  68.9458300  17.8056160  43.6380570
  71.6533060  16.4410840  44.3890220  70.7057970  16.4749820  44.5205650
  71.9783050  17.2549790  44.7739580  62.1852600  12.7408020  42.6846210
  62.4927580  12.1854910  41.9681710  61.2553300  12.8752480  42.5019200
  64.5733360  20.8056850  39.4206330  63.6462640  20.7394230  39.6494800
  64.7258180  21.7436980  39.3061570  64.5602440  17.0773850  36.4173490
  63.6206110  17.2387810  36.5025950  64.8785700  17.7959530  35.8709480
  71.0815200  21.7592370  46.3952520  70.2533830  21.8285460  45.9202650
  71.6765680  22.3446680  45.9268350  68.0457210  18.5461690  47.3407390
  67.6328390  19.3715400  47.5947380  67.3133160  17.9606730  47.1483750
  70.3612490  12.8606770  35.2455370  70.0485150  12.9533600  36.1454440
  71.1224960  13.4387800  35.1952800  56.8794630  20.2266570  39.7032710
  56.7592230  20.9528660  39.0913980  56.5695520  19.4569480  39.2260620
  72.3156520  28.3532960  53.0979760  72.7916240  28.8315850  53.7768840
  72.9363680  28.2850450  52.3725260  71.7189770  25.5445810  50.2579770
  71.8452830  25.3057690  49.3396950  71.7611150  24.7130350  50.7301850
  71.5713780  17.5978270  51.2229510  70.9558050  18.1057940  50.6944970
  71.2510200  16.6976600  51.1655450  59.3458290  13.5701640  43.0856380
  58.9026440  14.3511180  42.7540900  59.9043280  13.8931530  43.7927320
  63.6328100  16.4370160  48.6891700  63.1707470  16.6453180  49.5011640
  63.2306210  15.6229510  48.3862370  68.6332610  17.6579110  49.8188360
  67.7826200  17.3584860  50.1397430  68.4734400  17.9021120  48.9072180
  65.7282320  19.1580860  51.9187150  66.0535730  18.3244610  51.5789380
  66.5162650  19.6809380  52.0665480  62.4617110  13.1912340  37.9662210
  61.8371290  13.1872210  38.6915520  62.3747230  12.3243300  37.5698180
  61.3834190  14.1148970  44.9445980  61.6806520  15.0211800  44.8638000
  61.9319750  13.6267750  44.3305550  59.1372510  18.6935210  40.8137630
  58.9113430  18.4772380  41.7184250  58.3565040  19.1263670  40.4683600
  66.3670270  18.6998580  39.4128280  65.7679160  19.4234380  39.2291900
  66.9149880  18.6375360  38.6304730  64.9735140  17.3362120  41.4431560
  65.3664710  17.6534320  40.6300250  65.3351990  16.4574000  41.5576080
  63.2827310  16.0869430  52.7028420  62.5925630  15.8941630  53.3374510
  64.0259610  16.3704070  53.2352720  65.5590280  19.9267870  45.5382340
  64.8271400  20.4354680  45.8872440  65.1614620  19.1097850  45.2371120
  61.9967670  16.6022070  43.9434830  62.0003730  16.1612020  43.0939370
  62.8918790  16.9239400  44.0506650  57.8470050  16.4848560  42.9029040
  57.5070100  16.9623790  43.6596090  57.0847370  16.0313680  42.5430140
  62.0587820  17.6034150  36.9341590  62.1800640  17.5620630  37.8827410
  61.6736330  18.4658300  36.7788320  66.0216190  15.3801550  44.9505280
  66.0388930  15.8310200  45.7947130  65.7731770  14.4807190  45.1638720
  69.4486940  12.7933730  50.7891660  69.7732710  12.0623390  51.3149640
  69.4843450  12.4747370  49.8872650  64.8354720  14.2996800  38.5407080
  64.0219330  13.8009970  38.4652390  64.6416670  15.1395050  38.1243430
  64.7563580  22.9767900  50.2846690  64.6900890  22.0563570  50.0304280
  64.1268720  23.0743340  50.9991330  67.5503110  18.6716450  36.8369240
  68.4382730  18.9833680  36.6620580  67.5208200  17.7988700  36.4449820
  69.8217380  19.9828290  36.3049100  69.7381100  20.4142510  35.4545540
  70.5411570  20.4426640  36.7375920  70.8991520  22.4395810  49.3819070
  70.1739710  23.0324590  49.1848460  71.4266980  22.4319350  48.5832440
  61.8181600  21.9299700  39.8998690  62.2744380  22.7404950  40.1258880
  61.4669810  21.6122840  40.7317180  57.7193380  12.2737350  40.3721210
  57.5908010  12.2655250  41.3206130  56.8955400  12.6120440  40.0212220
  66.2126090  16.5250780  47.5829360  66.5806910  15.7045990  47.9108930
  65.3524290  16.5852670  47.9985010  69.5788120  15.4807720  38.3916920
  68.9501280  15.5853390  37.6775150  69.0840040  15.7004500  39.1810800
  61.5472150  17.7593670  39.8074800  60.8388300  18.2280010  40.2488410
  61.8316630  17.1015680  40.4419990  63.1728080  19.1790370  47.8067330
  63.6713330  19.6536190  48.4719180  63.3151030  18.2553890  48.0137360
  65.5787580  14.4844330  41.2470590  65.4555360  14.5030460  40.2980100
  66.5272140  14.5323270  41.3668990  59.7507170  16.0678750  37.1825510
  60.5997700  16.5048900  37.1165700  59.3838440  16.3799010  38.0097570
  70.3794940  15.3958330  48.6495720  69.8768540  16.1363730  48.9889530
  71.1951600  15.7842330  48.3332510  68.6716950  20.6391510  42.0957080
  67.7307090  20.6541740  42.2704770  68.9861020  19.8527470  42.5417380
  61.9254090  22.9822090  51.1085620  61.1599760  23.5507090  51.0240290
  62.1070050  22.6898300  50.2153850  69.0677440  24.7127420  51.6660640
  69.8086910  25.0503180  51.1628100  68.3050120  24.8819480  51.1130410
  67.7423100  22.7642250  50.2015850  68.1564120  22.9187330  51.0506270
  66.8074100  22.8897470  50.3641630  68.2145270  20.1038410  52.2055000
  68.7966040  19.3490730  52.1175480  68.3907040  20.6345850  51.4286480
  62.0978780  13.8208400  47.5499340  61.6496080  13.8432660  46.7044890
  61.4643980  13.4227420  48.1469640  64.8402230  20.4478910  49.5549620
  64.9598440  19.8520050  50.2944460  65.6996230  20.4848600  49.1350920
  67.1790130  21.0016100  48.1312130  66.6525350  21.5258720  47.5277270
  67.5221470  21.6343490  48.7621860  59.5776520  18.3909470  34.5761840
  59.3765580  17.5276830  34.9375180  59.4068570  18.3042830  33.6383440
  66.4264430  16.6066070  51.0458460  65.7379950  15.9447610  50.9808450
  67.1470450  16.1604340  51.4906920  67.0564830  13.2017700  37.1048720
  67.3367120  12.3585600  37.4608140  66.2830560  13.4340810  37.6187470
  58.3759320  15.4910090  34.5639720  58.6785220  15.4977520  33.6558870
  59.1153910  15.1407950  35.0607380  61.5944250  14.4344710  35.5495920
  61.2466250  13.7568700  34.9698370  61.7957020  13.9734220  36.3639310
  70.7387640  27.9529130  49.8748720  70.1389630  28.0121690  49.1312640
  70.8681540  27.0134110  50.0045570  71.4345550  22.4394430  37.7152630
  72.1964460  23.0091080  37.8212320  71.4499920  21.8721630  38.4860940
  54.9349890  20.9632360  41.9460290  54.2798730  20.6944000  41.3019990
  55.7727840  20.8536840  41.4962270  72.4405520  23.2944530  42.5594560
  72.8114350  22.5111850  42.1530530  73.0807450  23.9833630  42.3811860
  69.4239280  24.6781110  47.9724880  68.6099120  25.1078270  48.2350670
  69.8313480  25.2899520  47.3593930  71.4864720  22.7328800  34.8725150
  71.7613560  23.6407680  34.7444370  71.2975460  22.6691330  35.8087140
  67.8840330  15.7573650  36.1678780  68.3025210  15.5704630  35.3275440
  67.5776390  14.9052700  36.4781710  71.3830060  20.6697790  39.8654580
  71.0073660  19.9025720  39.4335870  70.6533180  21.0520490  40.3529510
  70.7729680  19.8169310  49.4994100  70.5415770  19.5882060  48.5992050
  71.0334230  20.7368860  49.4538990  69.2117750  15.0425740  52.2773800
  70.0887930  15.0509140  52.6607800  69.2238590  14.3056580  51.6666150
  54.1487970  18.1731290  37.8885620  53.2452050  18.4361490  37.7137280
  54.6328590  18.4442460  37.1085580  70.6581020  18.8955280  43.1661820
  71.1818500  18.4017930  42.5351990  71.2440440  19.0305640  43.9109390
  70.8370740  18.9795150  46.6881370  69.8873450  18.9458690  46.8026360
  71.0183750  19.8895260  46.4531140  56.6915180  17.2296830  35.7980000
  57.4006880  16.8080050  35.3127280  55.9755120  17.2972060  35.1663350
  56.3389340  13.2836160  34.8382650  57.0617470  13.8245100  35.1563870
  56.6113860  13.0099580  33.9624190  70.1480990  18.1528630  39.1054230
  70.6440110  17.9199500  39.8903110  69.9497060  17.3140470  38.6891870
  56.0281530  12.5342350  44.7405270  56.6757720  11.9839730  44.3000430
  56.4483370  12.7885500  45.5621080  71.5768150  16.7889580  41.6391910
  71.4667430  16.6345620  42.5774180  72.3375740  16.2610520  41.3967320
  69.9233870  12.7283710  48.0974910  70.5606090  13.3417850  48.4634100
  70.0708760  12.7644370  47.1524140  72.4658420  14.6197500  34.8798050
  73.3907730  14.4878680  34.6716340  72.4434210  14.6990320  35.8334500
  72.5396910  15.3908160  37.5054760  71.7448410  15.3253280  38.0347670
  72.7440190  16.3258800  37.4940110  55.7813530  12.6898020  47.4830590
  55.4328350  13.1461840  48.2488770  55.4501230  11.7955150  47.5653020
  63.2938350  13.8809900  51.0050010  63.2327240  14.4731730  51.7545420
  64.2338730  13.7735860  50.8600270  65.9312910  13.5379960  50.6442300
  66.5453320  13.8559250  49.9823380  66.4762470  13.0528550  51.2638160
  72.3488090  29.4371590  48.0504140  71.8546370  29.8340460  47.3331270
  71.7401380  28.8120800  48.4441420  56.4534170  12.2174220  50.7581360
  57.0017160  12.0362270  49.9947470  56.5189480  11.4268330  51.2937670
  66.6720950  12.1012100  46.9711590  65.7980790  12.4347210  46.7684520
  66.5631700  11.6285280  47.7963460  67.5792930  14.3082970  48.3553310
  67.2506290  13.4934730  47.9755040  68.5275230  14.2652780  48.2319000
  64.4195770  13.0181940  45.9104500  63.6367560  13.4927440  46.1901260
  64.1258700  12.1136770  45.8017680  68.9716840  13.7205040  43.9553590
  69.4124930  13.6650140  43.1075190  68.7024430  14.6363050  44.0263770
  70.8355410  13.3520280  41.9662410  70.7743810  12.4081500  41.8193430
  71.6147440  13.4600370  42.5115870  55.7636180  13.3229420  38.4318220
  56.5215540  13.4358300  37.8582250  55.3013350  14.1598620  38.3861650
  62.3049990  15.4368690  41.4220530  61.4924500  15.0625580  41.0816410
  62.8091630  14.6813770  41.7241720  66.8074970  12.1011140  42.6603600
  67.4104340  12.6731350  43.1352120  66.0667960  12.6650580  42.4377500
  69.9509570  12.5032700  37.9343880  70.1460200  13.4016150  38.2011310
  69.1639440  12.2719780  38.4276830  58.1361330  13.8493470  36.9720190
  58.6654090  13.0623270  36.8428140  58.7689650  14.5284660  37.2055720
  60.3299170  13.5868610  40.0265580  59.7001910  12.8855920  40.1935710
  59.7904310  14.3472740  39.8098740  60.4554730  12.8652590  52.4618070
  60.1739000  13.3686190  51.6978890  60.8374430  12.0674340  52.0960200
  67.0570190  12.2806170  53.0398540  66.9435640  12.6000780  53.9350060
  67.8739930  12.6818680  52.7435820  69.8368680  29.4277700  52.5217230
  70.6294000  28.9326930  52.3143190  70.1301830  30.1067840  53.1292840
  65.9628340  20.2998640  23.4033280  65.8822390  19.3853250  23.1324990
  65.5492760  20.7965710  22.6972990  64.0946380  22.0777660  25.2842550
  63.3188480  21.5978100  25.5741120  64.7459310  21.3983310  25.1098710
  68.1153810  26.4837850  24.0641680  67.6535340  25.7125090  24.3928850
  68.9279360  26.5103920  24.5694130  56.5204160  17.3499360  19.9460700
  55.6320860  17.6915330  19.8440580  56.8045350  17.1499680  19.0541530
  54.4837170  19.9505010  25.8300400  55.0553280  19.1827210  25.8304040
  54.4838710  20.2493770  24.9207010  64.3417120  28.7695860  23.6845670
  63.7228560  29.2253360  23.1140110  65.1968900  28.9247320  23.2835370
  63.5355370  24.7534850  25.2912710  63.4663650  23.8124790  25.1301840
  64.2975230  24.8436260  25.8635280  55.7262040  15.3589370  27.6169330
  55.5464880  14.4615120  27.8972090  55.3242120  15.9061240  28.2916280
  64.5660540  17.5605230  25.5181640  64.9425360  16.6877110  25.4055310
  64.4680050  17.8963930  24.6272080  58.6965550  15.9330860  20.9799080
  58.8032300  16.8334590  21.2867840  57.7857910  15.8848830  20.6893730
  68.3484660  15.0555670  22.4509980  69.1694280  14.5652240  22.4935460
  68.3818740  15.6453330  23.2041820  56.3448710  17.8549870  26.2251670
  57.0258820  18.1188240  26.8439070  56.0296760  17.0150740  26.5589680
  60.5373280  18.9017230  25.3124260  61.0451500  19.3998200  25.9529280
  61.0686520  18.1252430  25.1363620  72.6384210  17.0722420  29.0153610
  71.9336380  17.4604130  28.4968720  72.9042130  17.7672710  29.6174540
  58.8209380  13.5415790  29.5787680  58.8227820  14.0588180  28.7733580
  57.9913690  13.0645970  29.5557610  65.2080470  23.6535100  21.0777580
  64.5897740  24.1184550  20.5140300  65.7203720  24.3462580  21.4947090
  68.5846140  16.9956050  25.2237520  67.8801710  17.2840940  25.8040630
  68.9458300  17.8056160  24.8637080  58.5024710  15.2525750  27.5858130
  58.8441520  16.0967800  27.2912000  57.5640520  15.4009490  27.7023470
  54.5763670  24.3391630  18.4517210  54.1991650  24.8278730  17.7202110
  54.8336740  25.0116910  19.0823740  70.2008920  26.6131180  27.4865000
  69.5172440  27.2830290  27.4781670  70.7403210  26.8111830  26.7209860
  71.6533060  16.4410840  25.6146730  70.7057970  16.4749820  25.7462160
  71.9783050  17.2549790  25.9996090  62.1852600  12.7408020  23.9102720
  62.4927580  12.1854910  23.1938220  61.2553300  12.8752480  23.7275710
  67.7367660  28.4575310  26.2010180  67.7494820  28.0537600  25.3332440
  67.1842880  29.2322600  26.0971610  69.0313080  25.1791530  21.2900350
  68.9209410  24.2365860  21.4149770  69.0281330  25.5407170  22.1763110
  64.5733360  20.8056850  20.6462840  63.6462640  20.7394230  20.8751310
  64.7258180  21.7436980  20.5318080  64.5602440  17.0773850  17.6430000
  63.6206110  17.2387810  17.7282460  64.8785700  17.7959530  17.0965990
  71.0815200  21.7592370  27.6209030  70.2533830  21.8285460  27.1459160
  71.6765680  22.3446680  27.1524860  68.6030650  22.3677150  21.1498090
  67.9843070  22.0296700  20.5024390  68.5855100  21.7236910  21.8577280
  68.0457210  18.5461690  28.5663900  67.6328390  19.3715400  28.8203890
  67.3133160  17.9606730  28.3740260  60.1790000  21.3321590  23.4282570
  59.7747000  20.6198840  22.9328470  60.2653120  20.9874830  24.3170610
  60.6471700  25.0189150  25.5921780  60.3499990  24.4134620  24.9129560
  61.5971520  25.0566460  25.4811140  58.8918620  18.1064800  27.2081610
  59.4433210  18.2160140  26.4334860  59.4062130  18.4802400  27.9236840
  68.7357310  28.5921020  29.2544880  68.2587870  29.3993210  29.0617490
  68.0519100  27.9399350  29.4071090  66.7795350  21.6063960  18.1570840
  67.2188630  20.7686390  18.0108660  67.4923770  22.2393360  18.2434980
  64.8890730  26.5460030  22.1252080  65.3286640  27.2884360  21.7107470
  64.8277620  26.7886600  23.0491040  70.3612490  12.8606770  16.4711880
  70.0485150  12.9533600  17.3710950  71.1224960  13.4387800  16.4209310
  56.8794630  20.2266570  20.9289220  56.7592230  20.9528660  20.3170490
  56.5695520  19.4569480  20.4517130  72.3156520  28.3532960  34.3236270
  72.7916240  28.8315850  35.0025350  72.9363680  28.2850450  33.5981770
  54.5180000  23.3981710  26.7357860  54.5960420  23.5330480  25.7913580
  55.1321680  22.6897600  26.9285980  55.7627630  25.0981900  23.1464040
  55.3555710  25.2396490  22.2917640  56.6540640  24.8142060  22.9435250
  71.7189770  25.5445810  31.4836280  71.8452830  25.3057690  30.5653460
  71.7611150  24.7130350  31.9558360  67.5560910  29.5329150  19.4815090
  67.3962050  29.2432090  20.3796920  67.3907620  28.7569280  18.9460320
  60.0349290  29.3127680  21.2586710  59.8591770  28.3963220  21.0454510
  59.1805030  29.6714970  21.4984510  67.2587040  27.0416710  18.0413090
  66.5652200  27.0394000  17.3815370  68.0009900  26.6176030  17.6107260
  66.8236970  28.6679420  22.1161580  67.2793920  27.8868800  22.4300200
  67.1629490  29.3786240  22.6602760  71.5713780  17.5978270  32.4486020
  70.9558050  18.1057940  31.9201480  71.2510200  16.6976600  32.3911960
  59.3458290  13.5701640  24.3112890  58.9026440  14.3511180  23.9797410
  59.9043280  13.8931530  25.0183830  63.6328100  16.4370160  29.9148210
  63.1707470  16.6453180  30.7268150  63.2306210  15.6229510  29.6118880
  68.6332610  17.6579110  31.0444870  67.7826200  17.3584860  31.3653940
  68.4734400  17.9021120  30.1328690  62.4617110  13.1912340  19.1918720
  61.8371290  13.1872210  19.9172030  62.3747230  12.3243300  18.7954690
  61.3834190  14.1148970  26.1702490  61.6806520  15.0211800  26.0894510
  61.9319750  13.6267750  25.5562060  59.1372510  18.6935210  22.0394140
  58.9113430  18.4772380  22.9440760  58.3565040  19.1263670  21.6940110
  66.3670270  18.6998580  20.6384790  65.7679160  19.4234380  20.4548410
  66.9149880  18.6375360  19.8561240  64.9735140  17.3362120  22.6688070
  65.3664710  17.6534320  21.8556760  65.3351990  16.4574000  22.7832590
  56.7082260  16.0034460  30.8588190  56.3145650  16.8509670  31.0660970
  56.0200660  15.3660830  31.0496830  63.2827310  16.0869430  33.9284930
  62.5925630  15.8941630  34.5631020  64.0259610  16.3704070  34.4609230
  54.0099310  13.9262920  24.8918270  53.7212360  14.4965780  25.6043250
  54.7545070  13.4467370  25.2549500  54.1969540  17.8683040  16.1020990
  54.1144210  18.8113800  16.2435980  53.8452600  17.7257950  15.2233340
  65.5590280  19.9267870  26.7638850  64.8271400  20.4354680  27.1128950
  65.1614620  19.1097850  26.4627630  61.9967670  16.6022070  25.1691340
  62.0003730  16.1612020  24.3195880  62.8918790  16.9239400  25.2763160
  57.8470050  16.4848560  24.1285550  57.5070100  16.9623790  24.8852600
  57.0847370  16.0313680  23.7686650  62.0587820  17.6034150  18.1598100
  62.1800640  17.5620630  19.1083920  61.6736330  18.4658300  18.0044830
  66.0216190  15.3801550  26.1761790  66.0388930  15.8310200  27.0203640
  65.7731770  14.4807190  26.3895230  61.0709320  19.9135290  17.5581400
  60.5026220  19.4653540  16.9317310  61.7798320  20.2728070  17.0246550
  69.4486940  12.7933730  32.0148170  69.7732710  12.0623390  32.5406150
  69.4843450  12.4747370  31.1129160  62.2975640  20.6623850  26.9156750
  62.6645770  20.1882420  27.6618090  62.1080700  21.5365420  27.2565090
  55.1616130  15.4067540  23.0450220  54.8763050  15.0423210  23.8828840
  55.0994990  14.6748000  22.4313360  58.6156800  23.9093480  19.8307810
  57.8419060  23.3691100  19.6706530  59.3451430  23.3900090  19.4925570
  69.3744780  22.9058840  25.6234200  70.0943900  23.4014130  25.2330310
  69.1726600  22.2276730  24.9788070  64.8354720  14.2996800  19.7663590
  64.0219330  13.8009970  19.6908900  64.6416670  15.1395050  19.3499940
  67.5503110  18.6716450  18.0625750  68.4382730  18.9833680  17.8877090
  67.5208200  17.7988700  17.6706330  58.6594200  23.5773860  23.4686620
  59.1772870  22.7742120  23.4143510  58.2078220  23.5153000  24.3103450
  63.5463700  24.8440140  18.7413920  63.8879400  25.5882370  18.2457240
  62.7176410  25.1571260  19.1038750  69.8217380  19.9828290  17.5305610
  69.7381100  20.4142510  16.6802050  70.5411570  20.4426640  17.9632430
  70.8991520  22.4395810  30.6075580  70.1739710  23.0324590  30.4104970
  71.4266980  22.4319350  29.8088950  70.8504630  26.8370550  20.2587740
  70.2080790  26.1826170  20.5331460  70.4635290  27.2425640  19.4828410
  66.4291110  24.1655980  24.1059430  66.7814930  23.5684110  23.4460800
  65.5453440  23.8400210  24.2767680  62.5154390  24.9253670  21.5129840
  63.2025520  25.4722880  21.8937430  61.7286810  25.4694400  21.5479450
  54.6546790  20.5426490  17.0046920  55.5241640  20.8251290  17.2882840
  54.1637110  21.3562360  16.8895730  61.8181600  21.9299700  21.1255200
  62.2744380  22.7404950  21.3515390  61.4669810  21.6122840  21.9573690
  57.7193380  12.2737350  21.5977720  57.5908010  12.2655250  22.5462640
  56.8955400  12.6120440  21.2468730  69.2402010  25.7287010  16.7964090
  69.0139590  25.0117450  17.3888730  68.8498210  25.4799450  15.9585840
  55.0218040  29.7553870  17.5708550  55.3815680  30.3543210  16.9165820
  54.8810380  30.3013760  18.3443580  54.7187310  14.0328470  31.0584420
  54.0045830  14.2325390  31.6637030  55.1382350  13.2568040  31.4299220
  68.8218260  23.6458950  18.4578250  68.5339960  24.1071640  19.2456130
  69.6170430  23.1856720  18.7262470  61.0386660  27.1385070  18.3882220
  61.0296760  27.8714760  17.7726730  60.1185020  26.8916650  18.4809180
  56.6393300  22.3599960  19.1328980  56.0321250  23.0998860  19.1424280
  57.1142650  22.4499320  18.3067180  66.2126090  16.5250780  28.8085870
  66.5806910  15.7045990  29.1365440  65.3524290  16.5852670  29.2241520
  69.5788120  15.4807720  19.6173430  68.9501280  15.5853390  18.9031660
  69.0840040  15.7004500  20.4067310  64.0246260  27.2013310  17.0507410
  64.1258240  26.9977300  16.1209390  63.1248000  26.9471590  17.2555190
  61.5472150  17.7593670  21.0331310  60.8388300  18.2280010  21.4744920
  61.8316630  17.1015680  21.6676500  65.5787580  14.4844330  22.4727100
  65.4555360  14.5030460  21.5236610  66.5272140  14.5323270  22.5925500
  62.6664370  29.7199630  21.7455080  62.9205870  29.6821020  20.8234450
  61.7176850  29.5932960  21.7383330  59.7507170  16.0678750  18.4082020
  60.5997700  16.5048900  18.3422210  59.3838440  16.3799010  19.2354080
  70.3794940  15.3958330  29.8752230  69.8768540  16.1363730  30.2146040
  71.1951600  15.7842330  29.5589020  68.6716950  20.6391510  23.3213590
  67.7307090  20.6541740  23.4961280  68.9861020  19.8527470  23.7673890
  58.6498590  22.3211110  16.8817550  59.4161860  22.2092470  17.4442980
  58.7273280  21.6249080  16.2294320  57.3445350  19.7536180  17.5650440
  57.4248940  18.8063690  17.6767840  58.2365100  20.0843060  17.6711100
  70.6742530  27.8100360  24.9967850  70.7989950  28.6331530  25.4691660
  71.5408090  27.5991090  24.6492000  55.0305540  25.9705140  20.5426490
  54.1045320  26.2126280  20.5331900  55.4961970  26.7979400  20.4211240
  61.2562370  29.0761880  16.4910550  62.0490980  29.3650710  16.0392340
  60.7366720  28.6454050  15.8123030  70.3092540  28.3032010  17.9147290
  70.0234050  27.8897150  17.1001470  70.1112090  29.2319720  17.7947810
  61.7739770  24.2965290  16.3552900  61.6690410  23.6817640  17.0814280
  61.6063990  23.7731180  15.5715910  65.0142500  23.3585320  16.9594890
  64.4652600  23.8054620  17.6037630  65.6361760  22.8534570  17.4832560
  60.6817620  22.3176240  18.8560190  61.1034040  22.1516110  19.6991580
  60.8068460  21.5076470  18.3615330  58.8445040  18.2972790  31.6631170
  58.3141500  17.8063740  31.0354510  59.5133110  18.7256990  31.1289100
  63.1945260  21.3413850  16.1037290  63.7150920  20.6262870  15.7378440
  63.8413660  21.9799720  16.4037800  59.3317340  15.2635160  31.7428460
  59.2374210  14.6455910  31.0179330  58.7514730  15.9901450  31.5158370
  62.0978780  13.8208400  28.7755850  61.6496080  13.8432660  27.9301400
  61.4643980  13.4227420  29.3726150  67.1790130  21.0016100  29.3568640
  66.6525350  21.5258720  28.7533780  67.5221470  21.6343490  29.9878370
  59.5776520  18.3909470  15.8018350  59.3765580  17.5276830  16.1631690
  59.4068570  18.3042830  14.8639950  66.4264430  16.6066070  32.2714970
  65.7379950  15.9447610  32.2064960  67.1470450  16.1604340  32.7163430
  67.0564830  13.2017700  18.3305230  67.3367120  12.3585600  18.6864650
  66.2830560  13.4340810  18.8443980  58.3759320  15.4910090  15.7896230
  58.6785220  15.4977520  14.8815380  59.1153910  15.1407950  16.2863890
  61.5944250  14.4344710  16.7752430  61.2466250  13.7568700  16.1954880
  61.7957020  13.9734220  17.5895820  63.7593290  29.4225460  18.3939030
  64.6544080  29.7610430  18.4157790  63.7910920  28.7004870  17.7663310
  57.3989450  24.7952510  16.6226030  57.8364320  25.3382180  17.2783610
  57.8837180  23.9699460  16.6322370  59.2097170  25.9150550  21.7348260
  58.9092710  25.7915520  22.6352170  59.1034660  25.0559140  21.3263990
  70.7387640  27.9529130  31.1005230  70.1389630  28.0121690  30.3569150
  70.8681540  27.0134110  31.2302080  71.9789090  25.6946950  16.4374940
  71.1482050  25.7623600  16.9082170  72.1560920  26.5851070  16.1341800
  71.4345550  22.4394430  18.9409140  72.1964460  23.0091080  19.0468830
  71.4499920  21.8721630  19.7117450  54.9349890  20.9632360  23.1716800
  54.2798730  20.6944000  22.5276500  55.7727840  20.8536840  22.7218780
  72.4405520  23.2944530  23.7851070  72.8114350  22.5111850  23.3787040
  73.0807450  23.9833630  23.6068370  69.4239280  24.6781110  29.1981390
  68.6099120  25.1078270  29.4607180  69.8313480  25.2899520  28.5850440
  71.4864720  22.7328800  16.0981660  71.7613560  23.6407680  15.9700880
  71.2975460  22.6691330  17.0343650  67.8840330  15.7573650  17.3935290
  68.3025210  15.5704630  16.5531950  67.5776390  14.9052700  17.7038220
  71.3830060  20.6697790  21.0911090  71.0073660  19.9025720  20.6592380
  70.6533180  21.0520490  21.5786020  55.9725820  21.3484930  27.7120140
  56.3398860  21.2612330  28.5916160  55.4036640  20.5851480  27.6127000
  70.7729680  19.8169310  30.7250610  70.5415770  19.5882060  29.8248560
  71.0334230  20.7368860  30.6795500  69.2117750  15.0425740  33.5030310
  70.0887930  15.0509140  33.8864310  69.2238590  14.3056580  32.8922660
  54.1487970  18.1731290  19.1142130  53.2452050  18.4361490  18.9393790
  54.6328590  18.4442460  18.3342090  70.6581020  18.8955280  24.3918330
  71.1818500  18.4017930  23.7608500  71.2440440  19.0305640  25.1365900
  70.8370740  18.9795150  27.9137880  69.8873450  18.9458690  28.0282870
  71.0183750  19.8895260  27.6787650  56.6915180  17.2296830  17.0236510
  57.4006880  16.8080050  16.5383790  55.9755120  17.2972060  16.3919860
  56.3389340  13.2836160  16.0639160  57.0617470  13.8245100  16.3820380
  56.6113860  13.0099580  15.1880700  70.1480990  18.1528630  20.3310740
  70.6440110  17.9199500  21.1159620  69.9497060  17.3140470  19.9148380
  56.0281530  12.5342350  25.9661780  56.6757720  11.9839730  25.5256940
  56.4483370  12.7885500  26.7877590  71.5768150  16.7889580  22.8648420
  71.4667430  16.6345620  23.8030690  72.3375740  16.2610520  22.6223830
  69.9233870  12.7283710  29.3231420  70.5606090  13.3417850  29.6890610
  70.0708760  12.7644370  28.3780650  72.4658420  14.6197500  16.1054560
  73.3907730  14.4878680  15.8972850  72.4434210  14.6990320  17.0591010
  72.5396910  15.3908160  18.7311270  71.7448410  15.3253280  19.2604180
  72.7440190  16.3258800  18.7196620  69.4815330  29.4299710  22.7249660
  70.0774400  29.1084280  22.0484080  69.7393480  28.9571530  23.5162930
  55.7813530  12.6898020  28.7087100  55.4328350  13.1461840  29.4745280
  55.4501230  11.7955150  28.7909530  63.2938350  13.8809900  32.2306520
  63.2327240  14.4731730  32.9801930  64.2338730  13.7735860  32.0856780
  65.9312910  13.5379960  31.8698810  66.5453320  13.8559250  31.2079890
  66.4762470  13.0528550  32.4894670  72.3488090  29.4371590  29.2760650
  71.8546370  29.8340460  28.5587780  71.7401380  28.8120800  29.6697930
  56.4534170  12.2174220  31.9837870  57.0017160  12.0362270  31.2203980
  56.5189480  11.4268330  32.5194180  66.6720950  12.1012100  28.1968100
  65.7980790  12.4347210  27.9941030  66.5631700  11.6285280  29.0219970
  67.5792930  14.3082970  29.5809820  67.2506290  13.4934730  29.2011550
  68.5275230  14.2652780  29.4575510  70.0327540  30.0795010  26.5547390
  69.5730510  30.8310820  26.1805410  69.4040000  29.3601480  26.4962190
  63.2018760  29.2791740  26.5564500  63.4896570  29.0246040  25.6797510
  63.7141980  28.7269100  27.1470070  64.4195770  13.0181940  27.1361010
  63.6367560  13.4927440  27.4157770  64.1258700  12.1136770  27.0274190
  68.9716840  13.7205040  25.1810100  69.4124930  13.6650140  24.3331700
  68.7024430  14.6363050  25.2520280  70.8355410  13.3520280  23.1918920
  70.7743810  12.4081500  23.0449940  71.6147440  13.4600370  23.7372380
  55.7636180  13.3229420  19.6574730  56.5215540  13.4358300  19.0838760
  55.3013350  14.1598620  19.6118160  62.3049990  15.4368690  22.6477040
  61.4924500  15.0625580  22.3072920  62.8091630  14.6813770  22.9498230
  66.8074970  12.1011140  23.8860110  67.4104340  12.6731350  24.3608630
  66.0667960  12.6650580  23.6634010  69.9509570  12.5032700  19.1600390
  70.1460200  13.4016150  19.4267820  69.1639440  12.2719780  19.6533340
  56.7470860  28.1845870  19.5993010  56.2218480  28.5653900  18.8954970
  56.6715440  28.8096640  20.3202720  58.1361330  13.8493470  18.1976700
  58.6654090  13.0623270  18.0684650  58.7689650  14.5284660  18.4312230
  60.3299170  13.5868610  21.2522090  59.7001910  12.8855920  21.4192220
  59.7904310  14.3472740  21.0355250  71.5036180  29.7433410  20.9206950
  71.6788370  29.0571150  20.2767870  70.8057750  30.2680460  20.5283620
  60.4554730  12.8652590  33.6874580  60.1739000  13.3686190  32.9235400
  60.8374430  12.0674340  33.3216710  59.3463830  30.1328250  18.4742260
  60.0782650  29.8487530  17.9266150  59.6057500  29.8941530  19.3641640
  58.5078620  26.2492980  18.4788590  57.8787500  26.7178080  19.0274420
  58.6226450  25.4042200  18.9134780  67.0570190  12.2806170  34.2655050
  66.9435640  12.6000780  35.1606570  67.8739930  12.6818680  33.9692330
  65.9628340  20.2998640   4.6289790  65.8822390  19.3853250   4.3581500
  65.5492760  20.7965710   3.9229500  64.0946380  22.0777660   6.5099060
  63.3188480  21.5978100   6.7997630  64.7459310  21.3983310   6.3355220
  58.1112210  22.3897470   7.3874820  57.2797090  22.1346180   7.7871330
  58.7193190  22.4608240   8.1232740  68.1153810  26.4837850   5.2898190
  67.6535340  25.7125090   5.6185360  68.9279360  26.5103920   5.7950640
  58.0913470  26.4237560   7.5832840  58.3941510  25.5335300   7.4043060
  58.8357060  26.9807780   7.3555090  54.4837170  19.9505010   7.0556910
  55.0553280  19.1827210   7.0560550  54.4838710  20.2493770   6.1463520
  64.3417120  28.7695860   4.9102180  63.7228560  29.2253360   4.3396620
  65.1968900  28.9247320   4.5091880  63.5355370  24.7534850   6.5169220
  63.4663650  23.8124790   6.3558350  64.2975230  24.8436260   7.0891790
  55.7262040  15.3589370   8.8425840  55.5464880  14.4615120   9.1228600
  55.3242120  15.9061240   9.5172790  64.5660540  17.5605230   6.7438150
  64.9425360  16.6877110   6.6311820  64.4680050  17.8963930   5.8528590
  58.6965550  15.9330860   2.2055590  58.8032300  16.8334590   2.5124350
  57.7857910  15.8848830   1.9150240  68.3484660  15.0555670   3.6766490
  69.1694280  14.5652240   3.7191970  68.3818740  15.6453330   4.4298330
  56.3448710  17.8549870   7.4508180  57.0258820  18.1188240   8.0695580
  56.0296760  17.0150740   7.7846190  60.5373280  18.9017230   6.5380770
  61.0451500  19.3998200   7.1785790  61.0686520  18.1252430   6.3620130
  72.6384210  17.0722420  10.2410120  71.9336380  17.4604130   9.7225230
  72.9042130  17.7672710  10.8431050  58.8209380  13.5415790  10.8044190
  58.8227820  14.0588180   9.9990090  57.9913690  13.0645970  10.7814120
  65.2080470  23.6535100   2.3034090  64.5897740  24.1184550   1.7396810
  65.7203720  24.3462580   2.7203600  60.0712230  23.1810970   8.9817690
  59.7381610  23.8079890   9.6238760  60.2478910  23.7072850   8.2019360
  68.5846140  16.9956050   6.4494030  67.8801710  17.2840940   7.0297140
  68.9458300  17.8056160   6.0893590  58.5024710  15.2525750   8.8114640
  58.8441520  16.0967800   8.5168510  57.5640520  15.4009490   8.9279980
  59.2831330  25.1491770  10.7966870  59.9005330  25.8242850  10.5151320
  58.4224450  25.5579750  10.7054370  70.2008920  26.6131180   8.7121510
  69.5172440  27.2830290   8.7038180  70.7403210  26.8111830   7.9466370
  71.6533060  16.4410840   6.8403240  70.7057970  16.4749820   6.9718670
  71.9783050  17.2549790   7.2252600  62.1852600  12.7408020   5.1359230
  62.4927580  12.1854910   4.4194730  61.2553300  12.8752480   4.9532220
  67.7367660  28.4575310   7.4266690  67.7494820  28.0537600   6.5588950
  67.1842880  29.2322600   7.3228120  69.0313080  25.1791530   2.5156860
  68.9209410  24.2365860   2.6406280  69.0281330  25.5407170   3.4019620
  67.1353100  23.3605150   8.7549300  67.5521890  23.1465260   7.9202760
  67.8592920  23.6177940   9.3257920  64.5733360  20.8056850   1.8719350
  63.6462640  20.7394230   2.1007820  64.7258180  21.7436980   1.7574590
  71.0815200  21.7592370   8.8465540  70.2533830  21.8285460   8.3715670
  71.6765680  22.3446680   8.3781370  68.6030650  22.3677150   2.3754600
  67.9843070  22.0296700   1.7280900  68.5855100  21.7236910   3.0833790
  68.0457210  18.5461690   9.7920410  67.6328390  19.3715400  10.0460400
  67.3133160  17.9606730   9.5996770  60.1790000  21.3321590   4.6539080
  59.7747000  20.6198840   4.1584980  60.2653120  20.9874830   5.5427120
  60.6471700  25.0189150   6.8178290  60.3499990  24.4134620   6.1386070
  61.5971520  25.0566460   6.7067650  58.8918620  18.1064800   8.4338120
  59.4433210  18.2160140   7.6591370  59.4062130  18.4802400   9.1493350
  68.7357310  28.5921020  10.4801390  68.2587870  29.3993210  10.2874000
  68.0519100  27.9399350  10.6327600  59.7390130  24.7570840  13.4686090
  58.8418660  24.9810810  13.7159490  59.7643000  24.8805780  12.5197490
  58.5661350  21.6284160  12.0443460  58.4269120  22.5006960  12.4130860
  57.6842710  21.2856970  11.8991400  64.8890730  26.5460030   3.3508590
  65.3286640  27.2884360   2.9363980  64.8277620  26.7886600   4.2747550
  60.3641700  27.5705860  14.2528610  60.3357130  27.9748810  13.3857040
  60.2006670  26.6416220  14.0900210  56.8794630  20.2266570   2.1545730
  56.7592230  20.9528660   1.5427000  56.5695520  19.4569480   1.6773640
  72.3156520  28.3532960  15.5492780  72.7916240  28.8315850  16.2281860
  72.9363680  28.2850450  14.8238280  54.5180000  23.3981710   7.9614370
  54.5960420  23.5330480   7.0170090  55.1321680  22.6897600   8.1542490
  55.7627630  25.0981900   4.3720550  55.3555710  25.2396490   3.5174150
  56.6540640  24.8142060   4.1691760  71.7189770  25.5445810  12.7092790
  71.8452830  25.3057690  11.7909970  71.7611150  24.7130350  13.1814870
  65.5806510  29.2473810  11.2787600  66.0951180  29.1581820  12.0810030
  64.7375590  29.5933510  11.5715510  60.0349290  29.3127680   2.4843220
  59.8591770  28.3963220   2.2711020  59.1805030  29.6714970   2.7241020
  66.8236970  28.6679420   3.3418090  67.2793920  27.8868800   3.6556710
  67.1629490  29.3786240   3.8859270  71.5713780  17.5978270  13.6742530
  70.9558050  18.1057940  13.1457990  71.2510200  16.6976600  13.6168470
  54.5739520  24.4395880  10.5008830  54.7370560  23.9701240   9.6828200
  55.0391970  23.9319440  11.1657670  59.3458290  13.5701640   5.5369400
  58.9026440  14.3511180   5.2053920  59.9043280  13.8931530   6.2440340
  63.6328100  16.4370160  11.1404720  63.1707470  16.6453180  11.9524660
  63.2306210  15.6229510  10.8375390  68.6332610  17.6579110  12.2701380
  67.7826200  17.3584860  12.5910450  68.4734400  17.9021120  11.3585200
  65.7282320  19.1580860  14.3700170  66.0535730  18.3244610  14.0302400
  66.5162650  19.6809380  14.5178500  61.3834190  14.1148970   7.3959000
  61.6806520  15.0211800   7.3151020  61.9319750  13.6267750   6.7818570
  59.1372510  18.6935210   3.2650650  58.9113430  18.4772380   4.1697270
  58.3565040  19.1263670   2.9196620  61.5771720  19.5920790  13.9310920
  61.4815320  18.6515520  13.7811320  62.4203700  19.8135860  13.5358990
  64.9735140  17.3362120   3.8944580  65.3664710  17.6534320   3.0813270
  65.3351990  16.4574000   4.0089100  56.7082260  16.0034460  12.0844700
  56.3145650  16.8509670  12.2917480  56.0200660  15.3660830  12.2753340
  63.2827310  16.0869430  15.1541440  62.5925630  15.8941630  15.7887530
  64.0259610  16.3704070  15.6865740  54.0099310  13.9262920   6.1174780
  53.7212360  14.4965780   6.8299760  54.7545070  13.4467370   6.4806010
  65.5590280  19.9267870   7.9895360  64.8271400  20.4354680   8.3385460
  65.1614620  19.1097850   7.6884140  61.9967670  16.6022070   6.3947850
  62.0003730  16.1612020   5.5452390  62.8918790  16.9239400   6.5019670
  57.8470050  16.4848560   5.3542060  57.5070100  16.9623790   6.1109110
  57.0847370  16.0313680   4.9943160  66.0216190  15.3801550   7.4018300
  66.0388930  15.8310200   8.2460150  65.7731770  14.4807190   7.6151740
  69.4486940  12.7933730  13.2404680  69.7732710  12.0623390  13.7662660
  69.4843450  12.4747370  12.3385670  56.1478500  23.8147310  12.6604640
  55.7633290  23.1740980  13.2587600  56.4590690  24.5183430  13.2299370
  62.2975640  20.6623850   8.1413260  62.6645770  20.1882420   8.8874600
  62.1080700  21.5365420   8.4821600  55.1616130  15.4067540   4.2706730
  54.8763050  15.0423210   5.1085350  55.0994990  14.6748000   3.6569870
  60.0875010  19.7032490  10.4597470  59.7832080  20.5824470  10.6847830
  61.0421470  19.7632280  10.4954910  69.3744780  22.9058840   6.8490710
  70.0943900  23.4014130   6.4586820  69.1726600  22.2276730   6.2044580
  64.7563580  22.9767900  12.7359710  64.6900890  22.0563570  12.4817300
  64.1268720  23.0743340  13.4504350  58.6594200  23.5773860   4.6943130
  59.1772870  22.7742120   4.6400020  58.2078220  23.5153000   5.5359960
  56.1438740  20.5435230  11.6068830  55.7853680  21.2089080  12.1942170
  55.8493300  19.7118780  11.9781450  59.3451860  21.0019470  14.4908380
  59.0452000  21.1476650  13.5936200  60.1163100  20.4424760  14.3981770
  64.6880310  25.7988470  12.4863510  64.7024850  24.8669430  12.2682420
  63.9805410  25.8848230  13.1253280  70.8991520  22.4395810  11.8332090
  70.1739710  23.0324590  11.6361480  71.4266980  22.4319350  11.0345460
  66.4291110  24.1655980   5.3315940  66.7814930  23.5684110   4.6717310
  65.5453440  23.8400210   5.5024190  62.5154390  24.9253670   2.7386350
  63.2025520  25.4722880   3.1193940  61.7286810  25.4694400   2.7735960
  61.8181600  21.9299700   2.3511710  62.2744380  22.7404950   2.5771900
  61.4669810  21.6122840   3.1830200  64.1214210  27.4406040   9.5804010
  64.7656430  27.6465420  10.2577430  64.4843650  26.6794440   9.1274860
  57.7193380  12.2737350   2.8234230  57.5908010  12.2655250   3.7719150
  56.8955400  12.6120440   2.4725240  65.3946290  25.4438390   8.2981460
  66.0368520  24.7431550   8.4113630  65.9195640  26.2236830   8.1178350
  67.1683910  26.2433290  11.5017520  67.5040150  26.8299980  12.1795440
  66.2484250  26.1126000  11.7315310  54.7187310  14.0328470  12.2840930
  54.0045830  14.2325390  12.8893540  55.1382350  13.2568040  12.6555730
  55.0059900  28.0208730  13.2707460  55.1151020  27.0803470  13.1302850
  54.3540460  28.2863480  12.6221190  62.9972490  26.2924620  14.6705580
  62.6769360  25.5733860  15.2151270  62.3230850  26.9679690  14.7441640
  66.2126090  16.5250780  10.0342380  66.5806910  15.7045990  10.3621950
  65.3524290  16.5852670  10.4498030  61.5472150  17.7593670   2.2587820
  60.8388300  18.2280010   2.7001430  61.8316630  17.1015680   2.8933010
  63.1728080  19.1790370  10.2580350  63.6713330  19.6536190  10.9232200
  63.3151030  18.2553890  10.4650380  65.5787580  14.4844330   3.6983610
  65.4555360  14.5030460   2.7493120  66.5272140  14.5323270   3.8182010
  62.6664370  29.7199630   2.9711590  62.9205870  29.6821020   2.0490960
  61.7176850  29.5932960   2.9639840  70.3794940  15.3958330  11.1008740
  69.8768540  16.1363730  11.4402550  71.1951600  15.7842330  10.7845530
  68.6716950  20.6391510   4.5470100  67.7307090  20.6541740   4.7217790
  68.9861020  19.8527470   4.9930400  70.6742530  27.8100360   6.2224360
  70.7989950  28.6331530   6.6948170  71.5408090  27.5991090   5.8748510
  58.1460060  29.9031570   5.8941490  58.8822540  29.3547030   6.1650060
  58.5300980  30.7687580   5.7547480  55.0305540  25.9705140   1.7683000
  54.1045320  26.2126280   1.7588410  55.4961970  26.7979400   1.6467750
  57.1518340  29.0877640  15.0827070  57.9531070  29.4089690  15.4962470
  56.6370160  28.7273220  15.8046980  65.9882970  25.1957510  15.0302480
  65.3821130  25.2189110  14.2898230  65.6837080  24.4640550  15.5669730
  67.4183340  28.9237800  13.6411890  68.3705090  28.8395820  13.5912130
  67.2711560  29.5879510  14.3145680  54.8716150  21.5751100  14.0263120
  55.3755170  20.9958380  14.5979350  54.1323570  21.8591330  14.5639490
  61.9254090  22.9822090  13.5598640  61.1599760  23.5507090  13.4753310
  62.1070050  22.6898300  12.6666870  69.0677440  24.7127420  14.1173660
  69.8086910  25.0503180  13.6141120  68.3050120  24.8819480  13.5643430
  56.9039230  19.7180690  14.9213190  56.9444570  19.4194560  15.8298420
  57.7584730  20.1188300  14.7620710  58.8445040  18.2972790  12.8887680
  58.3141500  17.8063740  12.2611020  59.5133110  18.7256990  12.3545610
  67.7423100  22.7642250  12.6528870  68.1564120  22.9187330  13.5019290
  66.8074100  22.8897470  12.8154650  68.2145270  20.1038410  14.6568020
  68.7966040  19.3490730  14.5688500  68.3907040  20.6345850  13.8799500
  59.3317340  15.2635160  12.9684970  59.2374210  14.6455910  12.2435840
  58.7514730  15.9901450  12.7414880  62.0978780  13.8208400  10.0012360
  61.6496080  13.8432660   9.1557910  61.4643980  13.4227420  10.5982660
  62.5038330  22.7162730  10.6224800  62.9226440  23.5595460  10.4501040
  61.5846960  22.8534770  10.3931580  64.8402230  20.4478910  12.0062640
  64.9598440  19.8520050  12.7457480  65.6996230  20.4848600  11.5863940
  67.1790130  21.0016100  10.5825150  66.6525350  21.5258720   9.9790290
  67.5221470  21.6343490  11.2134880  60.3545750  29.0215740  11.7382530
  59.8166840  29.7461800  11.4191230  60.6079710  28.5446080  10.9479870
  61.6071000  16.9900260  13.2638460  62.1970690  16.6816110  13.9516280
  60.7891240  16.5180010  13.4198360  66.4264430  16.6066070  13.4971480
  65.7379950  15.9447610  13.4321470  67.1470450  16.1604340  13.9419940
  63.2107960  30.2566950  11.9969180  63.1366660  31.1602090  12.3041550
  62.3086800  29.9378850  11.9691250  54.6135250  27.5841540   5.3002800
  54.9438260  26.7162600   5.0681440  55.0426250  27.7900060   6.1307760
  59.2097170  25.9150550   2.9604770  58.9092710  25.7915520   3.8608680
  59.1034660  25.0559140   2.5520500  55.1025460  28.4512130   8.0384430
  54.6656450  28.6312930   8.8708580  55.6703140  29.2086750   7.8966150
  70.7387640  27.9529130  12.3261740  70.1389630  28.0121690  11.5825660
  70.8681540  27.0134110  12.4558590  54.9349890  20.9632360   4.3973310
  54.2798730  20.6944000   3.7533010  55.7727840  20.8536840   3.9475290
  72.4405520  23.2944530   5.0107580  72.8114350  22.5111850   4.6043550
  73.0807450  23.9833630   4.8324880  69.4239280  24.6781110  10.4237900
  68.6099120  25.1078270  10.6863690  69.8313480  25.2899520   9.8106950
  71.3830060  20.6697790   2.3167600  71.0073660  19.9025720   1.8848890
  70.6533180  21.0520490   2.8042530  55.9725820  21.3484930   8.9376650
  56.3398860  21.2612330   9.8172670  55.4036640  20.5851480   8.8383510
  70.7729680  19.8169310  11.9507120  70.5415770  19.5882060  11.0505070
  71.0334230  20.7368860  11.9052010  55.5241820  18.2594020  12.8435070
  54.6297870  18.2260780  13.1828780  56.0639370  18.4580810  13.6086320
  69.2117750  15.0425740  14.7286820  70.0887930  15.0509140  15.1120820
  69.2238590  14.3056580  14.1179170  70.6581020  18.8955280   5.6174840
  71.1818500  18.4017930   4.9865010  71.2440440  19.0305640   6.3622410
  70.8370740  18.9795150   9.1394390  69.8873450  18.9458690   9.2539380
  71.0183750  19.8895260   8.9044160  56.0281530  12.5342350   7.1918290
  56.6757720  11.9839730   6.7513450  56.4483370  12.7885500   8.0134100
  71.5768150  16.7889580   4.0904930  71.4667430  16.6345620   5.0287200
  72.3375740  16.2610520   3.8480340  69.9233870  12.7283710  10.5487930
  70.5606090  13.3417850  10.9147120  70.0708760  12.7644370   9.6037160
  69.4815330  29.4299710   3.9506170  70.0774400  29.1084280   3.2740590
  69.7393480  28.9571530   4.7419440  55.7813530  12.6898020   9.9343610
  55.4328350  13.1461840  10.7001790  55.4501230  11.7955150  10.0166040
  57.3877900  25.8617620  14.0996800  57.3447530  25.4910530  14.9811260
  57.5188910  26.7995190  14.2398620  61.0883930  27.4177210   9.7006520
  60.8475290  27.6851770   8.8137040  62.0286570  27.5882940   9.7557380
  63.2938350  13.8809900  13.4563030  63.2327240  14.4731730  14.2058440
  64.2338730  13.7735860  13.3113290  65.9312910  13.5379960  13.0955320
  66.5453320  13.8559250  12.4336400  66.4762470  13.0528550  13.7151180
  72.3488090  29.4371590  10.5017160  71.8546370  29.8340460   9.7844290
  71.7401380  28.8120800  10.8954440  56.4534170  12.2174220  13.2094380
  57.0017160  12.0362270  12.4460490  56.5189480  11.4268330  13.7450690
  57.2265930  28.8079870  11.2194580  56.6326250  28.6764570  11.9584620
  57.2189770  27.9718010  10.7536680  66.6720950  12.1012100   9.4224610
  65.7980790  12.4347210   9.2197540  66.5631700  11.6285280  10.2476480
  67.5792930  14.3082970  10.8066330  67.2506290  13.4934730  10.4268060
  68.5275230  14.2652780  10.6832020  70.0327540  30.0795010   7.7803900
  69.5730510  30.8310820   7.4061920  69.4040000  29.3601480   7.7218700
  56.8578160  26.1738250  10.1702620  56.1312220  25.5543540  10.1028570
  56.9187310  26.5678860   9.3000700  60.4623260  28.3883250   6.9552030
  60.9788280  27.7770610   6.4300290  61.1120640  28.8912030   7.4463040
  63.2018760  29.2791740   7.7821010  63.4896570  29.0246040   6.9054020
  63.7141980  28.7269100   8.3726580  64.4195770  13.0181940   8.3617520
  63.6367560  13.4927440   8.6414280  64.1258700  12.1136770   8.2530700
  68.9716840  13.7205040   6.4066610  69.4124930  13.6650140   5.5588210
  68.7024430  14.6363050   6.4776790  70.8355410  13.3520280   4.4175430
  70.7743810  12.4081500   4.2706450  71.6147440  13.4600370   4.9628890
  55.1408160  29.4912640   3.3799380  54.9730200  28.8583320   4.0781270
  54.2742670  29.6972040   3.0293570  62.3049990  15.4368690   3.8733550
  61.4924500  15.0625580   3.5329430  62.8091630  14.6813770   4.1754740
  66.8074970  12.1011140   5.1116620  67.4104340  12.6731350   5.5865140
  66.0667960  12.6650580   4.8890520  60.3299170  13.5868610   2.4778600
  59.7001910  12.8855920   2.6448730  59.7904310  14.3472740   2.2611760
  63.2691120  30.2007840  15.1489210  64.1958430  29.9652110  15.1925170
  63.2541550  31.0279840  14.6675240  71.5036180  29.7433410   2.1463460
  71.6788370  29.0571150   1.5024380  70.8057750  30.2680460   1.7540130
  60.4554730  12.8652590  14.9131090  60.1739000  13.3686190  14.1491910
  60.8374430  12.0674340  14.5473220  67.0570190  12.2806170  15.4911560
  66.9435640  12.6000780  16.3863080  67.8739930  12.6818680  15.1948840
  69.8368680  29.4277700  14.9730250  70.6294000  28.9326930  14.7656210
  70.1301830  30.1067840  15.5805860  64.0946380   3.3034170 100.3816510
  63.3188480   2.8234610 100.6715080  64.7459310   2.6239820 100.2072670
  58.1112210   3.6153980 101.2592270  57.2797090   3.3602690 101.6588780
  58.7193190   3.6864750 101.9950190  68.1153810   7.7094360  99.1615640
  67.6535340   6.9381600  99.4902810  68.9279360   7.7360430  99.6668090
  58.0913470   7.6494070 101.4550290  58.3941510   6.7591810 101.2760510
  58.8357060   8.2064290 101.2272540  64.3417120   9.9952370  98.7819630
  63.7228560  10.4509870  98.2114070  65.1968900  10.1503830  98.3809330
  63.5355370   5.9791360 100.3886670  63.4663650   5.0381300 100.2275800
  64.2975230   6.0692770 100.9609240  65.2080470   4.8791610  96.1751540
  64.5897740   5.3441060  95.6114260  65.7203720   5.5719090  96.5921050
  60.0712230   4.4067480 102.8535140  59.7381610   5.0336400 103.4956210
  60.2478910   4.9329360 102.0736810  59.2831330   6.3748280 104.6684320
  59.9005330   7.0499360 104.3868770  58.4224450   6.7836260 104.5771820
  54.5763670   5.5648140  93.5491170  54.1991650   6.0535240  92.8176070
  54.8336740   6.2373420  94.1797700  70.2008920   7.8387690 102.5838960
  69.5172440   8.5086800 102.5755630  70.7403210   8.0368340 101.8183820
  67.7367660   9.6831820 101.2984140  67.7494820   9.2794110 100.4306400
  67.1842880  10.4579110 101.1945570  69.0313080   6.4048040  96.3874310
  68.9209410   5.4622370  96.5123730  69.0281330   6.7663680  97.2737070
  67.1353100   4.5861660 102.6266750  67.5521890   4.3721770 101.7920210
  67.8592920   4.8434450 103.1975370  64.5733360   2.0313360  95.7436800
  63.6462640   1.9650740  95.9725270  64.7258180   2.9693490  95.6292040
  71.0815200   2.9848880 102.7182990  70.2533830   3.0541970 102.2433120
  71.6765680   3.5703190 102.2498820  68.6030650   3.5933660  96.2472050
  67.9843070   3.2553210  95.5998350  68.5855100   2.9493420  96.9551240
  60.1790000   2.5578100  98.5256530  59.7747000   1.8455350  98.0302430
  60.2653120   2.2131340  99.4144570  60.6471700   6.2445660 100.6895740
  60.3499990   5.6391130 100.0103520  61.5971520   6.2822970 100.5785100
  68.7357310   9.8177530 104.3518840  68.2587870  10.6249720 104.1591450
  68.0519100   9.1655860 104.5045050  66.7795350   2.8320470  93.2544800
  67.2188630   1.9942900  93.1082620  67.4923770   3.4649870  93.3408940
  64.8890730   7.7716540  97.2226040  65.3286640   8.5140870  96.8081430
  64.8277620   8.0143110  98.1465000  54.5180000   4.6238220 101.8331820
  54.5960420   4.7586990 100.8887540  55.1321680   3.9154110 102.0259940
  55.7627630   6.3238410  98.2438000  55.3555710   6.4653000  97.3891600
  56.6540640   6.0398570  98.0409210  67.5560910  10.7585660  94.5789050
  67.3962050  10.4688600  95.4770880  67.3907620   9.9825790  94.0434280
  60.0349290  10.5384190  96.3560670  59.8591770   9.6219730  96.1428470
  59.1805030  10.8971480  96.5958470  67.2587040   8.2673220  93.1387050
  66.5652200   8.2650510  92.4789330  68.0009900   7.8432540  92.7081220
  66.8236970   9.8935930  97.2135540  67.2793920   9.1125310  97.5274160
  67.1629490  10.6042750  97.7576720  58.6156800   5.1349990  94.9281770
  57.8419060   4.5947610  94.7680490  59.3451430   4.6156600  94.5899530
  69.3744780   4.1315350 100.7208160  70.0943900   4.6270640 100.3304270
  69.1726600   3.4533240 100.0762030  58.6594200   4.8030370  98.5660580
  59.1772870   3.9998630  98.5117470  58.2078220   4.7409510  99.4077410
  63.5463700   6.0696650  93.8387880  63.8879400   6.8138880  93.3431200
  62.7176410   6.3827770  94.2012710  70.8504630   8.0627060  95.3561700
  70.2080790   7.4082680  95.6305420  70.4635290   8.4682150  94.5802370
  66.4291110   5.3912490  99.2033390  66.7814930   4.7940620  98.5434760
  65.5453440   5.0656720  99.3741640  62.5154390   6.1510180  96.6103800
  63.2025520   6.6979390  96.9911390  61.7286810   6.6950910  96.6453410
  54.6546790   1.7683000  92.1020880  55.5241640   2.0507800  92.3856800
  54.1637110   2.5818870  91.9869690  61.8181600   3.1556210  96.2229160
  62.2744380   3.9661460  96.4489350  61.4669810   2.8379350  97.0547650
  64.1214210   8.6662550 103.4521460  64.7656430   8.8721930 104.1294880
  64.4843650   7.9050950 102.9992310  65.3946290   6.6694900 102.1698910
  66.0368520   5.9688060 102.2831080  65.9195640   7.4493340 101.9895800
  69.2402010   6.9543520  91.8938050  69.0139590   6.2373960  92.4862690
  68.8498210   6.7055960  91.0559800  55.0218040  10.9810380  92.6682510
  55.3815680  11.5799720  92.0139780  54.8810380  11.5270270  93.4417540
  68.8218260   4.8715460  93.5552210  68.5339960   5.3328150  94.3430090
  69.6170430   4.4113230  93.8236430  61.0386660   8.3641580  93.4856180
  61.0296760   9.0971270  92.8700690  60.1185020   8.1173160  93.5783140
  56.6393300   3.5856470  94.2302940  56.0321250   4.3255370  94.2398240
  57.1142650   3.6755830  93.4041140  64.0246260   8.4269820  92.1481370
  64.1258240   8.2233810  91.2183350  63.1248000   8.1728100  92.3529150
  62.6664370  10.9456140  96.8429040  62.9205870  10.9077530  95.9208410
  61.7176850  10.8189470  96.8357290  58.6498590   3.5467620  91.9791510
  59.4161860   3.4348980  92.5416940  58.7273280   2.8505590  91.3268280
  70.6742530   9.0356870 100.0941810  70.7989950   9.8588040 100.5665620
  71.5408090   8.8247600  99.7465960  58.1460060  11.1288080  99.7658940
  58.8822540  10.5803540 100.0367510  58.5300980  11.9944090  99.6264930
  55.0305540   7.1961650  95.6400450  54.1045320   7.4382790  95.6305860
  55.4961970   8.0235910  95.5185200  61.2562370  10.3018390  91.5884510
  62.0490980  10.5907220  91.1366300  60.7366720   9.8710560  90.9096990
  70.3092540   9.5288520  93.0121250  70.0234050   9.1153660  92.1975430
  70.1112090  10.4576230  92.8921770  61.7739770   5.5221800  91.4526860
  61.6690410   4.9074150  92.1788240  61.6063990   4.9987690  90.6689870
  65.0142500   4.5841830  92.0568850  64.4652600   5.0311130  92.7011590
  65.6361760   4.0791080  92.5806520  60.6817620   3.5432750  93.9534150
  61.1034040   3.3772620  94.7965540  60.8068460   2.7332980  93.4589290
  63.1945260   2.5670360  91.2011250  63.7150920   1.8519380  90.8352400
  63.8413660   3.2056230  91.5011760  62.5038330   3.9419240 104.4942250
  62.9226440   4.7851970 104.3218490  61.5846960   4.0791280 104.2649030
  63.7593290  10.6481970  93.4912990  64.6544080  10.9866940  93.5131750
  63.7910920   9.9261380  92.8637270  57.3989450   6.0209020  91.7199990
  57.8364320   6.5638690  92.3757570  57.8837180   5.1955970  91.7296330
  54.6135250   8.8098050  99.1720250  54.9438260   7.9419110  98.9398890
  55.0426250   9.0156570 100.0025210  59.2097170   7.1407060  96.8322220
  58.9092710   7.0172030  97.7326130  59.1034660   6.2815650  96.4237950
  55.1025460   9.6768640 101.9101880  54.6656450   9.8569440 102.7426030
  55.6703140  10.4343260 101.7683600  71.9789090   6.9203460  91.5348900
  71.1482050   6.9880110  92.0056130  72.1560920   7.8107580  91.2315760
  71.4345550   3.6650940  94.0383100  72.1964460   4.2347590  94.1442790
  71.4499920   3.0978140  94.8091410  54.9349890   2.1888870  98.2690760
  54.2798730   1.9200510  97.6250460  55.7727840   2.0793350  97.8192740
  72.4405520   4.5201040  98.8825030  72.8114350   3.7368360  98.4761000
  73.0807450   5.2090140  98.7042330  69.4239280   5.9037620 104.2955350
  68.6099120   6.3334780 104.5581140  69.8313480   6.5156030 103.6824400
  71.4864720   3.9585310  91.1955620  71.7613560   4.8664190  91.0674840
  71.2975460   3.8947840  92.1317610  55.9725820   2.5741440 102.8094100
  56.3398860   2.4868840 103.6890120  55.4036640   1.8107990 102.7100960
  69.4815330  10.6556220  97.8223620  70.0774400  10.3340790  97.1458040
  69.7393480  10.1828040  98.6136890  61.0883930   8.6433720 103.5723970
  60.8475290   8.9108280 102.6854490  62.0286570   8.8139450 103.6274830
  72.3488090  10.6628100 104.3734610  71.8546370  11.0596970 103.6561740
  71.7401380  10.0377310 104.7671890  70.0327540  11.3051520 101.6521350
  69.5730510  12.0567330 101.2779370  69.4040000  10.5857990 101.5936150
  56.8578160   7.3994760 104.0420070  56.1312220   6.7800050 103.9746020
  56.9187310   7.7935370 103.1718150  60.4623260   9.6139760 100.8269480
  60.9788280   9.0027120 100.3017740  61.1120640  10.1168540 101.3180490
  63.2018760  10.5048250 101.6538460  63.4896570  10.2502550 100.7771470
  63.7141980   9.9525610 102.2444030  55.1408160  10.7169150  97.2516830
  54.9730200  10.0839830  97.9498720  54.2742670  10.9228550  96.9011020
  56.7470860   9.4102380  94.6966970  56.2218480   9.7910410  93.9928930
  56.6715440  10.0353150  95.4176680  71.5036180  10.9689920  96.0180910
  71.6788370  10.2827660  95.3741830  70.8057750  11.4936970  95.6257580
  59.3463830  11.3584760  93.5716220  60.0782650  11.0744040  93.0240110
  59.6057500  11.1198040  94.4615600  58.5078620   7.4749490  93.5762550
  57.8787500   7.9434590  94.1248380  58.6226450   6.6298710  94.0108740
  64.0946380   3.3034170  81.6073020  63.3188480   2.8234610  81.8971590
  64.7459310   2.6239820  81.4329180  58.1112210   3.6153980  82.4848780
  57.2797090   3.3602690  82.8845290  58.7193190   3.6864750  83.2206700
  68.1153810   7.7094360  80.3872150  67.6535340   6.9381600  80.7159320
  68.9279360   7.7360430  80.8924600  58.0913470   7.6494070  82.6806800
  58.3941510   6.7591810  82.5017020  58.8357060   8.2064290  82.4529050
  64.3417120   9.9952370  80.0076140  63.7228560  10.4509870  79.4370580
  65.1968900  10.1503830  79.6065840  63.5355370   5.9791360  81.6143180
  63.4663650   5.0381300  81.4532310  64.2975230   6.0692770  82.1865750
  65.2080470   4.8791610  77.4008050  64.5897740   5.3441060  76.8370770
  65.7203720   5.5719090  77.8177560  60.0712230   4.4067480  84.0791650
  59.7381610   5.0336400  84.7212720  60.2478910   4.9329360  83.2993320
  59.2831330   6.3748280  85.8940830  59.9005330   7.0499360  85.6125280
  58.4224450   6.7836260  85.8028330  54.5763670   5.5648140  74.7747680
  54.1991650   6.0535240  74.0432580  54.8336740   6.2373420  75.4054210
  70.2008920   7.8387690  83.8095470  69.5172440   8.5086800  83.8012140
  70.7403210   8.0368340  83.0440330  67.7367660   9.6831820  82.5240650
  67.7494820   9.2794110  81.6562910  67.1842880  10.4579110  82.4202080
  69.0313080   6.4048040  77.6130820  68.9209410   5.4622370  77.7380240
  69.0281330   6.7663680  78.4993580  67.1353100   4.5861660  83.8523260
  67.5521890   4.3721770  83.0176720  67.8592920   4.8434450  84.4231880
  64.5733360   2.0313360  76.9693310  63.6462640   1.9650740  77.1981780
  64.7258180   2.9693490  76.8548550  71.0815200   2.9848880  83.9439500
  70.2533830   3.0541970  83.4689630  71.6765680   3.5703190  83.4755330
  68.6030650   3.5933660  77.4728560  67.9843070   3.2553210  76.8254860
  68.5855100   2.9493420  78.1807750  60.1790000   2.5578100  79.7513040
  59.7747000   1.8455350  79.2558940  60.2653120   2.2131340  80.6401080
  60.6471700   6.2445660  81.9152250  60.3499990   5.6391130  81.2360030
  61.5971520   6.2822970  81.8041610  68.7357310   9.8177530  85.5775350
  68.2587870  10.6249720  85.3847960  68.0519100   9.1655860  85.7301560
  59.7390130   5.9827350  88.5660050  58.8418660   6.2067320  88.8133450
  59.7643000   6.1062290  87.6171450  66.7795350   2.8320470  74.4801310
  67.2188630   1.9942900  74.3339130  67.4923770   3.4649870  74.5665450
  58.5661350   2.8540670  87.1417420  58.4269120   3.7263470  87.5104820
  57.6842710   2.5113480  86.9965360  64.8890730   7.7716540  78.4482550
  65.3286640   8.5140870  78.0337940  64.8277620   8.0143110  79.3721510
  60.3641700   8.7962370  89.3502570  60.3357130   9.2005320  88.4831000
  60.2006670   7.8672730  89.1874170  72.3156520   9.5789470  90.6466740
  72.7916240  10.0572360  91.3255820  72.9363680   9.5106960  89.9212240
  54.5180000   4.6238220  83.0588330  54.5960420   4.7586990  82.1144050
  55.1321680   3.9154110  83.2516450  55.7627630   6.3238410  79.4694510
  55.3555710   6.4653000  78.6148110  56.6540640   6.0398570  79.2665720
  71.7189770   6.7702320  87.8066750  71.8452830   6.5314200  86.8883930
  71.7611150   5.9386860  88.2788830  65.5806510  10.4730320  86.3761560
  66.0951180  10.3838330  87.1783990  64.7375590  10.8190020  86.6689470
  67.5560910  10.7585660  75.8045560  67.3962050  10.4688600  76.7027390
  67.3907620   9.9825790  75.2690790  60.0349290  10.5384190  77.5817180
  59.8591770   9.6219730  77.3684980  59.1805030  10.8971480  77.8214980
  67.2587040   8.2673220  74.3643560  66.5652200   8.2650510  73.7045840
  68.0009900   7.8432540  73.9337730  66.8236970   9.8935930  78.4392050
  67.2793920   9.1125310  78.7530670  67.1629490  10.6042750  78.9833230
  54.5739520   5.6652390  85.5982790  54.7370560   5.1957750  84.7802160
  55.0391970   5.1575950  86.2631630  56.1478500   5.0403820  87.7578600
  55.7633290   4.3997490  88.3561560  56.4590690   5.7439940  88.3273330
  58.6156800   5.1349990  76.1538280  57.8419060   4.5947610  75.9937000
  59.3451430   4.6156600  75.8156040  69.3744780   4.1315350  81.9464670
  70.0943900   4.6270640  81.5560780  69.1726600   3.4533240  81.3018540
  64.7563580   4.2024410  87.8333670  64.6900890   3.2820080  87.5791260
  64.1268720   4.2999850  88.5478310  58.6594200   4.8030370  79.7917090
  59.1772870   3.9998630  79.7373980  58.2078220   4.7409510  80.6333920
  63.5463700   6.0696650  75.0644390  63.8879400   6.8138880  74.5687710
  62.7176410   6.3827770  75.4269220  59.3451860   2.2275980  89.5882340
  59.0452000   2.3733160  88.6910160  60.1163100   1.6681270  89.4955730
  64.6880310   7.0244980  87.5837470  64.7024850   6.0925940  87.3656380
  63.9805410   7.1104740  88.2227240  70.8991520   3.6652320  86.9306050
  70.1739710   4.2581100  86.7335440  71.4266980   3.6575860  86.1319420
  70.8504630   8.0627060  76.5818210  70.2080790   7.4082680  76.8561930
  70.4635290   8.4682150  75.8058880  66.4291110   5.3912490  80.4289900
  66.7814930   4.7940620  79.7691270  65.5453440   5.0656720  80.5998150
  62.5154390   6.1510180  77.8360310  63.2025520   6.6979390  78.2167900
  61.7286810   6.6950910  77.8709920  54.6546790   1.7683000  73.3277390
  55.5241640   2.0507800  73.6113310  54.1637110   2.5818870  73.2126200
  61.8181600   3.1556210  77.4485670  62.2744380   3.9661460  77.6745860
  61.4669810   2.8379350  78.2804160  64.1214210   8.6662550  84.6777970
  64.7656430   8.8721930  85.3551390  64.4843650   7.9050950  84.2248820
  65.3946290   6.6694900  83.3955420  66.0368520   5.9688060  83.5087590
  65.9195640   7.4493340  83.2152310  69.2402010   6.9543520  73.1194560
  69.0139590   6.2373960  73.7119200  68.8498210   6.7055960  72.2816310
  67.1683910   7.4689800  86.5991480  67.5040150   8.0556490  87.2769400
  66.2484250   7.3382510  86.8289270  55.0218040  10.9810380  73.8939020
  55.3815680  11.5799720  73.2396290  54.8810380  11.5270270  74.6674050
  68.8218260   4.8715460  74.7808720  68.5339960   5.3328150  75.5686600
  69.6170430   4.4113230  75.0492940  55.0059900   9.2465240  88.3681420
  55.1151020   8.3059980  88.2276810  54.3540460   9.5119990  87.7195150
  62.9972490   7.5181130  89.7679540  62.6769360   6.7990370  90.3125230
  62.3230850   8.1936200  89.8415600  61.0386660   8.3641580  74.7112690
  61.0296760   9.0971270  74.0957200  60.1185020   8.1173160  74.8039650
  56.6393300   3.5856470  75.4559450  56.0321250   4.3255370  75.4654750
  57.1142650   3.6755830  74.6297650  64.0246260   8.4269820  73.3737880
  64.1258240   8.2233810  72.4439860  63.1248000   8.1728100  73.5785660
  62.6664370  10.9456140  78.0685550  62.9205870  10.9077530  77.1464920
  61.7176850  10.8189470  78.0613800  58.6498590   3.5467620  73.2048020
  59.4161860   3.4348980  73.7673450  58.7273280   2.8505590  72.5524790
  70.6742530   9.0356870  81.3198320  70.7989950   9.8588040  81.7922130
  71.5408090   8.8247600  80.9722470  58.1460060  11.1288080  80.9915450
  58.8822540  10.5803540  81.2624020  58.5300980  11.9944090  80.8521440
  55.0305540   7.1961650  76.8656960  54.1045320   7.4382790  76.8562370
  55.4961970   8.0235910  76.7441710  57.1518340  10.3134150  90.1801030
  57.9531070  10.6346200  90.5936430  56.6370160   9.9529730  90.9020940
  61.2562370  10.3018390  72.8141020  62.0490980  10.5907220  72.3622810
  60.7366720   9.8710560  72.1353500  65.9882970   6.4214020  90.1276440
  65.3821130   6.4445620  89.3872190  65.6837080   5.6897060  90.6643690
  67.4183340  10.1494310  88.7385850  68.3705090  10.0652330  88.6886090
  67.2711560  10.8136020  89.4119640  70.3092540   9.5288520  74.2377760
  70.0234050   9.1153660  73.4231940  70.1112090  10.4576230  74.1178280
  54.8716150   2.8007610  89.1237080  55.3755170   2.2214890  89.6953310
  54.1323570   3.0847840  89.6613450  61.7739770   5.5221800  72.6783370
  61.6690410   4.9074150  73.4044750  61.6063990   4.9987690  71.8946380
  61.9254090   4.2078600  88.6572600  61.1599760   4.7763600  88.5727270
  62.1070050   3.9154810  87.7640830  65.0142500   4.5841830  73.2825360
  64.4652600   5.0311130  73.9268100  65.6361760   4.0791080  73.8063030
  69.0677440   5.9383930  89.2147620  69.8086910   6.2759690  88.7115080
  68.3050120   6.1075990  88.6617390  60.6817620   3.5432750  75.1790660
  61.1034040   3.3772620  76.0222050  60.8068460   2.7332980  74.6845800
  63.1945260   2.5670360  72.4267760  63.7150920   1.8519380  72.0608910
  63.8413660   3.2056230  72.7268270  67.7423100   3.9898760  87.7502830
  68.1564120   4.1443840  88.5993250  66.8074100   4.1153980  87.9128610
  62.5038330   3.9419240  85.7198760  62.9226440   4.7851970  85.5475000
  61.5846960   4.0791280  85.4905540  67.1790130   2.2272610  85.6799110
  66.6525350   2.7515230  85.0764250  67.5221470   2.8600000  86.3108840
  60.3545750  10.2472250  86.8356490  59.8166840  10.9718310  86.5165190
  60.6079710   9.7702590  86.0453830  63.2107960  11.4823460  87.0943140
  63.1366660  12.3858600  87.4015510  62.3086800  11.1635360  87.0665210
  63.7593290  10.6481970  74.7169500  64.6544080  10.9866940  74.7388260
  63.7910920   9.9261380  74.0893780  57.3989450   6.0209020  72.9456500
  57.8364320   6.5638690  73.6014080  57.8837180   5.1955970  72.9552840
  54.6135250   8.8098050  80.3976760  54.9438260   7.9419110  80.1655400
  55.0426250   9.0156570  81.2281720  59.2097170   7.1407060  78.0578730
  58.9092710   7.0172030  78.9582640  59.1034660   6.2815650  77.6494460
  55.1025460   9.6768640  83.1358390  54.6656450   9.8569440  83.9682540
  55.6703140  10.4343260  82.9940110  70.7387640   9.1785640  87.4235700
  70.1389630   9.2378200  86.6799620  70.8681540   8.2390620  87.5532550
  71.9789090   6.9203460  72.7605410  71.1482050   6.9880110  73.2312640
  72.1560920   7.8107580  72.4572270  71.4345550   3.6650940  75.2639610
  72.1964460   4.2347590  75.3699300  71.4499920   3.0978140  76.0347920
  54.9349890   2.1888870  79.4947270  54.2798730   1.9200510  78.8506970
  55.7727840   2.0793350  79.0449250  72.4405520   4.5201040  80.1081540
  72.8114350   3.7368360  79.7017510  73.0807450   5.2090140  79.9298840
  69.4239280   5.9037620  85.5211860  68.6099120   6.3334780  85.7837650
  69.8313480   6.5156030  84.9080910  71.4864720   3.9585310  72.4212130
  71.7613560   4.8664190  72.2931350  71.2975460   3.8947840  73.3574120
  55.9725820   2.5741440  84.0350610  56.3398860   2.4868840  84.9146630
  55.4036640   1.8107990  83.9357470  69.4815330  10.6556220  79.0480130
  70.0774400  10.3340790  78.3714550  69.7393480  10.1828040  79.8393400
  57.3877900   7.0874130  89.1970760  57.3447530   6.7167040  90.0785220
  57.5188910   8.0251700  89.3372580  61.0883930   8.6433720  84.7980480
  60.8475290   8.9108280  83.9111000  62.0286570   8.8139450  84.8531340
  72.3488090  10.6628100  85.5991120  71.8546370  11.0596970  84.8818250
  71.7401380  10.0377310  85.9928400  57.2265930  10.0336380  86.3168540
  56.6326250   9.9021080  87.0558580  57.2189770   9.1974520  85.8510640
  70.0327540  11.3051520  82.8777860  69.5730510  12.0567330  82.5035880
  69.4040000  10.5857990  82.8192660  56.8578160   7.3994760  85.2676580
  56.1312220   6.7800050  85.2002530  56.9187310   7.7935370  84.3974660
  60.4623260   9.6139760  82.0525990  60.9788280   9.0027120  81.5274250
  61.1120640  10.1168540  82.5437000  63.2018760  10.5048250  82.8794970
  63.4896570  10.2502550  82.0027980  63.7141980   9.9525610  83.4700540
  55.1408160  10.7169150  78.4773340  54.9730200  10.0839830  79.1755230
  54.2742670  10.9228550  78.1267530  56.7470860   9.4102380  75.9223480
  56.2218480   9.7910410  75.2185440  56.6715440  10.0353150  76.6433190
  63.2691120  11.4264350  90.2463170  64.1958430  11.1908620  90.2899130
  63.2541550  12.2536350  89.7649200  71.5036180  10.9689920  77.2437420
  71.6788370  10.2827660  76.5998340  70.8057750  11.4936970  76.8514090
  59.3463830  11.3584760  74.7972730  60.0782650  11.0744040  74.2496620
  59.6057500  11.1198040  75.6872110  58.5078620   7.4749490  74.8019060
  57.8787500   7.9434590  75.3504890  58.6226450   6.6298710  75.2365250
  69.8368680  10.6534210  90.0704210  70.6294000  10.1583440  89.8630170
  70.1301830  11.3324350  90.6779820  64.0946380   3.3034170  62.8329530
  63.3188480   2.8234610  63.1228100  64.7459310   2.6239820  62.6585690
  58.1112210   3.6153980  63.7105290  57.2797090   3.3602690  64.1101800
  58.7193190   3.6864750  64.4463210  68.1153810   7.7094360  61.6128660
  67.6535340   6.9381600  61.9415830  68.9279360   7.7360430  62.1181110
  58.0913470   7.6494070  63.9063310  58.3941510   6.7591810  63.7273530
  58.8357060   8.2064290  63.6785560  64.3417120   9.9952370  61.2332650
  63.7228560  10.4509870  60.6627090  65.1968900  10.1503830  60.8322350
  63.5355370   5.9791360  62.8399690  63.4663650   5.0381300  62.6788820
  64.2975230   6.0692770  63.4122260  65.2080470   4.8791610  58.6264560
  64.5897740   5.3441060  58.0627280  65.7203720   5.5719090  59.0434070
  60.0712230   4.4067480  65.3048160  59.7381610   5.0336400  65.9469230
  60.2478910   4.9329360  64.5249830  59.2831330   6.3748280  67.1197340
  59.9005330   7.0499360  66.8381790  58.4224450   6.7836260  67.0284840
  54.5763670   5.5648140  56.0004190  54.1991650   6.0535240  55.2689090
  54.8336740   6.2373420  56.6310720  70.2008920   7.8387690  65.0351980
  69.5172440   8.5086800  65.0268650  70.7403210   8.0368340  64.2696840
  67.7367660   9.6831820  63.7497160  67.7494820   9.2794110  62.8819420
  67.1842880  10.4579110  63.6458590  69.0313080   6.4048040  58.8387330
  68.9209410   5.4622370  58.9636750  69.0281330   6.7663680  59.7250090
  67.1353100   4.5861660  65.0779770  67.5521890   4.3721770  64.2433230
  67.8592920   4.8434450  65.6488390  64.5733360   2.0313360  58.1949820
  63.6462640   1.9650740  58.4238290  64.7258180   2.9693490  58.0805060
  71.0815200   2.9848880  65.1696010  70.2533830   3.0541970  64.6946140
  71.6765680   3.5703190  64.7011840  68.6030650   3.5933660  58.6985070
  67.9843070   3.2553210  58.0511370  68.5855100   2.9493420  59.4064260
  60.1790000   2.5578100  60.9769550  59.7747000   1.8455350  60.4815450
  60.2653120   2.2131340  61.8657590  60.6471700   6.2445660  63.1408760
  60.3499990   5.6391130  62.4616540  61.5971520   6.2822970  63.0298120
  68.7357310   9.8177530  66.8031860  68.2587870  10.6249720  66.6104470
  68.0519100   9.1655860  66.9558070  59.7390130   5.9827350  69.7916560
  58.8418660   6.2067320  70.0389960  59.7643000   6.1062290  68.8427960
  66.7795350   2.8320470  55.7057820  67.2188630   1.9942900  55.5595640
  67.4923770   3.4649870  55.7921960  58.5661350   2.8540670  68.3673930
  58.4269120   3.7263470  68.7361330  57.6842710   2.5113480  68.2221870
  64.8890730   7.7716540  59.6739060  65.3286640   8.5140870  59.2594450
  64.8277620   8.0143110  60.5978020  60.3641700   8.7962370  70.5759080
  60.3357130   9.2005320  69.7087510  60.2006670   7.8672730  70.4130680
  72.3156520   9.5789470  71.8723250  72.7916240  10.0572360  72.5512330
  72.9363680   9.5106960  71.1468750  54.5180000   4.6238220  64.2844840
  54.5960420   4.7586990  63.3400560  55.1321680   3.9154110  64.4772960
  55.7627630   6.3238410  60.6951020  55.3555710   6.4653000  59.8404620
  56.6540640   6.0398570  60.4922230  71.7189770   6.7702320  69.0323260
  71.8452830   6.5314200  68.1140440  71.7611150   5.9386860  69.5045340
  65.5806510  10.4730320  67.6018070  66.0951180  10.3838330  68.4040500
  64.7375590  10.8190020  67.8945980  67.5560910  10.7585660  57.0302070
  67.3962050  10.4688600  57.9283900  67.3907620   9.9825790  56.4947300
  60.0349290  10.5384190  58.8073690  59.8591770   9.6219730  58.5941490
  59.1805030  10.8971480  59.0471490  67.2587040   8.2673220  55.5900070
  66.5652200   8.2650510  54.9302350  68.0009900   7.8432540  55.1594240
  66.8236970   9.8935930  59.6648560  67.2793920   9.1125310  59.9787180
  67.1629490  10.6042750  60.2089740  54.5739520   5.6652390  66.8239300
  54.7370560   5.1957750  66.0058670  55.0391970   5.1575950  67.4888140
  56.1478500   5.0403820  68.9835110  55.7633290   4.3997490  69.5818070
  56.4590690   5.7439940  69.5529840  58.6156800   5.1349990  57.3794790
  57.8419060   4.5947610  57.2193510  59.3451430   4.6156600  57.0412550
  69.3744780   4.1315350  63.1721180  70.0943900   4.6270640  62.7817290
  69.1726600   3.4533240  62.5275050  64.7563580   4.2024410  69.0590180
  64.6900890   3.2820080  68.8047770  64.1268720   4.2999850  69.7734820
  58.6594200   4.8030370  61.0173600  59.1772870   3.9998630  60.9630490
  58.2078220   4.7409510  61.8590430  63.5463700   6.0696650  56.2900900
  63.8879400   6.8138880  55.7944220  62.7176410   6.3827770  56.6525730
  59.3451860   2.2275980  70.8138850  59.0452000   2.3733160  69.9166670
  60.1163100   1.6681270  70.7212240  64.6880310   7.0244980  68.8093980
  64.7024850   6.0925940  68.5912890  63.9805410   7.1104740  69.4483750
  70.8991520   3.6652320  68.1562560  70.1739710   4.2581100  67.9591950
  71.4266980   3.6575860  67.3575930  70.8504630   8.0627060  57.8074720
  70.2080790   7.4082680  58.0818440  70.4635290   8.4682150  57.0315390
  66.4291110   5.3912490  61.6546410  66.7814930   4.7940620  60.9947780
  65.5453440   5.0656720  61.8254660  62.5154390   6.1510180  59.0616820
  63.2025520   6.6979390  59.4424410  61.7286810   6.6950910  59.0966430
  54.6546790   1.7683000  54.5533900  55.5241640   2.0507800  54.8369820
  54.1637110   2.5818870  54.4382710  61.8181600   3.1556210  58.6742180
  62.2744380   3.9661460  58.9002370  61.4669810   2.8379350  59.5060670
  64.1214210   8.6662550  65.9034480  64.7656430   8.8721930  66.5807900
  64.4843650   7.9050950  65.4505330  65.3946290   6.6694900  64.6211930
  66.0368520   5.9688060  64.7344100  65.9195640   7.4493340  64.4408820
  69.2402010   6.9543520  54.3451070  69.0139590   6.2373960  54.9375710
  68.8498210   6.7055960  53.5072820  67.1683910   7.4689800  67.8247990
  67.5040150   8.0556490  68.5025910  66.2484250   7.3382510  68.0545780
  55.0218040  10.9810380  55.1195530  55.3815680  11.5799720  54.4652800
  54.8810380  11.5270270  55.8930560  68.8218260   4.8715460  56.0065230
  68.5339960   5.3328150  56.7943110  69.6170430   4.4113230  56.2749450
  55.0059900   9.2465240  69.5937930  55.1151020   8.3059980  69.4533320
  54.3540460   9.5119990  68.9451660  62.9972490   7.5181130  70.9936050
  62.6769360   6.7990370  71.5381740  62.3230850   8.1936200  71.0672110
  61.0386660   8.3641580  55.9369200  61.0296760   9.0971270  55.3213710
  60.1185020   8.1173160  56.0296160  56.6393300   3.5856470  56.6815960
  56.0321250   4.3255370  56.6911260  57.1142650   3.6755830  55.8554160
  64.0246260   8.4269820  54.5994390  64.1258240   8.2233810  53.6696370
  63.1248000   8.1728100  54.8042170  62.6664370  10.9456140  59.2942060
  62.9205870  10.9077530  58.3721430  61.7176850  10.8189470  59.2870310
  58.6498590   3.5467620  54.4304530  59.4161860   3.4348980  54.9929960
  58.7273280   2.8505590  53.7781300  70.6742530   9.0356870  62.5454830
  70.7989950   9.8588040  63.0178640  71.5408090   8.8247600  62.1978980
  58.1460060  11.1288080  62.2171960  58.8822540  10.5803540  62.4880530
  58.5300980  11.9944090  62.0777950  55.0305540   7.1961650  58.0913470
  54.1045320   7.4382790  58.0818880  55.4961970   8.0235910  57.9698220
  57.1518340  10.3134150  71.4057540  57.9531070  10.6346200  71.8192940
  56.6370160   9.9529730  72.1277450  61.2562370  10.3018390  54.0397530
  62.0490980  10.5907220  53.5879320  60.7366720   9.8710560  53.3610010
  65.9882970   6.4214020  71.3532950  65.3821130   6.4445620  70.6128700
  65.6837080   5.6897060  71.8900200  67.4183340  10.1494310  69.9642360
  68.3705090  10.0652330  69.9142600  67.2711560  10.8136020  70.6376150
  70.3092540   9.5288520  55.4634270  70.0234050   9.1153660  54.6488450
  70.1112090  10.4576230  55.3434790  54.8716150   2.8007610  70.3493590
  55.3755170   2.2214890  70.9209820  54.1323570   3.0847840  70.8869960
  61.7739770   5.5221800  53.9039880  61.6690410   4.9074150  54.6301260
  61.6063990   4.9987690  53.1202890  61.9254090   4.2078600  69.8829110
  61.1599760   4.7763600  69.7983780  62.1070050   3.9154810  68.9897340
  65.0142500   4.5841830  54.5081870  64.4652600   5.0311130  55.1524610
  65.6361760   4.0791080  55.0319540  69.0677440   5.9383930  70.4404130
  69.8086910   6.2759690  69.9371590  68.3050120   6.1075990  69.8873900
  60.6817620   3.5432750  56.4047170  61.1034040   3.3772620  57.2478560
  60.8068460   2.7332980  55.9102310  63.1945260   2.5670360  53.6524270
  63.7150920   1.8519380  53.2865420  63.8413660   3.2056230  53.9524780
  67.7423100   3.9898760  68.9759340  68.1564120   4.1443840  69.8249760
  66.8074100   4.1153980  69.1385120  62.5038330   3.9419240  66.9455270
  62.9226440   4.7851970  66.7731510  61.5846960   4.0791280  66.7162050
  67.1790130   2.2272610  66.9055620  66.6525350   2.7515230  66.3020760
  67.5221470   2.8600000  67.5365350  60.3545750  10.2472250  68.0613000
  59.8166840  10.9718310  67.7421700  60.6079710   9.7702590  67.2710340
  63.2107960  11.4823460  68.3199650  63.1366660  12.3858600  68.6272020
  62.3086800  11.1635360  68.2921720  63.7593290  10.6481970  55.9426010
  64.6544080  10.9866940  55.9644770  63.7910920   9.9261380  55.3150290
  57.3989450   6.0209020  54.1713010  57.8364320   6.5638690  54.8270590
  57.8837180   5.1955970  54.1809350  54.6135250   8.8098050  61.6233270
  54.9438260   7.9419110  61.3911910  55.0426250   9.0156570  62.4538230
  59.2097170   7.1407060  59.2835240  58.9092710   7.0172030  60.1839150
  59.1034660   6.2815650  58.8750970  55.1025460   9.6768640  64.3614900
  54.6656450   9.8569440  65.1939050  55.6703140  10.4343260  64.2196620
  70.7387640   9.1785640  68.6492210  70.1389630   9.2378200  67.9056130
  70.8681540   8.2390620  68.7789060  71.9789090   6.9203460  53.9861920
  71.1482050   6.9880110  54.4569150  72.1560920   7.8107580  53.6828780
  71.4345550   3.6650940  56.4896120  72.1964460   4.2347590  56.5955810
  71.4499920   3.0978140  57.2604430  54.9349890   2.1888870  60.7203780
  54.2798730   1.9200510  60.0763480  55.7727840   2.0793350  60.2705760
  72.4405520   4.5201040  61.3338050  72.8114350   3.7368360  60.9274020
  73.0807450   5.2090140  61.1555350  69.4239280   5.9037620  66.7468370
  68.6099120   6.3334780  67.0094160  69.8313480   6.5156030  66.1337420
  71.4864720   3.9585310  53.6468640  71.7613560   4.8664190  53.5187860
  71.2975460   3.8947840  54.5830630  55.9725820   2.5741440  65.2607120
  56.3398860   2.4868840  66.1403140  55.4036640   1.8107990  65.1613980
  69.4815330  10.6556220  60.2736640  70.0774400  10.3340790  59.5971060
  69.7393480  10.1828040  61.0649910  57.3877900   7.0874130  70.4227270
  57.3447530   6.7167040  71.3041730  57.5188910   8.0251700  70.5629090
  61.0883930   8.6433720  66.0236990  60.8475290   8.9108280  65.1367510
  62.0286570   8.8139450  66.0787850  72.3488090  10.6628100  66.8247630
  71.8546370  11.0596970  66.1074760  71.7401380  10.0377310  67.2184910
  57.2265930  10.0336380  67.5425050  56.6326250   9.9021080  68.2815090
  57.2189770   9.1974520  67.0767150  70.0327540  11.3051520  64.1034370
  69.5730510  12.0567330  63.7292390  69.4040000  10.5857990  64.0449170
  56.8578160   7.3994760  66.4933090  56.1312220   6.7800050  66.4259040
  56.9187310   7.7935370  65.6231170  60.4623260   9.6139760  63.2782500
  60.9788280   9.0027120  62.7530760  61.1120640  10.1168540  63.7693510
  63.2018760  10.5048250  64.1051480  63.4896570  10.2502550  63.2284490
  63.7141980   9.9525610  64.6957050  55.1408160  10.7169150  59.7029850
  54.9730200  10.0839830  60.4011740  54.2742670  10.9228550  59.3524040
  56.7470860   9.4102380  57.1479990  56.2218480   9.7910410  56.4441950
  56.6715440  10.0353150  57.8689700  63.2691120  11.4264350  71.4719680
  64.1958430  11.1908620  71.5155640  63.2541550  12.2536350  70.9905710
  71.5036180  10.9689920  58.4693930  71.6788370  10.2827660  57.8254850
  70.8057750  11.4936970  58.0770600  59.3463830  11.3584760  56.0229240
  60.0782650  11.0744040  55.4753130  59.6057500  11.1198040  56.9128620
  58.5078620   7.4749490  56.0275570  57.8787500   7.9434590  56.5761400
  58.6226450   6.6298710  56.4621760  69.8368680  10.6534210  71.2960720
  70.6294000  10.1583440  71.0886680  70.1301830  11.3324350  71.9036330
  64.0946380   3.3034170  44.0586040  63.3188480   2.8234610  44.3484610
  64.7459310   2.6239820  43.8842200  58.1112210   3.6153980  44.9361800
  57.2797090   3.3602690  45.3358310  58.7193190   3.6864750  45.6719720
  68.1153810   7.7094360  42.8385170  67.6535340   6.9381600  43.1672340
  68.9279360   7.7360430  43.3437620  58.0913470   7.6494070  45.1319820
  58.3941510   6.7591810  44.9530040  58.8357060   8.2064290  44.9042070
  64.3417120   9.9952370  42.4589160  63.7228560  10.4509870  41.8883600
  65.1968900  10.1503830  42.0578860  63.5355370   5.9791360  44.0656200
  63.4663650   5.0381300  43.9045330  64.2975230   6.0692770  44.6378770
  65.2080470   4.8791610  39.8521070  64.5897740   5.3441060  39.2883790
  65.7203720   5.5719090  40.2690580  60.0712230   4.4067480  46.5304670
  59.7381610   5.0336400  47.1725740  60.2478910   4.9329360  45.7506340
  59.2831330   6.3748280  48.3453850  59.9005330   7.0499360  48.0638300
  58.4224450   6.7836260  48.2541350  54.5763670   5.5648140  37.2260700
  54.1991650   6.0535240  36.4945600  54.8336740   6.2373420  37.8567230
  70.2008920   7.8387690  46.2608490  69.5172440   8.5086800  46.2525160
  70.7403210   8.0368340  45.4953350  67.7367660   9.6831820  44.9753670
  67.7494820   9.2794110  44.1075930  67.1842880  10.4579110  44.8715100
  69.0313080   6.4048040  40.0643840  68.9209410   5.4622370  40.1893260
  69.0281330   6.7663680  40.9506600  67.1353100   4.5861660  46.3036280
  67.5521890   4.3721770  45.4689740  67.8592920   4.8434450  46.8744900
  64.5733360   2.0313360  39.4206330  63.6462640   1.9650740  39.6494800
  64.7258180   2.9693490  39.3061570  71.0815200   2.9848880  46.3952520
  70.2533830   3.0541970  45.9202650  71.6765680   3.5703190  45.9268350
  68.6030650   3.5933660  39.9241580  67.9843070   3.2553210  39.2767880
  68.5855100   2.9493420  40.6320770  60.1790000   2.5578100  42.2026060
  59.7747000   1.8455350  41.7071960  60.2653120   2.2131340  43.0914100
  60.6471700   6.2445660  44.3665270  60.3499990   5.6391130  43.6873050
  61.5971520   6.2822970  44.2554630  68.7357310   9.8177530  48.0288370
  68.2587870  10.6249720  47.8360980  68.0519100   9.1655860  48.1814580
  59.7390130   5.9827350  51.0173070  58.8418660   6.2067320  51.2646470
  59.7643000   6.1062290  50.0684470  66.7795350   2.8320470  36.9314330
  67.2188630   1.9942900  36.7852150  67.4923770   3.4649870  37.0178470
  58.5661350   2.8540670  49.5930440  58.4269120   3.7263470  49.9617840
  57.6842710   2.5113480  49.4478380  64.8890730   7.7716540  40.8995570
  65.3286640   8.5140870  40.4850960  64.8277620   8.0143110  41.8234530
  60.3641700   8.7962370  51.8015590  60.3357130   9.2005320  50.9344020
  60.2006670   7.8672730  51.6387190  72.3156520   9.5789470  53.0979760
  72.7916240  10.0572360  53.7768840  72.9363680   9.5106960  52.3725260
  54.5180000   4.6238220  45.5101350  54.5960420   4.7586990  44.5657070
  55.1321680   3.9154110  45.7029470  55.7627630   6.3238410  41.9207530
  55.3555710   6.4653000  41.0661130  56.6540640   6.0398570  41.7178740
  71.7189770   6.7702320  50.2579770  71.8452830   6.5314200  49.3396950
  71.7611150   5.9386860  50.7301850  65.5806510  10.4730320  48.8274580
  66.0951180  10.3838330  49.6297010  64.7375590  10.8190020  49.1202490
  67.5560910  10.7585660  38.2558580  67.3962050  10.4688600  39.1540410
  67.3907620   9.9825790  37.7203810  60.0349290  10.5384190  40.0330200
  59.8591770   9.6219730  39.8198000  59.1805030  10.8971480  40.2728000
  67.2587040   8.2673220  36.8156580  66.5652200   8.2650510  36.1558860
  68.0009900   7.8432540  36.3850750  66.8236970   9.8935930  40.8905070
  67.2793920   9.1125310  41.2043690  67.1629490  10.6042750  41.4346250
  54.5739520   5.6652390  48.0495810  54.7370560   5.1957750  47.2315180
  55.0391970   5.1575950  48.7144650  56.1478500   5.0403820  50.2091620
  55.7633290   4.3997490  50.8074580  56.4590690   5.7439940  50.7786350
  58.6156800   5.1349990  38.6051300  57.8419060   4.5947610  38.4450020
  59.3451430   4.6156600  38.2669060  69.3744780   4.1315350  44.3977690
  70.0943900   4.6270640  44.0073800  69.1726600   3.4533240  43.7531560
  64.7563580   4.2024410  50.2846690  64.6900890   3.2820080  50.0304280
  64.1268720   4.2999850  50.9991330  58.6594200   4.8030370  42.2430110
  59.1772870   3.9998630  42.1887000  58.2078220   4.7409510  43.0846940
  63.5463700   6.0696650  37.5157410  63.8879400   6.8138880  37.0200730
  62.7176410   6.3827770  37.8782240  59.3451860   2.2275980  52.0395360
  59.0452000   2.3733160  51.1423180  60.1163100   1.6681270  51.9468750
  64.6880310   7.0244980  50.0350490  64.7024850   6.0925940  49.8169400
  63.9805410   7.1104740  50.6740260  70.8991520   3.6652320  49.3819070
  70.1739710   4.2581100  49.1848460  71.4266980   3.6575860  48.5832440
  70.8504630   8.0627060  39.0331230  70.2080790   7.4082680  39.3074950
  70.4635290   8.4682150  38.2571900  66.4291110   5.3912490  42.8802920
  66.7814930   4.7940620  42.2204290  65.5453440   5.0656720  43.0511170
  62.5154390   6.1510180  40.2873330  63.2025520   6.6979390  40.6680920
  61.7286810   6.6950910  40.3222940  54.6546790   1.7683000  35.7790410
  55.5241640   2.0507800  36.0626330  54.1637110   2.5818870  35.6639220
  61.8181600   3.1556210  39.8998690  62.2744380   3.9661460  40.1258880
  61.4669810   2.8379350  40.7317180  64.1214210   8.6662550  47.1290990
  64.7656430   8.8721930  47.8064410  64.4843650   7.9050950  46.6761840
  65.3946290   6.6694900  45.8468440  66.0368520   5.9688060  45.9600610
  65.9195640   7.4493340  45.6665330  69.2402010   6.9543520  35.5707580
  69.0139590   6.2373960  36.1632220  68.8498210   6.7055960  34.7329330
  67.1683910   7.4689800  49.0504500  67.5040150   8.0556490  49.7282420
  66.2484250   7.3382510  49.2802290  55.0218040  10.9810380  36.3452040
  55.3815680  11.5799720  35.6909310  54.8810380  11.5270270  37.1187070
  68.8218260   4.8715460  37.2321740  68.5339960   5.3328150  38.0199620
  69.6170430   4.4113230  37.5005960  55.0059900   9.2465240  50.8194440
  55.1151020   8.3059980  50.6789830  54.3540460   9.5119990  50.1708170
  62.9972490   7.5181130  52.2192560  62.6769360   6.7990370  52.7638250
  62.3230850   8.1936200  52.2928620  61.0386660   8.3641580  37.1625710
  61.0296760   9.0971270  36.5470220  60.1185020   8.1173160  37.2552670
  56.6393300   3.5856470  37.9072470  56.0321250   4.3255370  37.9167770
  57.1142650   3.6755830  37.0810670  64.0246260   8.4269820  35.8250900
  64.1258240   8.2233810  34.8952880  63.1248000   8.1728100  36.0298680
  62.6664370  10.9456140  40.5198570  62.9205870  10.9077530  39.5977940
  61.7176850  10.8189470  40.5126820  58.6498590   3.5467620  35.6561040
  59.4161860   3.4348980  36.2186470  58.7273280   2.8505590  35.0037810
  70.6742530   9.0356870  43.7711340  70.7989950   9.8588040  44.2435150
  71.5408090   8.8247600  43.4235490  58.1460060  11.1288080  43.4428470
  58.8822540  10.5803540  43.7137040  58.5300980  11.9944090  43.3034460
  55.0305540   7.1961650  39.3169980  54.1045320   7.4382790  39.3075390
  55.4961970   8.0235910  39.1954730  57.1518340  10.3134150  52.6314050
  57.9531070  10.6346200  53.0449450  56.6370160   9.9529730  53.3533960
  61.2562370  10.3018390  35.2654040  62.0490980  10.5907220  34.8135830
  60.7366720   9.8710560  34.5866520  65.9882970   6.4214020  52.5789460
  65.3821130   6.4445620  51.8385210  65.6837080   5.6897060  53.1156710
  67.4183340  10.1494310  51.1898870  68.3705090  10.0652330  51.1399110
  67.2711560  10.8136020  51.8632660  70.3092540   9.5288520  36.6890780
  70.0234050   9.1153660  35.8744960  70.1112090  10.4576230  36.5691300
  54.8716150   2.8007610  51.5750100  55.3755170   2.2214890  52.1466330
  54.1323570   3.0847840  52.1126470  61.7739770   5.5221800  35.1296390
  61.6690410   4.9074150  35.8557770  61.6063990   4.9987690  34.3459400
  61.9254090   4.2078600  51.1085620  61.1599760   4.7763600  51.0240290
  62.1070050   3.9154810  50.2153850  65.0142500   4.5841830  35.7338380
  64.4652600   5.0311130  36.3781120  65.6361760   4.0791080  36.2576050
  69.0677440   5.9383930  51.6660640  69.8086910   6.2759690  51.1628100
  68.3050120   6.1075990  51.1130410  60.6817620   3.5432750  37.6303680
  61.1034040   3.3772620  38.4735070  60.8068460   2.7332980  37.1358820
  63.1945260   2.5670360  34.8780780  63.7150920   1.8519380  34.5121930
  63.8413660   3.2056230  35.1781290  67.7423100   3.9898760  50.2015850
  68.1564120   4.1443840  51.0506270  66.8074100   4.1153980  50.3641630
  62.5038330   3.9419240  48.1711780  62.9226440   4.7851970  47.9988020
  61.5846960   4.0791280  47.9418560  67.1790130   2.2272610  48.1312130
  66.6525350   2.7515230  47.5277270  67.5221470   2.8600000  48.7621860
  60.3545750  10.2472250  49.2869510  59.8166840  10.9718310  48.9678210
  60.6079710   9.7702590  48.4966850  63.2107960  11.4823460  49.5456160
  63.1366660  12.3858600  49.8528530  62.3086800  11.1635360  49.5178230
  63.7593290  10.6481970  37.1682520  64.6544080  10.9866940  37.1901280
  63.7910920   9.9261380  36.5406800  57.3989450   6.0209020  35.3969520
  57.8364320   6.5638690  36.0527100  57.8837180   5.1955970  35.4065860
  54.6135250   8.8098050  42.8489780  54.9438260   7.9419110  42.6168420
  55.0426250   9.0156570  43.6794740  59.2097170   7.1407060  40.5091750
  58.9092710   7.0172030  41.4095660  59.1034660   6.2815650  40.1007480
  55.1025460   9.6768640  45.5871410  54.6656450   9.8569440  46.4195560
  55.6703140  10.4343260  45.4453130  70.7387640   9.1785640  49.8748720
  70.1389630   9.2378200  49.1312640  70.8681540   8.2390620  50.0045570
  71.9789090   6.9203460  35.2118430  71.1482050   6.9880110  35.6825660
  72.1560920   7.8107580  34.9085290  71.4345550   3.6650940  37.7152630
  72.1964460   4.2347590  37.8212320  71.4499920   3.0978140  38.4860940
  54.9349890   2.1888870  41.9460290  54.2798730   1.9200510  41.3019990
  55.7727840   2.0793350  41.4962270  72.4405520   4.5201040  42.5594560
  72.8114350   3.7368360  42.1530530  73.0807450   5.2090140  42.3811860
  69.4239280   5.9037620  47.9724880  68.6099120   6.3334780  48.2350670
  69.8313480   6.5156030  47.3593930  71.4864720   3.9585310  34.8725150
  71.7613560   4.8664190  34.7444370  71.2975460   3.8947840  35.8087140
  55.9725820   2.5741440  46.4863630  56.3398860   2.4868840  47.3659650
  55.4036640   1.8107990  46.3870490  69.4815330  10.6556220  41.4993150
  70.0774400  10.3340790  40.8227570  69.7393480  10.1828040  42.2906420
  57.3877900   7.0874130  51.6483780  57.3447530   6.7167040  52.5298240
  57.5188910   8.0251700  51.7885600  61.0883930   8.6433720  47.2493500
  60.8475290   8.9108280  46.3624020  62.0286570   8.8139450  47.3044360
  72.3488090  10.6628100  48.0504140  71.8546370  11.0596970  47.3331270
  71.7401380  10.0377310  48.4441420  57.2265930  10.0336380  48.7681560
  56.6326250   9.9021080  49.5071600  57.2189770   9.1974520  48.3023660
  70.0327540  11.3051520  45.3290880  69.5730510  12.0567330  44.9548900
  69.4040000  10.5857990  45.2705680  56.8578160   7.3994760  47.7189600
  56.1312220   6.7800050  47.6515550  56.9187310   7.7935370  46.8487680
  60.4623260   9.6139760  44.5039010  60.9788280   9.0027120  43.9787270
  61.1120640  10.1168540  44.9950020  63.2018760  10.5048250  45.3307990
  63.4896570  10.2502550  44.4541000  63.7141980   9.9525610  45.9213560
  55.1408160  10.7169150  40.9286360  54.9730200  10.0839830  41.6268250
  54.2742670  10.9228550  40.5780550  56.7470860   9.4102380  38.3736500
  56.2218480   9.7910410  37.6698460  56.6715440  10.0353150  39.0946210
  63.2691120  11.4264350  52.6976190  64.1958430  11.1908620  52.7412150
  63.2541550  12.2536350  52.2162220  71.5036180  10.9689920  39.6950440
  71.6788370  10.2827660  39.0511360  70.8057750  11.4936970  39.3027110
  59.3463830  11.3584760  37.2485750  60.0782650  11.0744040  36.7009640
  59.6057500  11.1198040  38.1385130  58.5078620   7.4749490  37.2532080
  57.8787500   7.9434590  37.8017910  58.6226450   6.6298710  37.6878270
  69.8368680  10.6534210  52.5217230  70.6294000  10.1583440  52.3143190
  70.1301830  11.3324350  53.1292840  64.0946380   3.3034170  25.2842550
  63.3188480   2.8234610  25.5741120  64.7459310   2.6239820  25.1098710
  58.1112210   3.6153980  26.1618310  57.2797090   3.3602690  26.5614820
  58.7193190   3.6864750  26.8976230  68.1153810   7.7094360  24.0641680
  67.6535340   6.9381600  24.3928850  68.9279360   7.7360430  24.5694130
  58.0913470   7.6494070  26.3576330  58.3941510   6.7591810  26.1786550
  58.8357060   8.2064290  26.1298580  64.3417120   9.9952370  23.6845670
  63.7228560  10.4509870  23.1140110  65.1968900  10.1503830  23.2835370
  63.5355370   5.9791360  25.2912710  63.4663650   5.0381300  25.1301840
  64.2975230   6.0692770  25.8635280  65.2080470   4.8791610  21.0777580
  64.5897740   5.3441060  20.5140300  65.7203720   5.5719090  21.4947090
  60.0712230   4.4067480  27.7561180  59.7381610   5.0336400  28.3982250
  60.2478910   4.9329360  26.9762850  59.2831330   6.3748280  29.5710360
  59.9005330   7.0499360  29.2894810  58.4224450   6.7836260  29.4797860
  54.5763670   5.5648140  18.4517210  54.1991650   6.0535240  17.7202110
  54.8336740   6.2373420  19.0823740  70.2008920   7.8387690  27.4865000
  69.5172440   8.5086800  27.4781670  70.7403210   8.0368340  26.7209860
  67.7367660   9.6831820  26.2010180  67.7494820   9.2794110  25.3332440
  67.1842880  10.4579110  26.0971610  69.0313080   6.4048040  21.2900350
  68.9209410   5.4622370  21.4149770  69.0281330   6.7663680  22.1763110
  67.1353100   4.5861660  27.5292790  67.5521890   4.3721770  26.6946250
  67.8592920   4.8434450  28.1001410  64.5733360   2.0313360  20.6462840
  63.6462640   1.9650740  20.8751310  64.7258180   2.9693490  20.5318080
  71.0815200   2.9848880  27.6209030  70.2533830   3.0541970  27.1459160
  71.6765680   3.5703190  27.1524860  68.6030650   3.5933660  21.1498090
  67.9843070   3.2553210  20.5024390  68.5855100   2.9493420  21.8577280
  60.1790000   2.5578100  23.4282570  59.7747000   1.8455350  22.9328470
  60.2653120   2.2131340  24.3170610  60.6471700   6.2445660  25.5921780
  60.3499990   5.6391130  24.9129560  61.5971520   6.2822970  25.4811140
  68.7357310   9.8177530  29.2544880  68.2587870  10.6249720  29.0617490
  68.0519100   9.1655860  29.4071090  59.7390130   5.9827350  32.2429580
  58.8418660   6.2067320  32.4902980  59.7643000   6.1062290  31.2940980
  66.7795350   2.8320470  18.1570840  67.2188630   1.9942900  18.0108660
  67.4923770   3.4649870  18.2434980  58.5661350   2.8540670  30.8186950
  58.4269120   3.7263470  31.1874350  57.6842710   2.5113480  30.6734890
  64.8890730   7.7716540  22.1252080  65.3286640   8.5140870  21.7107470
  64.8277620   8.0143110  23.0491040  60.3641700   8.7962370  33.0272100
  60.3357130   9.2005320  32.1600530  60.2006670   7.8672730  32.8643700
  72.3156520   9.5789470  34.3236270  72.7916240  10.0572360  35.0025350
  72.9363680   9.5106960  33.5981770  54.5180000   4.6238220  26.7357860
  54.5960420   4.7586990  25.7913580  55.1321680   3.9154110  26.9285980
  55.7627630   6.3238410  23.1464040  55.3555710   6.4653000  22.2917640
  56.6540640   6.0398570  22.9435250  71.7189770   6.7702320  31.4836280
  71.8452830   6.5314200  30.5653460  71.7611150   5.9386860  31.9558360
  65.5806510  10.4730320  30.0531090  66.0951180  10.3838330  30.8553520
  64.7375590  10.8190020  30.3459000  67.5560910  10.7585660  19.4815090
  67.3962050  10.4688600  20.3796920  67.3907620   9.9825790  18.9460320
  60.0349290  10.5384190  21.2586710  59.8591770   9.6219730  21.0454510
  59.1805030  10.8971480  21.4984510  67.2587040   8.2673220  18.0413090
  66.5652200   8.2650510  17.3815370  68.0009900   7.8432540  17.6107260
  66.8236970   9.8935930  22.1161580  67.2793920   9.1125310  22.4300200
  67.1629490  10.6042750  22.6602760  54.5739520   5.6652390  29.2752320
  54.7370560   5.1957750  28.4571690  55.0391970   5.1575950  29.9401160
  56.1478500   5.0403820  31.4348130  55.7633290   4.3997490  32.0331090
  56.4590690   5.7439940  32.0042860  58.6156800   5.1349990  19.8307810
  57.8419060   4.5947610  19.6706530  59.3451430   4.6156600  19.4925570
  69.3744780   4.1315350  25.6234200  70.0943900   4.6270640  25.2330310
  69.1726600   3.4533240  24.9788070  64.7563580   4.2024410  31.5103200
  64.6900890   3.2820080  31.2560790  64.1268720   4.2999850  32.2247840
  58.6594200   4.8030370  23.4686620  59.1772870   3.9998630  23.4143510
  58.2078220   4.7409510  24.3103450  63.5463700   6.0696650  18.7413920
  63.8879400   6.8138880  18.2457240  62.7176410   6.3827770  19.1038750
  59.3451860   2.2275980  33.2651870  59.0452000   2.3733160  32.3679690
  60.1163100   1.6681270  33.1725260  64.6880310   7.0244980  31.2607000
  64.7024850   6.0925940  31.0425910  63.9805410   7.1104740  31.8996770
  70.8991520   3.6652320  30.6075580  70.1739710   4.2581100  30.4104970
  71.4266980   3.6575860  29.8088950  70.8504630   8.0627060  20.2587740
  70.2080790   7.4082680  20.5331460  70.4635290   8.4682150  19.4828410
  66.4291110   5.3912490  24.1059430  66.7814930   4.7940620  23.4460800
  65.5453440   5.0656720  24.2767680  62.5154390   6.1510180  21.5129840
  63.2025520   6.6979390  21.8937430  61.7286810   6.6950910  21.5479450
  54.6546790   1.7683000  17.0046920  55.5241640   2.0507800  17.2882840
  54.1637110   2.5818870  16.8895730  61.8181600   3.1556210  21.1255200
  62.2744380   3.9661460  21.3515390  61.4669810   2.8379350  21.9573690
  64.1214210   8.6662550  28.3547500  64.7656430   8.8721930  29.0320920
  64.4843650   7.9050950  27.9018350  65.3946290   6.6694900  27.0724950
  66.0368520   5.9688060  27.1857120  65.9195640   7.4493340  26.8921840
  69.2402010   6.9543520  16.7964090  69.0139590   6.2373960  17.3888730
  68.8498210   6.7055960  15.9585840  67.1683910   7.4689800  30.2761010
  67.5040150   8.0556490  30.9538930  66.2484250   7.3382510  30.5058800
  55.0218040  10.9810380  17.5708550  55.3815680  11.5799720  16.9165820
  54.8810380  11.5270270  18.3443580  68.8218260   4.8715460  18.4578250
  68.5339960   5.3328150  19.2456130  69.6170430   4.4113230  18.7262470
  55.0059900   9.2465240  32.0450950  55.1151020   8.3059980  31.9046340
  54.3540460   9.5119990  31.3964680  62.9972490   7.5181130  33.4449070
  62.6769360   6.7990370  33.9894760  62.3230850   8.1936200  33.5185130
  61.0386660   8.3641580  18.3882220  61.0296760   9.0971270  17.7726730
  60.1185020   8.1173160  18.4809180  56.6393300   3.5856470  19.1328980
  56.0321250   4.3255370  19.1424280  57.1142650   3.6755830  18.3067180
  64.0246260   8.4269820  17.0507410  64.1258240   8.2233810  16.1209390
  63.1248000   8.1728100  17.2555190  62.6664370  10.9456140  21.7455080
  62.9205870  10.9077530  20.8234450  61.7176850  10.8189470  21.7383330
  58.6498590   3.5467620  16.8817550  59.4161860   3.4348980  17.4442980
  58.7273280   2.8505590  16.2294320  70.6742530   9.0356870  24.9967850
  70.7989950   9.8588040  25.4691660  71.5408090   8.8247600  24.6492000
  58.1460060  11.1288080  24.6684980  58.8822540  10.5803540  24.9393550
  58.5300980  11.9944090  24.5290970  55.0305540   7.1961650  20.5426490
  54.1045320   7.4382790  20.5331900  55.4961970   8.0235910  20.4211240
  57.1518340  10.3134150  33.8570560  57.9531070  10.6346200  34.2705960
  56.6370160   9.9529730  34.5790470  61.2562370  10.3018390  16.4910550
  62.0490980  10.5907220  16.0392340  60.7366720   9.8710560  15.8123030
  65.9882970   6.4214020  33.8045970  65.3821130   6.4445620  33.0641720
  65.6837080   5.6897060  34.3413220  67.4183340  10.1494310  32.4155380
  68.3705090  10.0652330  32.3655620  67.2711560  10.8136020  33.0889170
  70.3092540   9.5288520  17.9147290  70.0234050   9.1153660  17.1001470
  70.1112090  10.4576230  17.7947810  54.8716150   2.8007610  32.8006610
  55.3755170   2.2214890  33.3722840  54.1323570   3.0847840  33.3382980
  61.7739770   5.5221800  16.3552900  61.6690410   4.9074150  17.0814280
  61.6063990   4.9987690  15.5715910  61.9254090   4.2078600  32.3342130
  61.1599760   4.7763600  32.2496800  62.1070050   3.9154810  31.4410360
  65.0142500   4.5841830  16.9594890  64.4652600   5.0311130  17.6037630
  65.6361760   4.0791080  17.4832560  69.0677440   5.9383930  32.8917150
  69.8086910   6.2759690  32.3884610  68.3050120   6.1075990  32.3386920
  60.6817620   3.5432750  18.8560190  61.1034040   3.3772620  19.6991580
  60.8068460   2.7332980  18.3615330  63.1945260   2.5670360  16.1037290
  63.7150920   1.8519380  15.7378440  63.8413660   3.2056230  16.4037800
  67.7423100   3.9898760  31.4272360  68.1564120   4.1443840  32.2762780
  66.8074100   4.1153980  31.5898140  62.5038330   3.9419240  29.3968290
  62.9226440   4.7851970  29.2244530  61.5846960   4.0791280  29.1675070
  67.1790130   2.2272610  29.3568640  66.6525350   2.7515230  28.7533780
  67.5221470   2.8600000  29.9878370  60.3545750  10.2472250  30.5126020
  59.8166840  10.9718310  30.1934720  60.6079710   9.7702590  29.7223360
  63.2107960  11.4823460  30.7712670  63.1366660  12.3858600  31.0785040
  62.3086800  11.1635360  30.7434740  63.7593290  10.6481970  18.3939030
  64.6544080  10.9866940  18.4157790  63.7910920   9.9261380  17.7663310
  57.3989450   6.0209020  16.6226030  57.8364320   6.5638690  17.2783610
  57.8837180   5.1955970  16.6322370  54.6135250   8.8098050  24.0746290
  54.9438260   7.9419110  23.8424930  55.0426250   9.0156570  24.9051250
  59.2097170   7.1407060  21.7348260  58.9092710   7.0172030  22.6352170
  59.1034660   6.2815650  21.3263990  55.1025460   9.6768640  26.8127920
  54.6656450   9.8569440  27.6452070  55.6703140  10.4343260  26.6709640
  70.7387640   9.1785640  31.1005230  70.1389630   9.2378200  30.3569150
  70.8681540   8.2390620  31.2302080  71.9789090   6.9203460  16.4374940
  71.1482050   6.9880110  16.9082170  72.1560920   7.8107580  16.1341800
  71.4345550   3.6650940  18.9409140  72.1964460   4.2347590  19.0468830
  71.4499920   3.0978140  19.7117450  54.9349890   2.1888870  23.1716800
  54.2798730   1.9200510  22.5276500  55.7727840   2.0793350  22.7218780
  72.4405520   4.5201040  23.7851070  72.8114350   3.7368360  23.3787040
  73.0807450   5.2090140  23.6068370  69.4239280   5.9037620  29.1981390
  68.6099120   6.3334780  29.4607180  69.8313480   6.5156030  28.5850440
  71.4864720   3.9585310  16.0981660  71.7613560   4.8664190  15.9700880
  71.2975460   3.8947840  17.0343650  55.9725820   2.5741440  27.7120140
  56.3398860   2.4868840  28.5916160  55.4036640   1.8107990  27.6127000
  69.4815330  10.6556220  22.7249660  70.0774400  10.3340790  22.0484080
  69.7393480  10.1828040  23.5162930  57.3877900   7.0874130  32.8740290
  57.3447530   6.7167040  33.7554750  57.5188910   8.0251700  33.0142110
  61.0883930   8.6433720  28.4750010  60.8475290   8.9108280  27.5880530
  62.0286570   8.8139450  28.5300870  72.3488090  10.6628100  29.2760650
  71.8546370  11.0596970  28.5587780  71.7401380  10.0377310  29.6697930
  57.2265930  10.0336380  29.9938070  56.6326250   9.9021080  30.7328110
  57.2189770   9.1974520  29.5280170  70.0327540  11.3051520  26.5547390
  69.5730510  12.0567330  26.1805410  69.4040000  10.5857990  26.4962190
  56.8578160   7.3994760  28.9446110  56.1312220   6.7800050  28.8772060
  56.9187310   7.7935370  28.0744190  60.4623260   9.6139760  25.7295520
  60.9788280   9.0027120  25.2043780  61.1120640  10.1168540  26.2206530
  63.2018760  10.5048250  26.5564500  63.4896570  10.2502550  25.6797510
  63.7141980   9.9525610  27.1470070  55.1408160  10.7169150  22.1542870
  54.9730200  10.0839830  22.8524760  54.2742670  10.9228550  21.8037060
  56.7470860   9.4102380  19.5993010  56.2218480   9.7910410  18.8954970
  56.6715440  10.0353150  20.3202720  63.2691120  11.4264350  33.9232700
  64.1958430  11.1908620  33.9668660  63.2541550  12.2536350  33.4418730
  71.5036180  10.9689920  20.9206950  71.6788370  10.2827660  20.2767870
  70.8057750  11.4936970  20.5283620  59.3463830  11.3584760  18.4742260
  60.0782650  11.0744040  17.9266150  59.6057500  11.1198040  19.3641640
  58.5078620   7.4749490  18.4788590  57.8787500   7.9434590  19.0274420
  58.6226450   6.6298710  18.9134780  69.8368680  10.6534210  33.7473740
  70.6294000  10.1583440  33.5399700  70.1301830  11.3324350  34.3549350
  64.0946380   3.3034170   6.5099060  63.3188480   2.8234610   6.7997630
  64.7459310   2.6239820   6.3355220  58.1112210   3.6153980   7.3874820
  57.2797090   3.3602690   7.7871330  58.7193190   3.6864750   8.1232740
  68.1153810   7.7094360   5.2898190  67.6535340   6.9381600   5.6185360
  68.9279360   7.7360430   5.7950640  58.0913470   7.6494070   7.5832840
  58.3941510   6.7591810   7.4043060  58.8357060   8.2064290   7.3555090
  64.3417120   9.9952370   4.9102180  63.7228560  10.4509870   4.3396620
  65.1968900  10.1503830   4.5091880  63.5355370   5.9791360   6.5169220
  63.4663650   5.0381300   6.3558350  64.2975230   6.0692770   7.0891790
  65.2080470   4.8791610   2.3034090  64.5897740   5.3441060   1.7396810
  65.7203720   5.5719090   2.7203600  60.0712230   4.4067480   8.9817690
  59.7381610   5.0336400   9.6238760  60.2478910   4.9329360   8.2019360
  59.2831330   6.3748280  10.7966870  59.9005330   7.0499360  10.5151320
  58.4224450   6.7836260  10.7054370  70.2008920   7.8387690   8.7121510
  69.5172440   8.5086800   8.7038180  70.7403210   8.0368340   7.9466370
  67.7367660   9.6831820   7.4266690  67.7494820   9.2794110   6.5588950
  67.1842880  10.4579110   7.3228120  69.0313080   6.4048040   2.5156860
  68.9209410   5.4622370   2.6406280  69.0281330   6.7663680   3.4019620
  67.1353100   4.5861660   8.7549300  67.5521890   4.3721770   7.9202760
  67.8592920   4.8434450   9.3257920  64.5733360   2.0313360   1.8719350
  63.6462640   1.9650740   2.1007820  64.7258180   2.9693490   1.7574590
  71.0815200   2.9848880   8.8465540  70.2533830   3.0541970   8.3715670
  71.6765680   3.5703190   8.3781370  68.6030650   3.5933660   2.3754600
  67.9843070   3.2553210   1.7280900  68.5855100   2.9493420   3.0833790
  60.1790000   2.5578100   4.6539080  59.7747000   1.8455350   4.1584980
  60.2653120   2.2131340   5.5427120  60.6471700   6.2445660   6.8178290
  60.3499990   5.6391130   6.1386070  61.5971520   6.2822970   6.7067650
  68.7357310   9.8177530  10.4801390  68.2587870  10.6249720  10.2874000
  68.0519100   9.1655860  10.6327600  59.7390130   5.9827350  13.4686090
  58.8418660   6.2067320  13.7159490  59.7643000   6.1062290  12.5197490
  58.5661350   2.8540670  12.0443460  58.4269120   3.7263470  12.4130860
  57.6842710   2.5113480  11.8991400  64.8890730   7.7716540   3.3508590
  65.3286640   8.5140870   2.9363980  64.8277620   8.0143110   4.2747550
  60.3641700   8.7962370  14.2528610  60.3357130   9.2005320  13.3857040
  60.2006670   7.8672730  14.0900210  72.3156520   9.5789470  15.5492780
  72.7916240  10.0572360  16.2281860  72.9363680   9.5106960  14.8238280
  54.5180000   4.6238220   7.9614370  54.5960420   4.7586990   7.0170090
  55.1321680   3.9154110   8.1542490  55.7627630   6.3238410   4.3720550
  55.3555710   6.4653000   3.5174150  56.6540640   6.0398570   4.1691760
  71.7189770   6.7702320  12.7092790  71.8452830   6.5314200  11.7909970
  71.7611150   5.9386860  13.1814870  65.5806510  10.4730320  11.2787600
  66.0951180  10.3838330  12.0810030  64.7375590  10.8190020  11.5715510
  60.0349290  10.5384190   2.4843220  59.8591770   9.6219730   2.2711020
  59.1805030  10.8971480   2.7241020  66.8236970   9.8935930   3.3418090
  67.2793920   9.1125310   3.6556710  67.1629490  10.6042750   3.8859270
  54.5739520   5.6652390  10.5008830  54.7370560   5.1957750   9.6828200
  55.0391970   5.1575950  11.1657670  56.1478500   5.0403820  12.6604640
  55.7633290   4.3997490  13.2587600  56.4590690   5.7439940  13.2299370
  69.3744780   4.1315350   6.8490710  70.0943900   4.6270640   6.4586820
  69.1726600   3.4533240   6.2044580  64.7563580   4.2024410  12.7359710
  64.6900890   3.2820080  12.4817300  64.1268720   4.2999850  13.4504350
  58.6594200   4.8030370   4.6943130  59.1772870   3.9998630   4.6400020
  58.2078220   4.7409510   5.5359960  59.3451860   2.2275980  14.4908380
  59.0452000   2.3733160  13.5936200  60.1163100   1.6681270  14.3981770
  64.6880310   7.0244980  12.4863510  64.7024850   6.0925940  12.2682420
  63.9805410   7.1104740  13.1253280  70.8991520   3.6652320  11.8332090
  70.1739710   4.2581100  11.6361480  71.4266980   3.6575860  11.0345460
  66.4291110   5.3912490   5.3315940  66.7814930   4.7940620   4.6717310
  65.5453440   5.0656720   5.5024190  62.5154390   6.1510180   2.7386350
  63.2025520   6.6979390   3.1193940  61.7286810   6.6950910   2.7735960
  61.8181600   3.1556210   2.3511710  62.2744380   3.9661460   2.5771900
  61.4669810   2.8379350   3.1830200  64.1214210   8.6662550   9.5804010
  64.7656430   8.8721930  10.2577430  64.4843650   7.9050950   9.1274860
  65.3946290   6.6694900   8.2981460  66.0368520   5.9688060   8.4113630
  65.9195640   7.4493340   8.1178350  67.1683910   7.4689800  11.5017520
  67.5040150   8.0556490  12.1795440  66.2484250   7.3382510  11.7315310
  55.0059900   9.2465240  13.2707460  55.1151020   8.3059980  13.1302850
  54.3540460   9.5119990  12.6221190  62.9972490   7.5181130  14.6705580
  62.6769360   6.7990370  15.2151270  62.3230850   8.1936200  14.7441640
  62.6664370  10.9456140   2.9711590  62.9205870  10.9077530   2.0490960
  61.7176850  10.8189470   2.9639840  70.6742530   9.0356870   6.2224360
  70.7989950   9.8588040   6.6948170  71.5408090   8.8247600   5.8748510
  58.1460060  11.1288080   5.8941490  58.8822540  10.5803540   6.1650060
  58.5300980  11.9944090   5.7547480  55.0305540   7.1961650   1.7683000
  54.1045320   7.4382790   1.7588410  55.4961970   8.0235910   1.6467750
  57.1518340  10.3134150  15.0827070  57.9531070  10.6346200  15.4962470
  56.6370160   9.9529730  15.8046980  65.9882970   6.4214020  15.0302480
  65.3821130   6.4445620  14.2898230  65.6837080   5.6897060  15.5669730
  67.4183340  10.1494310  13.6411890  68.3705090  10.0652330  13.5912130
  67.2711560  10.8136020  14.3145680  54.8716150   2.8007610  14.0263120
  55.3755170   2.2214890  14.5979350  54.1323570   3.0847840  14.5639490
  61.9254090   4.2078600  13.5598640  61.1599760   4.7763600  13.4753310
  62.1070050   3.9154810  12.6666870  69.0677440   5.9383930  14.1173660
  69.8086910   6.2759690  13.6141120  68.3050120   6.1075990  13.5643430
  67.7423100   3.9898760  12.6528870  68.1564120   4.1443840  13.5019290
  66.8074100   4.1153980  12.8154650  62.5038330   3.9419240  10.6224800
  62.9226440   4.7851970  10.4501040  61.5846960   4.0791280  10.3931580
  67.1790130   2.2272610  10.5825150  66.6525350   2.7515230   9.9790290
  67.5221470   2.8600000  11.2134880  60.3545750  10.2472250  11.7382530
  59.8166840  10.9718310  11.4191230  60.6079710   9.7702590  10.9479870
  63.2107960  11.4823460  11.9969180  63.1366660  12.3858600  12.3041550
  62.3086800  11.1635360  11.9691250  54.6135250   8.8098050   5.3002800
  54.9438260   7.9419110   5.0681440  55.0426250   9.0156570   6.1307760
  59.2097170   7.1407060   2.9604770  58.9092710   7.0172030   3.8608680
  59.1034660   6.2815650   2.5520500  55.1025460   9.6768640   8.0384430
  54.6656450   9.8569440   8.8708580  55.6703140  10.4343260   7.8966150
  70.7387640   9.1785640  12.3261740  70.1389630   9.2378200  11.5825660
  70.8681540   8.2390620  12.4558590  54.9349890   2.1888870   4.3973310
  54.2798730   1.9200510   3.7533010  55.7727840   2.0793350   3.9475290
  72.4405520   4.5201040   5.0107580  72.8114350   3.7368360   4.6043550
  73.0807450   5.2090140   4.8324880  69.4239280   5.9037620  10.4237900
  68.6099120   6.3334780  10.6863690  69.8313480   6.5156030   9.8106950
  55.9725820   2.5741440   8.9376650  56.3398860   2.4868840   9.8172670
  55.4036640   1.8107990   8.8383510  69.4815330  10.6556220   3.9506170
  70.0774400  10.3340790   3.2740590  69.7393480  10.1828040   4.7419440
  57.3877900   7.0874130  14.0996800  57.3447530   6.7167040  14.9811260
  57.5188910   8.0251700  14.2398620  61.0883930   8.6433720   9.7006520
  60.8475290   8.9108280   8.8137040  62.0286570   8.8139450   9.7557380
  72.3488090  10.6628100  10.5017160  71.8546370  11.0596970   9.7844290
  71.7401380  10.0377310  10.8954440  57.2265930  10.0336380  11.2194580
  56.6326250   9.9021080  11.9584620  57.2189770   9.1974520  10.7536680
  70.0327540  11.3051520   7.7803900  69.5730510  12.0567330   7.4061920
  69.4040000  10.5857990   7.7218700  56.8578160   7.3994760  10.1702620
  56.1312220   6.7800050  10.1028570  56.9187310   7.7935370   9.3000700
  60.4623260   9.6139760   6.9552030  60.9788280   9.0027120   6.4300290
  61.1120640  10.1168540   7.4463040  63.2018760  10.5048250   7.7821010
  63.4896570  10.2502550   6.9054020  63.7141980   9.9525610   8.3726580
  55.1408160  10.7169150   3.3799380  54.9730200  10.0839830   4.0781270
  54.2742670  10.9228550   3.0293570  63.2691120  11.4264350  15.1489210
  64.1958430  11.1908620  15.1925170  63.2541550  12.2536350  14.6675240
  71.5036180  10.9689920   2.1463460  71.6788370  10.2827660   1.5024380
  70.8057750  11.4936970   1.7540130  69.8368680  10.6534210  14.9730250
  70.6294000  10.1583440  14.7656210  70.1301830  11.3324350  15.5805860
  47.1884850  95.3972600  98.5007240  47.1078900  94.4827210  98.2298950
  46.7749270  95.8939670  97.7946950  37.7460670  92.4473320  95.0434660
  36.8577370  92.7889290  94.9414540  38.0301860  92.2473640  94.1515490
  35.7093680  95.0478970 100.9274360  36.2809790  94.2801170 100.9278000
  35.7095220  95.3467730 100.0180970  36.9518550  90.4563330 102.7143290
  36.7721390  89.5589080 102.9946050  36.5498630  91.0035200 103.3890240
  45.7917050  92.6579190 100.6155600  46.1681870  91.7851070 100.5029270
  45.6936560  92.9937890  99.7246040  39.9222060  91.0304820  96.0773040
  40.0288810  91.9308550  96.3841800  39.0114420  90.9822790  95.7867690
  49.5741170  90.1529630  97.5483940  50.3950790  89.6626200  97.5909420
  49.6075250  90.7427290  98.3015780  37.5705220  92.9523830 101.3225630
  38.2515330  93.2162200 101.9413030  37.2553270  92.1124700 101.6563640
  41.7629790  93.9991190 100.4098220  42.2708010  94.4972160 101.0503240
  42.2943030  93.2226390 100.2337580  53.8640720  92.1696380 104.1127570
  53.1592890  92.5578090 103.5942680  54.1298640  92.8646670 104.7148500
  40.0465890  88.6389750 104.6761640  40.0484330  89.1562140 103.8707540
  39.2170200  88.1619930 104.6531570  49.8102650  92.0930010 100.3211480
  49.1058220  92.3814900 100.9014590  50.1714810  92.9030120  99.9611040
  39.7281220  90.3499710 102.6832090  40.0698030  91.1941760 102.3885960
  38.7897030  90.4983450 102.7997430  52.8789570  91.5384800 100.7120690
  51.9314480  91.5723780 100.8436120  53.2039560  92.3523750 101.0970050
  43.4109110  87.8381980  99.0076680  43.7184090  87.2828870  98.2912180
  42.4809810  87.9726440  98.8249670  45.7989870  95.9030810  95.7436800
  44.8719150  95.8368190  95.9725270  45.9514690  96.8410940  95.6292040
  45.7858950  92.1747810  92.7403960  44.8462620  92.3361770  92.8256420
  46.1042210  92.8933490  92.1939950  49.2713720  93.6435650 103.6637860
  48.8584900  94.4689360 103.9177850  48.5389670  93.0580690 103.4714220
  41.4046510  96.4295550  98.5256530  41.0003510  95.7172800  98.0302430
  41.4909630  96.0848790  99.4144570  40.1175130  93.2038760 102.3055570
  40.6689720  93.3134100 101.5308820  40.6318640  93.5776360 103.0210800
  51.5869000  87.9580730  91.5685840  51.2741660  88.0507560  92.4684910
  52.3481470  88.5361760  91.5183270  38.1051140  95.3240530  96.0263180
  37.9848740  96.0502620  95.4144450  37.7952030  94.5543440  95.5491090
  40.5714800  88.6675600  99.4086850  40.1282950  89.4485140  99.0771370
  41.1299790  88.9905490 100.1157790  43.6873620  88.2886300  94.2892680
  43.0627800  88.2846170  95.0145990  43.6003740  87.4217260  93.8928650
  42.6090700  89.2122930 101.2676450  42.9063030  90.1185760 101.1868470
  43.1576260  88.7241710 100.6536020  40.3629020  93.7909170  97.1368100
  40.1369940  93.5746340  98.0414720  39.5821550  94.2237630  96.7914070
  47.5926780  93.7972540  95.7358750  46.9935670  94.5208340  95.5522370
  48.1406390  93.7349320  94.9535200  46.1991650  92.4336080  97.7662030
  46.5921220  92.7508280  96.9530720  46.5608500  91.5547960  97.8806550
  35.2355820  89.0236880  99.9892230  34.9468870  89.5939740 100.7017210
  35.9801580  88.5441330 100.3523460  35.4226050  92.9657000  91.1994950
  35.3400720  93.9087760  91.3409940  35.0709110  92.8231910  90.3207300
  46.7846790  95.0241830 101.8612810  46.0527910  95.5328640 102.2102910
  46.3871130  94.2071810 101.5601590  43.2224180  91.6996030 100.2665300
  43.2260240  91.2585980  99.4169840  44.1175300  92.0213360 100.3737120
  39.0726560  91.5822520  99.2259510  38.7326610  92.0597750  99.9826560
  38.3103880  91.1287640  98.8660610  43.2844330  92.7008110  93.2572060
  43.4057150  92.6594590  94.2057880  42.8992840  93.5632260  93.1018790
  47.2472700  90.4775510 101.2735750  47.2645440  90.9284160 102.1177600
  46.9988280  89.5781150 101.4869190  42.2965830  95.0109250  92.6555360
  41.7282730  94.5627500  92.0291270  43.0054830  95.3702030  92.1220510
  43.5232150  95.7597810 102.0130710  43.8902280  95.2856380 102.7592050
  43.3337210  96.6339380 102.3539050  36.3872640  90.5041500  98.1424180
  36.1019560  90.1397170  98.9802800  36.3251500  89.7721960  97.5287320
  41.3131520  94.8006450 104.3314920  41.0088590  95.6798430 104.5565280
  42.2677980  94.8606240 104.3672360  46.0611230  89.3970760  94.8637550
  45.2475840  88.8983930  94.7882860  45.8673180  90.2369010  94.4473900
  48.7759620  93.7690410  93.1599710  49.6639240  94.0807640  92.9851050
  48.7464710  92.8962660  92.7680290  51.0473890  95.0802250  92.6279570
  50.9637610  95.5116470  91.7776010  51.7668080  95.5400600  93.0606390
  35.8803300  95.6400450  92.1020880  36.7498150  95.9225250  92.3856800
  35.3893620  96.4536320  91.9869690  38.9449890  87.3711310  96.6951680
  38.8164520  87.3629210  97.6436600  38.1211910  87.7094400  96.3442690
  47.4382600  91.6224740 103.9059830  47.8063420  90.8019950 104.2339400
  46.5780800  91.6826630 104.3215480  50.8044630  90.5781680  94.7147390
  50.1757790  90.6827350  94.0005620  50.3096550  90.7978460  95.5041270
  42.7728660  92.8567630  96.1305270  42.0644810  93.3253970  96.5718880
  43.0573140  92.1989640  96.7650460  44.3984590  94.2764330 104.1297800
  44.8969840  94.7510150 104.7949650  44.5407540  93.3527850 104.3367830
  46.8044090  89.5818290  97.5701060  46.6811870  89.6004420  96.6210570
  47.7528650  89.6297230  97.6899460  40.9763680  91.1652710  93.5055980
  41.8254210  91.6022860  93.4396170  40.6094950  91.4772970  94.3328040
  49.8973460  95.7365470  98.4187550  48.9563600  95.7515700  98.5935240
  50.2117530  94.9501430  98.8647850  38.5701860  94.8510140  92.6624400
  38.6505450  93.9037650  92.7741800  39.4621610  95.1817020  92.7685060
  43.3235290  88.9182360 103.8729810  42.8752590  88.9406620 103.0275360
  42.6900490  88.5201380 104.4700110  40.8033030  93.4883430  90.8992310
  40.6022090  92.6250790  91.2605650  40.6325080  93.4016790  89.9613910
  48.2821340  88.2991660  93.4279190  48.5623630  87.4559560  93.7838610
  47.5087070  88.5314770  93.9417940  39.6015830  90.5884050  90.8870190
  39.9041730  90.5951480  89.9789340  40.3410420  90.2381910  91.3837850
  42.8200760  89.5318670  91.8726390  42.4722760  88.8542660  91.2928840
  43.0213530  89.0708180  92.6869780  36.1606400  96.0606320  98.2690760
  35.5055240  95.7917960  97.6250460  36.9984350  95.9510800  97.8192740
  49.1096840  90.8547610  92.4909250  49.5281720  90.6678590  91.6505910
  48.8032900  90.0026660  92.8012180  52.6086570  95.7671750  96.1885050
  52.2330170  94.9999680  95.7566340  51.8789690  96.1494450  96.6759980
  37.1982330  96.4458890 102.8094100  37.5655370  96.3586290 103.6890120
  36.6293150  95.6825440 102.7100960  35.3744480  93.2705250  94.2116090
  34.4708560  93.5335450  94.0367750  35.8585100  93.5416420  93.4316050
  51.8837530  93.9929240  99.4892290  52.4075010  93.4991890  98.8582460
  52.4696950  94.1279600 100.2339860  52.0627250  94.0769110 103.0111840
  51.1129960  94.0432650 103.1256830  52.2440260  94.9869220 102.7761610
  37.9171690  92.3270790  92.1210470  38.6263390  91.9054010  91.6357750
  37.2011630  92.3946020  91.4893820  37.5645850  88.3810120  91.1613120
  38.2873980  88.9219060  91.4794340  37.8370370  88.1073540  90.2854660
  51.3737500  93.2502590  95.4284700  51.8696620  93.0173460  96.2133580
  51.1753570  92.4114430  95.0122340  37.2538040  87.6316310 101.0635740
  37.9014230  87.0813690 100.6230900  37.6739880  87.8859460 101.8851550
  52.8024660  91.8863540  97.9622380  52.6923940  91.7319580  98.9004650
  53.5632250  91.3584480  97.7197790  51.1490380  87.8257670 104.4205380
  51.7862600  88.4391810 104.7864570  51.2965270  87.8618330 103.4754610
  53.6914930  89.7171460  91.2028520  54.6164240  89.5852640  90.9946810
  53.6690720  89.7964280  92.1564970  53.7653420  90.4882120  93.8285230
  52.9704920  90.4227240  94.3578140  53.9696700  91.4232760  93.8170580
  37.0070040  87.7871980 103.8061060  36.6584860  88.2435800 104.5719240
  36.6757740  86.8929110 103.8883490  47.8977460  87.1986060 103.2942060
  47.0237300  87.5321170 103.0914990  47.7888210  86.7259240 104.1193930
  48.8049440  89.4056930 104.6783780  48.4762800  88.5908690 104.2985510
  49.7531740  89.3626740 104.5549470  45.6452280  88.1155900 102.2334970
  44.8624070  88.5901400 102.5131730  45.3515210  87.2110730 102.1248150
  50.1973350  88.8179000 100.2784060  50.6381440  88.7624100  99.4305660
  49.9280940  89.7337010 100.3494240  52.0611920  88.4494240  98.2892880
  52.0000320  87.5055460  98.1423900  52.8403950  88.5574330  98.8346340
  36.9892690  88.4203380  94.7548690  37.7472050  88.5332260  94.1812720
  36.5269860  89.2572580  94.7092120  43.5306500  90.5342650  97.7451000
  42.7181010  90.1599540  97.4046880  44.0348140  89.7787730  98.0472190
  48.0331480  87.1985100  98.9834070  48.6360850  87.7705310  99.4582590
  47.2924470  87.7624540  98.7607970  51.1766080  87.6006660  94.2574350
  51.3716710  88.4990110  94.5241780  50.3895950  87.3693740  94.7507300
  39.3617840  88.9467430  93.2950660  39.8910600  88.1597230  93.1658610
  39.9946160  89.6258620  93.5286190  41.5555680  88.6842570  96.3496050
  40.9258420  87.9829880  96.5166180  41.0160820  89.4446700  96.1329210
  47.1884850  95.3972600  79.7263750  47.1078900  94.4827210  79.4555460
  46.7749270  95.8939670  79.0203460  37.7460670  92.4473320  76.2691170
  36.8577370  92.7889290  76.1671050  38.0301860  92.2473640  75.3772000
  35.7093680  95.0478970  82.1530870  36.2809790  94.2801170  82.1534510
  35.7095220  95.3467730  81.2437480  36.9518550  90.4563330  83.9399800
  36.7721390  89.5589080  84.2202560  36.5498630  91.0035200  84.6146750
  45.7917050  92.6579190  81.8412110  46.1681870  91.7851070  81.7285780
  45.6936560  92.9937890  80.9502550  39.9222060  91.0304820  77.3029550
  40.0288810  91.9308550  77.6098310  39.0114420  90.9822790  77.0124200
  49.5741170  90.1529630  78.7740450  50.3950790  89.6626200  78.8165930
  49.6075250  90.7427290  79.5272290  37.5705220  92.9523830  82.5482140
  38.2515330  93.2162200  83.1669540  37.2553270  92.1124700  82.8820150
  41.7629790  93.9991190  81.6354730  42.2708010  94.4972160  82.2759750
  42.2943030  93.2226390  81.4594090  53.8640720  92.1696380  85.3384080
  53.1592890  92.5578090  84.8199190  54.1298640  92.8646670  85.9405010
  40.0465890  88.6389750  85.9018150  40.0484330  89.1562140  85.0964050
  39.2170200  88.1619930  85.8788080  49.8102650  92.0930010  81.5467990
  49.1058220  92.3814900  82.1271100  50.1714810  92.9030120  81.1867550
  39.7281220  90.3499710  83.9088600  40.0698030  91.1941760  83.6142470
  38.7897030  90.4983450  84.0253940  52.8789570  91.5384800  81.9377200
  51.9314480  91.5723780  82.0692630  53.2039560  92.3523750  82.3226560
  43.4109110  87.8381980  80.2333190  43.7184090  87.2828870  79.5168690
  42.4809810  87.9726440  80.0506180  45.7989870  95.9030810  76.9693310
  44.8719150  95.8368190  77.1981780  45.9514690  96.8410940  76.8548550
  45.7858950  92.1747810  73.9660470  44.8462620  92.3361770  74.0512930
  46.1042210  92.8933490  73.4196460  49.2713720  93.6435650  84.8894370
  48.8584900  94.4689360  85.1434360  48.5389670  93.0580690  84.6970730
  41.4046510  96.4295550  79.7513040  41.0003510  95.7172800  79.2558940
  41.4909630  96.0848790  80.6401080  40.1175130  93.2038760  83.5312080
  40.6689720  93.3134100  82.7565330  40.6318640  93.5776360  84.2467310
  51.5869000  87.9580730  72.7942350  51.2741660  88.0507560  73.6941420
  52.3481470  88.5361760  72.7439780  38.1051140  95.3240530  77.2519690
  37.9848740  96.0502620  76.6400960  37.7952030  94.5543440  76.7747600
  52.7970290  92.6952230  88.7716490  52.1814560  93.2031900  88.2431950
  52.4766710  91.7950560  88.7142430  40.5714800  88.6675600  80.6343360
  40.1282950  89.4485140  80.3027880  41.1299790  88.9905490  81.3414300
  44.8584610  91.5344120  86.2378680  44.3963980  91.7427140  87.0498620
  44.4562720  90.7203470  85.9349350  49.8589120  92.7553070  87.3675340
  49.0082710  92.4558820  87.6884410  49.6990910  92.9995080  86.4559160
  46.9538830  94.2554820  89.4674130  47.2792240  93.4218570  89.1276360
  47.7419160  94.7783340  89.6152460  43.6873620  88.2886300  75.5149190
  43.0627800  88.2846170  76.2402500  43.6003740  87.4217260  75.1185160
  42.6090700  89.2122930  82.4932960  42.9063030  90.1185760  82.4124980
  43.1576260  88.7241710  81.8792530  40.3629020  93.7909170  78.3624610
  40.1369940  93.5746340  79.2671230  39.5821550  94.2237630  78.0170580
  47.5926780  93.7972540  76.9615260  46.9935670  94.5208340  76.7778880
  48.1406390  93.7349320  76.1791710  42.8028230  94.6894750  89.0284880
  42.7071830  93.7489480  88.8785280  43.6460210  94.9109820  88.6332950
  46.1991650  92.4336080  78.9918540  46.5921220  92.7508280  78.1787230
  46.5608500  91.5547960  79.1063060  37.9338770  91.1008420  87.1818660
  37.5402160  91.9483630  87.3891440  37.2457170  90.4634790  87.3727300
  44.5083820  91.1843390  90.2515400  43.8182140  90.9915590  90.8861490
  45.2516120  91.4678030  90.7839700  35.2355820  89.0236880  81.2148740
  34.9468870  89.5939740  81.9273720  35.9801580  88.5441330  81.5779970
  35.4226050  92.9657000  72.4251460  35.3400720  93.9087760  72.5666450
  35.0709110  92.8231910  71.5463810  46.7846790  95.0241830  83.0869320
  46.0527910  95.5328640  83.4359420  46.3871130  94.2071810  82.7858100
  43.2224180  91.6996030  81.4921810  43.2260240  91.2585980  80.6426350
  44.1175300  92.0213360  81.5993630  39.0726560  91.5822520  80.4516020
  38.7326610  92.0597750  81.2083070  38.3103880  91.1287640  80.0917120
  43.2844330  92.7008110  74.4828570  43.4057150  92.6594590  75.4314390
  42.8992840  93.5632260  74.3275300  47.2472700  90.4775510  82.4992260
  47.2645440  90.9284160  83.3434110  46.9988280  89.5781150  82.7125700
  42.2965830  95.0109250  73.8811870  41.7282730  94.5627500  73.2547780
  43.0054830  95.3702030  73.3477020  50.6743450  87.8907690  88.3378640
  50.9989220  87.1597350  88.8636620  50.7099960  87.5721330  87.4359630
  43.5232150  95.7597810  83.2387220  43.8902280  95.2856380  83.9848560
  43.3337210  96.6339380  83.5795560  36.3872640  90.5041500  79.3680690
  36.1019560  90.1397170  80.2059310  36.3251500  89.7721960  78.7543830
  41.3131520  94.8006450  85.5571430  41.0088590  95.6798430  85.7821790
  42.2677980  94.8606240  85.5928870  46.0611230  89.3970760  76.0894060
  45.2475840  88.8983930  76.0139370  45.8673180  90.2369010  75.6730410
  48.7759620  93.7690410  74.3856220  49.6639240  94.0807640  74.2107560
  48.7464710  92.8962660  73.9936800  37.3695250  95.6409190  86.7042790
  37.0110190  96.3063040  87.2916130  37.0749810  94.8092740  87.0755410
  40.5708370  96.0993430  89.5882340  40.2708510  96.2450610  88.6910160
  41.3419610  95.5398720  89.4955730  51.0473890  95.0802250  73.8536080
  50.9637610  95.5116470  73.0032520  51.7668080  95.5400600  74.2862900
  35.8803300  95.6400450  73.3277390  36.7498150  95.9225250  73.6113310
  35.3893620  96.4536320  73.2126200  38.9449890  87.3711310  77.9208190
  38.8164520  87.3629210  78.8693110  38.1211910  87.7094400  77.5699200
  35.9443820  89.1302430  87.3814890  35.2302340  89.3299350  87.9867500
  36.3638860  88.3542000  87.7529690  47.4382600  91.6224740  85.1316340
  47.8063420  90.8019950  85.4595910  46.5780800  91.6826630  85.5471990
  50.8044630  90.5781680  75.9403900  50.1757790  90.6827350  75.2262130
  50.3096550  90.7978460  76.7297780  42.7728660  92.8567630  77.3561780
  42.0644810  93.3253970  77.7975390  43.0573140  92.1989640  77.9906970
  44.3984590  94.2764330  85.3554310  44.8969840  94.7510150  86.0206160
  44.5407540  93.3527850  85.5624340  46.8044090  89.5818290  78.7957570
  46.6811870  89.6004420  77.8467080  47.7528650  89.6297230  78.9155970
  40.9763680  91.1652710  74.7312490  41.8254210  91.6022860  74.6652680
  40.6094950  91.4772970  75.5584550  51.6051450  90.4932290  86.1982700
  51.1025050  91.2337690  86.5376510  52.4208110  90.8816290  85.8819490
  49.8973460  95.7365470  79.6444060  48.9563600  95.7515700  79.8191750
  50.2117530  94.9501430  80.0904360  38.5701860  94.8510140  73.8880910
  38.6505450  93.9037650  73.9998310  39.4621610  95.1817020  73.9941570
  36.0972660  96.6725060  89.1237080  36.6011680  96.0932340  89.6953310
  35.3580080  96.9565290  89.6613450  38.1295740  94.8154650  90.0187150
  38.1701080  94.5168520  90.9272380  38.9841240  95.2162260  89.8594670
  40.0701550  93.3946750  87.9861640  39.5398010  92.9037700  87.3584980
  40.7389620  93.8230950  87.4519570  49.4401780  95.2012370  89.7541980
  50.0222550  94.4464690  89.6662460  49.6163550  95.7319810  88.9773460
  40.5573850  90.3609120  88.0658930  40.4630720  89.7429870  87.3409800
  39.9771240  91.0875410  87.8388840  43.3235290  88.9182360  85.0986320
  42.8752590  88.9406620  84.2531870  42.6900490  88.5201380  85.6956620
  46.0658740  95.5452870  87.1036600  46.1854950  94.9494010  87.8431440
  46.9252740  95.5822560  86.6837900  48.4046640  96.0990060  85.6799110
  47.8781860  96.6232680  85.0764250  48.7477980  96.7317450  86.3108840
  40.8033030  93.4883430  72.1248820  40.6022090  92.6250790  72.4862160
  40.6325080  93.4016790  71.1870420  42.8327510  92.0874220  88.3612420
  43.4227200  91.7790070  89.0490240  42.0147750  91.6153970  88.5172320
  47.6520940  91.7040030  88.5945440  46.9636460  91.0421570  88.5295430
  48.3726960  91.2578300  89.0393900  48.2821340  88.2991660  74.6535700
  48.5623630  87.4559560  75.0095120  47.5087070  88.5314770  75.1674450
  39.6015830  90.5884050  72.1126700  39.9041730  90.5951480  71.2045850
  40.3410420  90.2381910  72.6094360  42.8200760  89.5318670  73.0982900
  42.4722760  88.8542660  72.5185350  43.0213530  89.0708180  73.9126290
  36.1606400  96.0606320  79.4947270  35.5055240  95.7917960  78.8506970
  36.9984350  95.9510800  79.0449250  49.1096840  90.8547610  73.7165760
  49.5281720  90.6678590  72.8762420  48.8032900  90.0026660  74.0268690
  52.6086570  95.7671750  77.4141560  52.2330170  94.9999680  76.9822850
  51.8789690  96.1494450  77.9016490  37.1982330  96.4458890  84.0350610
  37.5655370  96.3586290  84.9146630  36.6293150  95.6825440  83.9357470
  51.9986190  94.9143270  87.0481080  51.7672280  94.6856020  86.1479030
  52.2590740  95.8342820  87.0025970  36.7498330  93.3567980  87.9409030
  35.8554380  93.3234740  88.2802740  37.2895880  93.5554770  88.7060280
  50.4374260  90.1399700  89.8260780  51.3144440  90.1483100  90.2094780
  50.4495100  89.4030540  89.2153130  35.3744480  93.2705250  75.4372600
  34.4708560  93.5335450  75.2624260  35.8585100  93.5416420  74.6572560
  51.8837530  93.9929240  80.7148800  52.4075010  93.4991890  80.0838970
  52.4696950  94.1279600  81.4596370  52.0627250  94.0769110  84.2368350
  51.1129960  94.0432650  84.3513340  52.2440260  94.9869220  84.0018120
  37.9171690  92.3270790  73.3466980  38.6263390  91.9054010  72.8614260
  37.2011630  92.3946020  72.7150330  37.5645850  88.3810120  72.3869630
  38.2873980  88.9219060  72.7050850  37.8370370  88.1073540  71.5111170
  51.3737500  93.2502590  76.6541210  51.8696620  93.0173460  77.4390090
  51.1753570  92.4114430  76.2378850  37.2538040  87.6316310  82.2892250
  37.9014230  87.0813690  81.8487410  37.6739880  87.8859460  83.1108060
  52.8024660  91.8863540  79.1878890  52.6923940  91.7319580  80.1261160
  53.5632250  91.3584480  78.9454300  51.1490380  87.8257670  85.6461890
  51.7862600  88.4391810  86.0121080  51.2965270  87.8618330  84.7011120
  53.6914930  89.7171460  72.4285030  54.6164240  89.5852640  72.2203320
  53.6690720  89.7964280  73.3821480  53.7653420  90.4882120  75.0541740
  52.9704920  90.4227240  75.5834650  53.9696700  91.4232760  75.0427090
  37.0070040  87.7871980  85.0317570  36.6584860  88.2435800  85.7975750
  36.6757740  86.8929110  85.1140000  44.5194860  88.9783860  88.5536990
  44.4583750  89.5705690  89.3032400  45.4595240  88.8709820  88.4087250
  47.1569420  88.6353920  88.1929280  47.7709830  88.9533210  87.5310360
  47.7018980  88.1502510  88.8125140  37.6790680  87.3148180  88.3068340
  38.2273670  87.1336230  87.5434450  37.7445990  86.5242290  88.8424650
  47.8977460  87.1986060  84.5198570  47.0237300  87.5321170  84.3171500
  47.7888210  86.7259240  85.3450440  48.8049440  89.4056930  85.9040290
  48.4762800  88.5908690  85.5242020  49.7531740  89.3626740  85.7805980
  45.6452280  88.1155900  83.4591480  44.8624070  88.5901400  83.7388240
  45.3515210  87.2110730  83.3504660  50.1973350  88.8179000  81.5040570
  50.6381440  88.7624100  80.6562170  49.9280940  89.7337010  81.5750750
  52.0611920  88.4494240  79.5149390  52.0000320  87.5055460  79.3680410
  52.8403950  88.5574330  80.0602850  36.9892690  88.4203380  75.9805200
  37.7472050  88.5332260  75.4069230  36.5269860  89.2572580  75.9348630
  43.5306500  90.5342650  78.9707510  42.7181010  90.1599540  78.6303390
  44.0348140  89.7787730  79.2728700  48.0331480  87.1985100  80.2090580
  48.6360850  87.7705310  80.6839100  47.2924470  87.7624540  79.9864480
  51.1766080  87.6006660  75.4830860  51.3716710  88.4990110  75.7498290
  50.3895950  87.3693740  75.9763810  39.3617840  88.9467430  74.5207170
  39.8910600  88.1597230  74.3915120  39.9946160  89.6258620  74.7542700
  41.5555680  88.6842570  77.5752560  40.9258420  87.9829880  77.7422690
  41.0160820  89.4446700  77.3585720  41.6811240  87.9626550  90.0105050
  41.3995510  88.4660150  89.2465870  42.0630940  87.1648300  89.6447180
  48.2826700  87.3780130  90.5885520  48.1692150  87.6974740  91.4837040
  49.0996440  87.7792640  90.2922800  47.1884850  95.3972600  60.9520260
  47.1078900  94.4827210  60.6811970  46.7749270  95.8939670  60.2459970
  37.7460670  92.4473320  57.4947680  36.8577370  92.7889290  57.3927560
  38.0301860  92.2473640  56.6028510  35.7093680  95.0478970  63.3787380
  36.2809790  94.2801170  63.3791020  35.7095220  95.3467730  62.4693990
  36.9518550  90.4563330  65.1656310  36.7721390  89.5589080  65.4459070
  36.5498630  91.0035200  65.8403260  45.7917050  92.6579190  63.0668620
  46.1681870  91.7851070  62.9542290  45.6936560  92.9937890  62.1759060
  39.9222060  91.0304820  58.5286060  40.0288810  91.9308550  58.8354820
  39.0114420  90.9822790  58.2380710  49.5741170  90.1529630  59.9996960
  50.3950790  89.6626200  60.0422440  49.6075250  90.7427290  60.7528800
  37.5705220  92.9523830  63.7738650  38.2515330  93.2162200  64.3926050
  37.2553270  92.1124700  64.1076660  41.7629790  93.9991190  62.8611240
  42.2708010  94.4972160  63.5016260  42.2943030  93.2226390  62.6850600
  53.8640720  92.1696380  66.5640590  53.1592890  92.5578090  66.0455700
  54.1298640  92.8646670  67.1661520  40.0465890  88.6389750  67.1274660
  40.0484330  89.1562140  66.3220560  39.2170200  88.1619930  67.1044590
  49.8102650  92.0930010  62.7724500  49.1058220  92.3814900  63.3527610
  50.1714810  92.9030120  62.4124060  39.7281220  90.3499710  65.1345110
  40.0698030  91.1941760  64.8398980  38.7897030  90.4983450  65.2510450
  52.8789570  91.5384800  63.1633710  51.9314480  91.5723780  63.2949140
  53.2039560  92.3523750  63.5483070  43.4109110  87.8381980  61.4589700
  43.7184090  87.2828870  60.7425200  42.4809810  87.9726440  61.2762690
  45.7989870  95.9030810  58.1949820  44.8719150  95.8368190  58.4238290
  45.9514690  96.8410940  58.0805060  45.7858950  92.1747810  55.1916980
  44.8462620  92.3361770  55.2769440  46.1042210  92.8933490  54.6452970
  49.2713720  93.6435650  66.1150880  48.8584900  94.4689360  66.3690870
  48.5389670  93.0580690  65.9227240  41.4046510  96.4295550  60.9769550
  41.0003510  95.7172800  60.4815450  41.4909630  96.0848790  61.8657590
  40.1175130  93.2038760  64.7568590  40.6689720  93.3134100  63.9821840
  40.6318640  93.5776360  65.4723820  51.5869000  87.9580730  54.0198860
  51.2741660  88.0507560  54.9197930  52.3481470  88.5361760  53.9696290
  38.1051140  95.3240530  58.4776200  37.9848740  96.0502620  57.8657470
  37.7952030  94.5543440  58.0004110  52.7970290  92.6952230  69.9973000
  52.1814560  93.2031900  69.4688460  52.4766710  91.7950560  69.9398940
  40.5714800  88.6675600  61.8599870  40.1282950  89.4485140  61.5284390
  41.1299790  88.9905490  62.5670810  44.8584610  91.5344120  67.4635190
  44.3963980  91.7427140  68.2755130  44.4562720  90.7203470  67.1605860
  49.8589120  92.7553070  68.5931850  49.0082710  92.4558820  68.9140920
  49.6990910  92.9995080  67.6815670  46.9538830  94.2554820  70.6930640
  47.2792240  93.4218570  70.3532870  47.7419160  94.7783340  70.8408970
  43.6873620  88.2886300  56.7405700  43.0627800  88.2846170  57.4659010
  43.6003740  87.4217260  56.3441670  42.6090700  89.2122930  63.7189470
  42.9063030  90.1185760  63.6381490  43.1576260  88.7241710  63.1049040
  40.3629020  93.7909170  59.5881120  40.1369940  93.5746340  60.4927740
  39.5821550  94.2237630  59.2427090  47.5926780  93.7972540  58.1871770
  46.9935670  94.5208340  58.0035390  48.1406390  93.7349320  57.4048220
  42.8028230  94.6894750  70.2541390  42.7071830  93.7489480  70.1041790
  43.6460210  94.9109820  69.8589460  46.1991650  92.4336080  60.2175050
  46.5921220  92.7508280  59.4043740  46.5608500  91.5547960  60.3319570
  37.9338770  91.1008420  68.4075170  37.5402160  91.9483630  68.6147950
  37.2457170  90.4634790  68.5983810  44.5083820  91.1843390  71.4771910
  43.8182140  90.9915590  72.1118000  45.2516120  91.4678030  72.0096210
  35.2355820  89.0236880  62.4405250  34.9468870  89.5939740  63.1530230
  35.9801580  88.5441330  62.8036480  35.4226050  92.9657000  53.6507970
  35.3400720  93.9087760  53.7922960  35.0709110  92.8231910  52.7720320
  46.7846790  95.0241830  64.3125830  46.0527910  95.5328640  64.6615930
  46.3871130  94.2071810  64.0114610  43.2224180  91.6996030  62.7178320
  43.2260240  91.2585980  61.8682860  44.1175300  92.0213360  62.8250140
  39.0726560  91.5822520  61.6772530  38.7326610  92.0597750  62.4339580
  38.3103880  91.1287640  61.3173630  43.2844330  92.7008110  55.7085080
  43.4057150  92.6594590  56.6570900  42.8992840  93.5632260  55.5531810
  47.2472700  90.4775510  63.7248770  47.2645440  90.9284160  64.5690620
  46.9988280  89.5781150  63.9382210  42.2965830  95.0109250  55.1068380
  41.7282730  94.5627500  54.4804290  43.0054830  95.3702030  54.5733530
  50.6743450  87.8907690  69.5635150  50.9989220  87.1597350  70.0893130
  50.7099960  87.5721330  68.6616140  43.5232150  95.7597810  64.4643730
  43.8902280  95.2856380  65.2105070  43.3337210  96.6339380  64.8052070
  36.3872640  90.5041500  60.5937200  36.1019560  90.1397170  61.4315820
  36.3251500  89.7721960  59.9800340  41.3131520  94.8006450  66.7827940
  41.0088590  95.6798430  67.0078300  42.2677980  94.8606240  66.8185380
  46.0611230  89.3970760  57.3150570  45.2475840  88.8983930  57.2395880
  45.8673180  90.2369010  56.8986920  48.7759620  93.7690410  55.6112730
  49.6639240  94.0807640  55.4364070  48.7464710  92.8962660  55.2193310
  37.3695250  95.6409190  67.9299300  37.0110190  96.3063040  68.5172640
  37.0749810  94.8092740  68.3011920  40.5708370  96.0993430  70.8138850
  40.2708510  96.2450610  69.9166670  41.3419610  95.5398720  70.7212240
  51.0473890  95.0802250  55.0792590  50.9637610  95.5116470  54.2289030
  51.7668080  95.5400600  55.5119410  35.8803300  95.6400450  54.5533900
  36.7498150  95.9225250  54.8369820  35.3893620  96.4536320  54.4382710
  38.9449890  87.3711310  59.1464700  38.8164520  87.3629210  60.0949620
  38.1211910  87.7094400  58.7955710  35.9443820  89.1302430  68.6071400
  35.2302340  89.3299350  69.2124010  36.3638860  88.3542000  68.9786200
  47.4382600  91.6224740  66.3572850  47.8063420  90.8019950  66.6852420
  46.5780800  91.6826630  66.7728500  50.8044630  90.5781680  57.1660410
  50.1757790  90.6827350  56.4518640  50.3096550  90.7978460  57.9554290
  42.7728660  92.8567630  58.5818290  42.0644810  93.3253970  59.0231900
  43.0573140  92.1989640  59.2163480  44.3984590  94.2764330  66.5810820
  44.8969840  94.7510150  67.2462670  44.5407540  93.3527850  66.7880850
  46.8044090  89.5818290  60.0214080  46.6811870  89.6004420  59.0723590
  47.7528650  89.6297230  60.1412480  40.9763680  91.1652710  55.9569000
  41.8254210  91.6022860  55.8909190  40.6094950  91.4772970  56.7841060
  51.6051450  90.4932290  67.4239210  51.1025050  91.2337690  67.7633020
  52.4208110  90.8816290  67.1076000  49.8973460  95.7365470  60.8700570
  48.9563600  95.7515700  61.0448260  50.2117530  94.9501430  61.3160870
  38.5701860  94.8510140  55.1137420  38.6505450  93.9037650  55.2254820
  39.4621610  95.1817020  55.2198080  36.0972660  96.6725060  70.3493590
  36.6011680  96.0932340  70.9209820  35.3580080  96.9565290  70.8869960
  38.1295740  94.8154650  71.2443660  38.1701080  94.5168520  72.1528890
  38.9841240  95.2162260  71.0851180  40.0701550  93.3946750  69.2118150
  39.5398010  92.9037700  68.5841490  40.7389620  93.8230950  68.6776080
  49.4401780  95.2012370  70.9798490  50.0222550  94.4464690  70.8918970
  49.6163550  95.7319810  70.2029970  40.5573850  90.3609120  69.2915440
  40.4630720  89.7429870  68.5666310  39.9771240  91.0875410  69.0645350
  43.3235290  88.9182360  66.3242830  42.8752590  88.9406620  65.4788380
  42.6900490  88.5201380  66.9213130  46.0658740  95.5452870  68.3293110
  46.1854950  94.9494010  69.0687950  46.9252740  95.5822560  67.9094410
  48.4046640  96.0990060  66.9055620  47.8781860  96.6232680  66.3020760
  48.7477980  96.7317450  67.5365350  40.8033030  93.4883430  53.3505330
  40.6022090  92.6250790  53.7118670  40.6325080  93.4016790  52.4126930
  42.8327510  92.0874220  69.5868930  43.4227200  91.7790070  70.2746750
  42.0147750  91.6153970  69.7428830  47.6520940  91.7040030  69.8201950
  46.9636460  91.0421570  69.7551940  48.3726960  91.2578300  70.2650410
  48.2821340  88.2991660  55.8792210  48.5623630  87.4559560  56.2351630
  47.5087070  88.5314770  56.3930960  39.6015830  90.5884050  53.3383210
  39.9041730  90.5951480  52.4302360  40.3410420  90.2381910  53.8350870
  42.8200760  89.5318670  54.3239410  42.4722760  88.8542660  53.7441860
  43.0213530  89.0708180  55.1382800  36.1606400  96.0606320  60.7203780
  35.5055240  95.7917960  60.0763480  36.9984350  95.9510800  60.2705760
  49.1096840  90.8547610  54.9422270  49.5281720  90.6678590  54.1018930
  48.8032900  90.0026660  55.2525200  52.6086570  95.7671750  58.6398070
  52.2330170  94.9999680  58.2079360  51.8789690  96.1494450  59.1273000
  37.1982330  96.4458890  65.2607120  37.5655370  96.3586290  66.1403140
  36.6293150  95.6825440  65.1613980  51.9986190  94.9143270  68.2737590
  51.7672280  94.6856020  67.3735540  52.2590740  95.8342820  68.2282480
  36.7498330  93.3567980  69.1665540  35.8554380  93.3234740  69.5059250
  37.2895880  93.5554770  69.9316790  50.4374260  90.1399700  71.0517290
  51.3144440  90.1483100  71.4351290  50.4495100  89.4030540  70.4409640
  35.3744480  93.2705250  56.6629110  34.4708560  93.5335450  56.4880770
  35.8585100  93.5416420  55.8829070  51.8837530  93.9929240  61.9405310
  52.4075010  93.4991890  61.3095480  52.4696950  94.1279600  62.6852880
  52.0627250  94.0769110  65.4624860  51.1129960  94.0432650  65.5769850
  52.2440260  94.9869220  65.2274630  37.9171690  92.3270790  54.5723490
  38.6263390  91.9054010  54.0870770  37.2011630  92.3946020  53.9406840
  37.5645850  88.3810120  53.6126140  38.2873980  88.9219060  53.9307360
  37.8370370  88.1073540  52.7367680  51.3737500  93.2502590  57.8797720
  51.8696620  93.0173460  58.6646600  51.1753570  92.4114430  57.4635360
  37.2538040  87.6316310  63.5148760  37.9014230  87.0813690  63.0743920
  37.6739880  87.8859460  64.3364570  52.8024660  91.8863540  60.4135400
  52.6923940  91.7319580  61.3517670  53.5632250  91.3584480  60.1710810
  51.1490380  87.8257670  66.8718400  51.7862600  88.4391810  67.2377590
  51.2965270  87.8618330  65.9267630  53.6914930  89.7171460  53.6541540
  54.6164240  89.5852640  53.4459830  53.6690720  89.7964280  54.6077990
  53.7653420  90.4882120  56.2798250  52.9704920  90.4227240  56.8091160
  53.9696700  91.4232760  56.2683600  37.0070040  87.7871980  66.2574080
  36.6584860  88.2435800  67.0232260  36.6757740  86.8929110  66.3396510
  44.5194860  88.9783860  69.7793500  44.4583750  89.5705690  70.5288910
  45.4595240  88.8709820  69.6343760  47.1569420  88.6353920  69.4185790
  47.7709830  88.9533210  68.7566870  47.7018980  88.1502510  70.0381650
  37.6790680  87.3148180  69.5324850  38.2273670  87.1336230  68.7690960
  37.7445990  86.5242290  70.0681160  47.8977460  87.1986060  65.7455080
  47.0237300  87.5321170  65.5428010  47.7888210  86.7259240  66.5706950
  48.8049440  89.4056930  67.1296800  48.4762800  88.5908690  66.7498530
  49.7531740  89.3626740  67.0062490  45.6452280  88.1155900  64.6847990
  44.8624070  88.5901400  64.9644750  45.3515210  87.2110730  64.5761170
  50.1973350  88.8179000  62.7297080  50.6381440  88.7624100  61.8818680
  49.9280940  89.7337010  62.8007260  52.0611920  88.4494240  60.7405900
  52.0000320  87.5055460  60.5936920  52.8403950  88.5574330  61.2859360
  36.9892690  88.4203380  57.2061710  37.7472050  88.5332260  56.6325740
  36.5269860  89.2572580  57.1605140  43.5306500  90.5342650  60.1964020
  42.7181010  90.1599540  59.8559900  44.0348140  89.7787730  60.4985210
  48.0331480  87.1985100  61.4347090  48.6360850  87.7705310  61.9095610
  47.2924470  87.7624540  61.2120990  51.1766080  87.6006660  56.7087370
  51.3716710  88.4990110  56.9754800  50.3895950  87.3693740  57.2020320
  39.3617840  88.9467430  55.7463680  39.8910600  88.1597230  55.6171630
  39.9946160  89.6258620  55.9799210  41.5555680  88.6842570  58.8009070
  40.9258420  87.9829880  58.9679200  41.0160820  89.4446700  58.5842230
  41.6811240  87.9626550  71.2361560  41.3995510  88.4660150  70.4722380
  42.0630940  87.1648300  70.8703690  48.2826700  87.3780130  71.8142030
  48.1692150  87.6974740  72.7093550  49.0996440  87.7792640  71.5179310
  47.1884850  95.3972600  42.1776770  47.1078900  94.4827210  41.9068480
  46.7749270  95.8939670  41.4716480  37.7460670  92.4473320  38.7204190
  36.8577370  92.7889290  38.6184070  38.0301860  92.2473640  37.8285020
  35.7093680  95.0478970  44.6043890  36.2809790  94.2801170  44.6047530
  35.7095220  95.3467730  43.6950500  36.9518550  90.4563330  46.3912820
  36.7721390  89.5589080  46.6715580  36.5498630  91.0035200  47.0659770
  45.7917050  92.6579190  44.2925130  46.1681870  91.7851070  44.1798800
  45.6936560  92.9937890  43.4015570  39.9222060  91.0304820  39.7542570
  40.0288810  91.9308550  40.0611330  39.0114420  90.9822790  39.4637220
  49.5741170  90.1529630  41.2253470  50.3950790  89.6626200  41.2678950
  49.6075250  90.7427290  41.9785310  37.5705220  92.9523830  44.9995160
  38.2515330  93.2162200  45.6182560  37.2553270  92.1124700  45.3333170
  41.7629790  93.9991190  44.0867750  42.2708010  94.4972160  44.7272770
  42.2943030  93.2226390  43.9107110  53.8640720  92.1696380  47.7897100
  53.1592890  92.5578090  47.2712210  54.1298640  92.8646670  48.3918030
  40.0465890  88.6389750  48.3531170  40.0484330  89.1562140  47.5477070
  39.2170200  88.1619930  48.3301100  49.8102650  92.0930010  43.9981010
  49.1058220  92.3814900  44.5784120  50.1714810  92.9030120  43.6380570
  39.7281220  90.3499710  46.3601620  40.0698030  91.1941760  46.0655490
  38.7897030  90.4983450  46.4766960  52.8789570  91.5384800  44.3890220
  51.9314480  91.5723780  44.5205650  53.2039560  92.3523750  44.7739580
  43.4109110  87.8381980  42.6846210  43.7184090  87.2828870  41.9681710
  42.4809810  87.9726440  42.5019200  45.7989870  95.9030810  39.4206330
  44.8719150  95.8368190  39.6494800  45.9514690  96.8410940  39.3061570
  45.7858950  92.1747810  36.4173490  44.8462620  92.3361770  36.5025950
  46.1042210  92.8933490  35.8709480  49.2713720  93.6435650  47.3407390
  48.8584900  94.4689360  47.5947380  48.5389670  93.0580690  47.1483750
  41.4046510  96.4295550  42.2026060  41.0003510  95.7172800  41.7071960
  41.4909630  96.0848790  43.0914100  40.1175130  93.2038760  45.9825100
  40.6689720  93.3134100  45.2078350  40.6318640  93.5776360  46.6980330
  51.5869000  87.9580730  35.2455370  51.2741660  88.0507560  36.1454440
  52.3481470  88.5361760  35.1952800  38.1051140  95.3240530  39.7032710
  37.9848740  96.0502620  39.0913980  37.7952030  94.5543440  39.2260620
  52.7970290  92.6952230  51.2229510  52.1814560  93.2031900  50.6944970
  52.4766710  91.7950560  51.1655450  40.5714800  88.6675600  43.0856380
  40.1282950  89.4485140  42.7540900  41.1299790  88.9905490  43.7927320
  44.8584610  91.5344120  48.6891700  44.3963980  91.7427140  49.5011640
  44.4562720  90.7203470  48.3862370  49.8589120  92.7553070  49.8188360
  49.0082710  92.4558820  50.1397430  49.6990910  92.9995080  48.9072180
  46.9538830  94.2554820  51.9187150  47.2792240  93.4218570  51.5789380
  47.7419160  94.7783340  52.0665480  43.6873620  88.2886300  37.9662210
  43.0627800  88.2846170  38.6915520  43.6003740  87.4217260  37.5698180
  42.6090700  89.2122930  44.9445980  42.9063030  90.1185760  44.8638000
  43.1576260  88.7241710  44.3305550  40.3629020  93.7909170  40.8137630
  40.1369940  93.5746340  41.7184250  39.5821550  94.2237630  40.4683600
  47.5926780  93.7972540  39.4128280  46.9935670  94.5208340  39.2291900
  48.1406390  93.7349320  38.6304730  42.8028230  94.6894750  51.4797900
  42.7071830  93.7489480  51.3298300  43.6460210  94.9109820  51.0845970
  46.1991650  92.4336080  41.4431560  46.5921220  92.7508280  40.6300250
  46.5608500  91.5547960  41.5576080  37.9338770  91.1008420  49.6331680
  37.5402160  91.9483630  49.8404460  37.2457170  90.4634790  49.8240320
  44.5083820  91.1843390  52.7028420  43.8182140  90.9915590  53.3374510
  45.2516120  91.4678030  53.2352720  35.2355820  89.0236880  43.6661760
  34.9468870  89.5939740  44.3786740  35.9801580  88.5441330  44.0292990
  35.4226050  92.9657000  34.8764480  35.3400720  93.9087760  35.0179470
  35.0709110  92.8231910  33.9976830  46.7846790  95.0241830  45.5382340
  46.0527910  95.5328640  45.8872440  46.3871130  94.2071810  45.2371120
  43.2224180  91.6996030  43.9434830  43.2260240  91.2585980  43.0939370
  44.1175300  92.0213360  44.0506650  39.0726560  91.5822520  42.9029040
  38.7326610  92.0597750  43.6596090  38.3103880  91.1287640  42.5430140
  43.2844330  92.7008110  36.9341590  43.4057150  92.6594590  37.8827410
  42.8992840  93.5632260  36.7788320  47.2472700  90.4775510  44.9505280
  47.2645440  90.9284160  45.7947130  46.9988280  89.5781150  45.1638720
  42.2965830  95.0109250  36.3324890  41.7282730  94.5627500  35.7060800
  43.0054830  95.3702030  35.7990040  50.6743450  87.8907690  50.7891660
  50.9989220  87.1597350  51.3149640  50.7099960  87.5721330  49.8872650
  43.5232150  95.7597810  45.6900240  43.8902280  95.2856380  46.4361580
  43.3337210  96.6339380  46.0308580  36.3872640  90.5041500  41.8193710
  36.1019560  90.1397170  42.6572330  36.3251500  89.7721960  41.2056850
  41.3131520  94.8006450  48.0084450  41.0088590  95.6798430  48.2334810
  42.2677980  94.8606240  48.0441890  46.0611230  89.3970760  38.5407080
  45.2475840  88.8983930  38.4652390  45.8673180  90.2369010  38.1243430
  48.7759620  93.7690410  36.8369240  49.6639240  94.0807640  36.6620580
  48.7464710  92.8962660  36.4449820  37.3695250  95.6409190  49.1555810
  37.0110190  96.3063040  49.7429150  37.0749810  94.8092740  49.5268430
  40.5708370  96.0993430  52.0395360  40.2708510  96.2450610  51.1423180
  41.3419610  95.5398720  51.9468750  51.0473890  95.0802250  36.3049100
  50.9637610  95.5116470  35.4545540  51.7668080  95.5400600  36.7375920
  35.8803300  95.6400450  35.7790410  36.7498150  95.9225250  36.0626330
  35.3893620  96.4536320  35.6639220  38.9449890  87.3711310  40.3721210
  38.8164520  87.3629210  41.3206130  38.1211910  87.7094400  40.0212220
  35.9443820  89.1302430  49.8327910  35.2302340  89.3299350  50.4380520
  36.3638860  88.3542000  50.2042710  47.4382600  91.6224740  47.5829360
  47.8063420  90.8019950  47.9108930  46.5780800  91.6826630  47.9985010
  50.8044630  90.5781680  38.3916920  50.1757790  90.6827350  37.6775150
  50.3096550  90.7978460  39.1810800  42.7728660  92.8567630  39.8074800
  42.0644810  93.3253970  40.2488410  43.0573140  92.1989640  40.4419990
  44.3984590  94.2764330  47.8067330  44.8969840  94.7510150  48.4719180
  44.5407540  93.3527850  48.0137360  46.8044090  89.5818290  41.2470590
  46.6811870  89.6004420  40.2980100  47.7528650  89.6297230  41.3668990
  40.9763680  91.1652710  37.1825510  41.8254210  91.6022860  37.1165700
  40.6094950  91.4772970  38.0097570  51.6051450  90.4932290  48.6495720
  51.1025050  91.2337690  48.9889530  52.4208110  90.8816290  48.3332510
  49.8973460  95.7365470  42.0957080  48.9563600  95.7515700  42.2704770
  50.2117530  94.9501430  42.5417380  38.5701860  94.8510140  36.3393930
  38.6505450  93.9037650  36.4511330  39.4621610  95.1817020  36.4454590
  36.0972660  96.6725060  51.5750100  36.6011680  96.0932340  52.1466330
  35.3580080  96.9565290  52.1126470  38.1295740  94.8154650  52.4700170
  38.1701080  94.5168520  53.3785400  38.9841240  95.2162260  52.3107690
  40.0701550  93.3946750  50.4374660  39.5398010  92.9037700  49.8098000
  40.7389620  93.8230950  49.9032590  49.4401780  95.2012370  52.2055000
  50.0222550  94.4464690  52.1175480  49.6163550  95.7319810  51.4286480
  40.5573850  90.3609120  50.5171950  40.4630720  89.7429870  49.7922820
  39.9771240  91.0875410  50.2901860  43.3235290  88.9182360  47.5499340
  42.8752590  88.9406620  46.7044890  42.6900490  88.5201380  48.1469640
  46.0658740  95.5452870  49.5549620  46.1854950  94.9494010  50.2944460
  46.9252740  95.5822560  49.1350920  48.4046640  96.0990060  48.1312130
  47.8781860  96.6232680  47.5277270  48.7477980  96.7317450  48.7621860
  40.8033030  93.4883430  34.5761840  40.6022090  92.6250790  34.9375180
  40.6325080  93.4016790  33.6383440  42.8327510  92.0874220  50.8125440
  43.4227200  91.7790070  51.5003260  42.0147750  91.6153970  50.9685340
  47.6520940  91.7040030  51.0458460  46.9636460  91.0421570  50.9808450
  48.3726960  91.2578300  51.4906920  48.2821340  88.2991660  37.1048720
  48.5623630  87.4559560  37.4608140  47.5087070  88.5314770  37.6187470
  39.6015830  90.5884050  34.5639720  39.9041730  90.5951480  33.6558870
  40.3410420  90.2381910  35.0607380  42.8200760  89.5318670  35.5495920
  42.4722760  88.8542660  34.9698370  43.0213530  89.0708180  36.3639310
  36.1606400  96.0606320  41.9460290  35.5055240  95.7917960  41.3019990
  36.9984350  95.9510800  41.4962270  49.1096840  90.8547610  36.1678780
  49.5281720  90.6678590  35.3275440  48.8032900  90.0026660  36.4781710
  52.6086570  95.7671750  39.8654580  52.2330170  94.9999680  39.4335870
  51.8789690  96.1494450  40.3529510  37.1982330  96.4458890  46.4863630
  37.5655370  96.3586290  47.3659650  36.6293150  95.6825440  46.3870490
  51.9986190  94.9143270  49.4994100  51.7672280  94.6856020  48.5992050
  52.2590740  95.8342820  49.4538990  36.7498330  93.3567980  50.3922050
  35.8554380  93.3234740  50.7315760  37.2895880  93.5554770  51.1573300
  50.4374260  90.1399700  52.2773800  51.3144440  90.1483100  52.6607800
  50.4495100  89.4030540  51.6666150  35.3744480  93.2705250  37.8885620
  34.4708560  93.5335450  37.7137280  35.8585100  93.5416420  37.1085580
  51.8837530  93.9929240  43.1661820  52.4075010  93.4991890  42.5351990
  52.4696950  94.1279600  43.9109390  52.0627250  94.0769110  46.6881370
  51.1129960  94.0432650  46.8026360  52.2440260  94.9869220  46.4531140
  37.9171690  92.3270790  35.7980000  38.6263390  91.9054010  35.3127280
  37.2011630  92.3946020  35.1663350  37.5645850  88.3810120  34.8382650
  38.2873980  88.9219060  35.1563870  37.8370370  88.1073540  33.9624190
  51.3737500  93.2502590  39.1054230  51.8696620  93.0173460  39.8903110
  51.1753570  92.4114430  38.6891870  37.2538040  87.6316310  44.7405270
  37.9014230  87.0813690  44.3000430  37.6739880  87.8859460  45.5621080
  52.8024660  91.8863540  41.6391910  52.6923940  91.7319580  42.5774180
  53.5632250  91.3584480  41.3967320  51.1490380  87.8257670  48.0974910
  51.7862600  88.4391810  48.4634100  51.2965270  87.8618330  47.1524140
  53.6914930  89.7171460  34.8798050  54.6164240  89.5852640  34.6716340
  53.6690720  89.7964280  35.8334500  53.7653420  90.4882120  37.5054760
  52.9704920  90.4227240  38.0347670  53.9696700  91.4232760  37.4940110
  37.0070040  87.7871980  47.4830590  36.6584860  88.2435800  48.2488770
  36.6757740  86.8929110  47.5653020  44.5194860  88.9783860  51.0050010
  44.4583750  89.5705690  51.7545420  45.4595240  88.8709820  50.8600270
  47.1569420  88.6353920  50.6442300  47.7709830  88.9533210  49.9823380
  47.7018980  88.1502510  51.2638160  37.6790680  87.3148180  50.7581360
  38.2273670  87.1336230  49.9947470  37.7445990  86.5242290  51.2937670
  47.8977460  87.1986060  46.9711590  47.0237300  87.5321170  46.7684520
  47.7888210  86.7259240  47.7963460  48.8049440  89.4056930  48.3553310
  48.4762800  88.5908690  47.9755040  49.7531740  89.3626740  48.2319000
  45.6452280  88.1155900  45.9104500  44.8624070  88.5901400  46.1901260
  45.3515210  87.2110730  45.8017680  50.1973350  88.8179000  43.9553590
  50.6381440  88.7624100  43.1075190  49.9280940  89.7337010  44.0263770
  52.0611920  88.4494240  41.9662410  52.0000320  87.5055460  41.8193430
  52.8403950  88.5574330  42.5115870  36.9892690  88.4203380  38.4318220
  37.7472050  88.5332260  37.8582250  36.5269860  89.2572580  38.3861650
  43.5306500  90.5342650  41.4220530  42.7181010  90.1599540  41.0816410
  44.0348140  89.7787730  41.7241720  48.0331480  87.1985100  42.6603600
  48.6360850  87.7705310  43.1352120  47.2924470  87.7624540  42.4377500
  51.1766080  87.6006660  37.9343880  51.3716710  88.4990110  38.2011310
  50.3895950  87.3693740  38.4276830  39.3617840  88.9467430  36.9720190
  39.8910600  88.1597230  36.8428140  39.9946160  89.6258620  37.2055720
  41.5555680  88.6842570  40.0265580  40.9258420  87.9829880  40.1935710
  41.0160820  89.4446700  39.8098740  41.6811240  87.9626550  52.4618070
  41.3995510  88.4660150  51.6978890  42.0630940  87.1648300  52.0960200
  48.2826700  87.3780130  53.0398540  48.1692150  87.6974740  53.9350060
  49.0996440  87.7792640  52.7435820  47.1884850  95.3972600  23.4033280
  47.1078900  94.4827210  23.1324990  46.7749270  95.8939670  22.6972990
  37.7460670  92.4473320  19.9460700  36.8577370  92.7889290  19.8440580
  38.0301860  92.2473640  19.0541530  35.7093680  95.0478970  25.8300400
  36.2809790  94.2801170  25.8304040  35.7095220  95.3467730  24.9207010
  36.9518550  90.4563330  27.6169330  36.7721390  89.5589080  27.8972090
  36.5498630  91.0035200  28.2916280  45.7917050  92.6579190  25.5181640
  46.1681870  91.7851070  25.4055310  45.6936560  92.9937890  24.6272080
  39.9222060  91.0304820  20.9799080  40.0288810  91.9308550  21.2867840
  39.0114420  90.9822790  20.6893730  49.5741170  90.1529630  22.4509980
  50.3950790  89.6626200  22.4935460  49.6075250  90.7427290  23.2041820
  37.5705220  92.9523830  26.2251670  38.2515330  93.2162200  26.8439070
  37.2553270  92.1124700  26.5589680  41.7629790  93.9991190  25.3124260
  42.2708010  94.4972160  25.9529280  42.2943030  93.2226390  25.1363620
  53.8640720  92.1696380  29.0153610  53.1592890  92.5578090  28.4968720
  54.1298640  92.8646670  29.6174540  40.0465890  88.6389750  29.5787680
  40.0484330  89.1562140  28.7733580  39.2170200  88.1619930  29.5557610
  49.8102650  92.0930010  25.2237520  49.1058220  92.3814900  25.8040630
  50.1714810  92.9030120  24.8637080  39.7281220  90.3499710  27.5858130
  40.0698030  91.1941760  27.2912000  38.7897030  90.4983450  27.7023470
  52.8789570  91.5384800  25.6146730  51.9314480  91.5723780  25.7462160
  53.2039560  92.3523750  25.9996090  43.4109110  87.8381980  23.9102720
  43.7184090  87.2828870  23.1938220  42.4809810  87.9726440  23.7275710
  45.7989870  95.9030810  20.6462840  44.8719150  95.8368190  20.8751310
  45.9514690  96.8410940  20.5318080  45.7858950  92.1747810  17.6430000
  44.8462620  92.3361770  17.7282460  46.1042210  92.8933490  17.0965990
  49.2713720  93.6435650  28.5663900  48.8584900  94.4689360  28.8203890
  48.5389670  93.0580690  28.3740260  41.4046510  96.4295550  23.4282570
  41.0003510  95.7172800  22.9328470  41.4909630  96.0848790  24.3170610
  40.1175130  93.2038760  27.2081610  40.6689720  93.3134100  26.4334860
  40.6318640  93.5776360  27.9236840  51.5869000  87.9580730  16.4711880
  51.2741660  88.0507560  17.3710950  52.3481470  88.5361760  16.4209310
  38.1051140  95.3240530  20.9289220  37.9848740  96.0502620  20.3170490
  37.7952030  94.5543440  20.4517130  52.7970290  92.6952230  32.4486020
  52.1814560  93.2031900  31.9201480  52.4766710  91.7950560  32.3911960
  40.5714800  88.6675600  24.3112890  40.1282950  89.4485140  23.9797410
  41.1299790  88.9905490  25.0183830  44.8584610  91.5344120  29.9148210
  44.3963980  91.7427140  30.7268150  44.4562720  90.7203470  29.6118880
  49.8589120  92.7553070  31.0444870  49.0082710  92.4558820  31.3653940
  49.6990910  92.9995080  30.1328690  46.9538830  94.2554820  33.1443660
  47.2792240  93.4218570  32.8045890  47.7419160  94.7783340  33.2921990
  43.6873620  88.2886300  19.1918720  43.0627800  88.2846170  19.9172030
  43.6003740  87.4217260  18.7954690  42.6090700  89.2122930  26.1702490
  42.9063030  90.1185760  26.0894510  43.1576260  88.7241710  25.5562060
  40.3629020  93.7909170  22.0394140  40.1369940  93.5746340  22.9440760
  39.5821550  94.2237630  21.6940110  47.5926780  93.7972540  20.6384790
  46.9935670  94.5208340  20.4548410  48.1406390  93.7349320  19.8561240
  42.8028230  94.6894750  32.7054410  42.7071830  93.7489480  32.5554810
  43.6460210  94.9109820  32.3102480  46.1991650  92.4336080  22.6688070
  46.5921220  92.7508280  21.8556760  46.5608500  91.5547960  22.7832590
  37.9338770  91.1008420  30.8588190  37.5402160  91.9483630  31.0660970
  37.2457170  90.4634790  31.0496830  44.5083820  91.1843390  33.9284930
  43.8182140  90.9915590  34.5631020  45.2516120  91.4678030  34.4609230
  35.2355820  89.0236880  24.8918270  34.9468870  89.5939740  25.6043250
  35.9801580  88.5441330  25.2549500  35.4226050  92.9657000  16.1020990
  35.3400720  93.9087760  16.2435980  35.0709110  92.8231910  15.2233340
  46.7846790  95.0241830  26.7638850  46.0527910  95.5328640  27.1128950
  46.3871130  94.2071810  26.4627630  43.2224180  91.6996030  25.1691340
  43.2260240  91.2585980  24.3195880  44.1175300  92.0213360  25.2763160
  39.0726560  91.5822520  24.1285550  38.7326610  92.0597750  24.8852600
  38.3103880  91.1287640  23.7686650  43.2844330  92.7008110  18.1598100
  43.4057150  92.6594590  19.1083920  42.8992840  93.5632260  18.0044830
  47.2472700  90.4775510  26.1761790  47.2645440  90.9284160  27.0203640
  46.9988280  89.5781150  26.3895230  42.2965830  95.0109250  17.5581400
  41.7282730  94.5627500  16.9317310  43.0054830  95.3702030  17.0246550
  50.6743450  87.8907690  32.0148170  50.9989220  87.1597350  32.5406150
  50.7099960  87.5721330  31.1129160  43.5232150  95.7597810  26.9156750
  43.8902280  95.2856380  27.6618090  43.3337210  96.6339380  27.2565090
  36.3872640  90.5041500  23.0450220  36.1019560  90.1397170  23.8828840
  36.3251500  89.7721960  22.4313360  41.3131520  94.8006450  29.2340960
  41.0088590  95.6798430  29.4591320  42.2677980  94.8606240  29.2698400
  46.0611230  89.3970760  19.7663590  45.2475840  88.8983930  19.6908900
  45.8673180  90.2369010  19.3499940  48.7759620  93.7690410  18.0625750
  49.6639240  94.0807640  17.8877090  48.7464710  92.8962660  17.6706330
  37.3695250  95.6409190  30.3812320  37.0110190  96.3063040  30.9685660
  37.0749810  94.8092740  30.7524940  40.5708370  96.0993430  33.2651870
  40.2708510  96.2450610  32.3679690  41.3419610  95.5398720  33.1725260
  51.0473890  95.0802250  17.5305610  50.9637610  95.5116470  16.6802050
  51.7668080  95.5400600  17.9632430  35.8803300  95.6400450  17.0046920
  36.7498150  95.9225250  17.2882840  35.3893620  96.4536320  16.8895730
  38.9449890  87.3711310  21.5977720  38.8164520  87.3629210  22.5462640
  38.1211910  87.7094400  21.2468730  35.9443820  89.1302430  31.0584420
  35.2302340  89.3299350  31.6637030  36.3638860  88.3542000  31.4299220
  47.4382600  91.6224740  28.8085870  47.8063420  90.8019950  29.1365440
  46.5780800  91.6826630  29.2241520  50.8044630  90.5781680  19.6173430
  50.1757790  90.6827350  18.9031660  50.3096550  90.7978460  20.4067310
  42.7728660  92.8567630  21.0331310  42.0644810  93.3253970  21.4744920
  43.0573140  92.1989640  21.6676500  44.3984590  94.2764330  29.0323840
  44.8969840  94.7510150  29.6975690  44.5407540  93.3527850  29.2393870
  46.8044090  89.5818290  22.4727100  46.6811870  89.6004420  21.5236610
  47.7528650  89.6297230  22.5925500  40.9763680  91.1652710  18.4082020
  41.8254210  91.6022860  18.3422210  40.6094950  91.4772970  19.2354080
  51.6051450  90.4932290  29.8752230  51.1025050  91.2337690  30.2146040
  52.4208110  90.8816290  29.5589020  49.8973460  95.7365470  23.3213590
  48.9563600  95.7515700  23.4961280  50.2117530  94.9501430  23.7673890
  38.5701860  94.8510140  17.5650440  38.6505450  93.9037650  17.6767840
  39.4621610  95.1817020  17.6711100  36.0972660  96.6725060  32.8006610
  36.6011680  96.0932340  33.3722840  35.3580080  96.9565290  33.3382980
  38.1295740  94.8154650  33.6956680  38.1701080  94.5168520  34.6041910
  38.9841240  95.2162260  33.5364200  40.0701550  93.3946750  31.6631170
  39.5398010  92.9037700  31.0354510  40.7389620  93.8230950  31.1289100
  49.4401780  95.2012370  33.4311510  50.0222550  94.4464690  33.3431990
  49.6163550  95.7319810  32.6542990  40.5573850  90.3609120  31.7428460
  40.4630720  89.7429870  31.0179330  39.9771240  91.0875410  31.5158370
  43.3235290  88.9182360  28.7755850  42.8752590  88.9406620  27.9301400
  42.6900490  88.5201380  29.3726150  46.0658740  95.5452870  30.7806130
  46.1854950  94.9494010  31.5200970  46.9252740  95.5822560  30.3607430
  48.4046640  96.0990060  29.3568640  47.8781860  96.6232680  28.7533780
  48.7477980  96.7317450  29.9878370  40.8033030  93.4883430  15.8018350
  40.6022090  92.6250790  16.1631690  40.6325080  93.4016790  14.8639950
  42.8327510  92.0874220  32.0381950  43.4227200  91.7790070  32.7259770
  42.0147750  91.6153970  32.1941850  47.6520940  91.7040030  32.2714970
  46.9636460  91.0421570  32.2064960  48.3726960  91.2578300  32.7163430
  48.2821340  88.2991660  18.3305230  48.5623630  87.4559560  18.6864650
  47.5087070  88.5314770  18.8443980  39.6015830  90.5884050  15.7896230
  39.9041730  90.5951480  14.8815380  40.3410420  90.2381910  16.2863890
  42.8200760  89.5318670  16.7752430  42.4722760  88.8542660  16.1954880
  43.0213530  89.0708180  17.5895820  36.1606400  96.0606320  23.1716800
  35.5055240  95.7917960  22.5276500  36.9984350  95.9510800  22.7218780
  49.1096840  90.8547610  17.3935290  49.5281720  90.6678590  16.5531950
  48.8032900  90.0026660  17.7038220  52.6086570  95.7671750  21.0911090
  52.2330170  94.9999680  20.6592380  51.8789690  96.1494450  21.5786020
  37.1982330  96.4458890  27.7120140  37.5655370  96.3586290  28.5916160
  36.6293150  95.6825440  27.6127000  51.9986190  94.9143270  30.7250610
  51.7672280  94.6856020  29.8248560  52.2590740  95.8342820  30.6795500
  36.7498330  93.3567980  31.6178560  35.8554380  93.3234740  31.9572270
  37.2895880  93.5554770  32.3829810  50.4374260  90.1399700  33.5030310
  51.3144440  90.1483100  33.8864310  50.4495100  89.4030540  32.8922660
  35.3744480  93.2705250  19.1142130  34.4708560  93.5335450  18.9393790
  35.8585100  93.5416420  18.3342090  51.8837530  93.9929240  24.3918330
  52.4075010  93.4991890  23.7608500  52.4696950  94.1279600  25.1365900
  52.0627250  94.0769110  27.9137880  51.1129960  94.0432650  28.0282870
  52.2440260  94.9869220  27.6787650  37.9171690  92.3270790  17.0236510
  38.6263390  91.9054010  16.5383790  37.2011630  92.3946020  16.3919860
  37.5645850  88.3810120  16.0639160  38.2873980  88.9219060  16.3820380
  37.8370370  88.1073540  15.1880700  51.3737500  93.2502590  20.3310740
  51.8696620  93.0173460  21.1159620  51.1753570  92.4114430  19.9148380
  37.2538040  87.6316310  25.9661780  37.9014230  87.0813690  25.5256940
  37.6739880  87.8859460  26.7877590  52.8024660  91.8863540  22.8648420
  52.6923940  91.7319580  23.8030690  53.5632250  91.3584480  22.6223830
  51.1490380  87.8257670  29.3231420  51.7862600  88.4391810  29.6890610
  51.2965270  87.8618330  28.3780650  53.6914930  89.7171460  16.1054560
  54.6164240  89.5852640  15.8972850  53.6690720  89.7964280  17.0591010
  53.7653420  90.4882120  18.7311270  52.9704920  90.4227240  19.2604180
  53.9696700  91.4232760  18.7196620  37.0070040  87.7871980  28.7087100
  36.6584860  88.2435800  29.4745280  36.6757740  86.8929110  28.7909530
  44.5194860  88.9783860  32.2306520  44.4583750  89.5705690  32.9801930
  45.4595240  88.8709820  32.0856780  47.1569420  88.6353920  31.8698810
  47.7709830  88.9533210  31.2079890  47.7018980  88.1502510  32.4894670
  37.6790680  87.3148180  31.9837870  38.2273670  87.1336230  31.2203980
  37.7445990  86.5242290  32.5194180  47.8977460  87.1986060  28.1968100
  47.0237300  87.5321170  27.9941030  47.7888210  86.7259240  29.0219970
  48.8049440  89.4056930  29.5809820  48.4762800  88.5908690  29.2011550
  49.7531740  89.3626740  29.4575510  45.6452280  88.1155900  27.1361010
  44.8624070  88.5901400  27.4157770  45.3515210  87.2110730  27.0274190
  50.1973350  88.8179000  25.1810100  50.6381440  88.7624100  24.3331700
  49.9280940  89.7337010  25.2520280  52.0611920  88.4494240  23.1918920
  52.0000320  87.5055460  23.0449940  52.8403950  88.5574330  23.7372380
  36.9892690  88.4203380  19.6574730  37.7472050  88.5332260  19.0838760
  36.5269860  89.2572580  19.6118160  43.5306500  90.5342650  22.6477040
  42.7181010  90.1599540  22.3072920  44.0348140  89.7787730  22.9498230
  48.0331480  87.1985100  23.8860110  48.6360850  87.7705310  24.3608630
  47.2924470  87.7624540  23.6634010  51.1766080  87.6006660  19.1600390
  51.3716710  88.4990110  19.4267820  50.3895950  87.3693740  19.6533340
  39.3617840  88.9467430  18.1976700  39.8910600  88.1597230  18.0684650
  39.9946160  89.6258620  18.4312230  41.5555680  88.6842570  21.2522090
  40.9258420  87.9829880  21.4192220  41.0160820  89.4446700  21.0355250
  41.6811240  87.9626550  33.6874580  41.3995510  88.4660150  32.9235400
  42.0630940  87.1648300  33.3216710  48.2826700  87.3780130  34.2655050
  48.1692150  87.6974740  35.1606570  49.0996440  87.7792640  33.9692330
  47.1884850  95.3972600   4.6289790  47.1078900  94.4827210   4.3581500
  46.7749270  95.8939670   3.9229500  35.7093680  95.0478970   7.0556910
  36.2809790  94.2801170   7.0560550  35.7095220  95.3467730   6.1463520
  36.9518550  90.4563330   8.8425840  36.7721390  89.5589080   9.1228600
  36.5498630  91.0035200   9.5172790  45.7917050  92.6579190   6.7438150
  46.1681870  91.7851070   6.6311820  45.6936560  92.9937890   5.8528590
  39.9222060  91.0304820   2.2055590  40.0288810  91.9308550   2.5124350
  39.0114420  90.9822790   1.9150240  49.5741170  90.1529630   3.6766490
  50.3950790  89.6626200   3.7191970  49.6075250  90.7427290   4.4298330
  37.5705220  92.9523830   7.4508180  38.2515330  93.2162200   8.0695580
  37.2553270  92.1124700   7.7846190  41.7629790  93.9991190   6.5380770
  42.2708010  94.4972160   7.1785790  42.2943030  93.2226390   6.3620130
  53.8640720  92.1696380  10.2410120  53.1592890  92.5578090   9.7225230
  54.1298640  92.8646670  10.8431050  40.0465890  88.6389750  10.8044190
  40.0484330  89.1562140   9.9990090  39.2170200  88.1619930  10.7814120
  49.8102650  92.0930010   6.4494030  49.1058220  92.3814900   7.0297140
  50.1714810  92.9030120   6.0893590  39.7281220  90.3499710   8.8114640
  40.0698030  91.1941760   8.5168510  38.7897030  90.4983450   8.9279980
  52.8789570  91.5384800   6.8403240  51.9314480  91.5723780   6.9718670
  53.2039560  92.3523750   7.2252600  43.4109110  87.8381980   5.1359230
  43.7184090  87.2828870   4.4194730  42.4809810  87.9726440   4.9532220
  45.7989870  95.9030810   1.8719350  44.8719150  95.8368190   2.1007820
  45.9514690  96.8410940   1.7574590  49.2713720  93.6435650   9.7920410
  48.8584900  94.4689360  10.0460400  48.5389670  93.0580690   9.5996770
  41.4046510  96.4295550   4.6539080  41.0003510  95.7172800   4.1584980
  41.4909630  96.0848790   5.5427120  40.1175130  93.2038760   8.4338120
  40.6689720  93.3134100   7.6591370  40.6318640  93.5776360   9.1493350
  38.1051140  95.3240530   2.1545730  37.9848740  96.0502620   1.5427000
  37.7952030  94.5543440   1.6773640  52.7970290  92.6952230  13.6742530
  52.1814560  93.2031900  13.1457990  52.4766710  91.7950560  13.6168470
  40.5714800  88.6675600   5.5369400  40.1282950  89.4485140   5.2053920
  41.1299790  88.9905490   6.2440340  44.8584610  91.5344120  11.1404720
  44.3963980  91.7427140  11.9524660  44.4562720  90.7203470  10.8375390
  49.8589120  92.7553070  12.2701380  49.0082710  92.4558820  12.5910450
  49.6990910  92.9995080  11.3585200  46.9538830  94.2554820  14.3700170
  47.2792240  93.4218570  14.0302400  47.7419160  94.7783340  14.5178500
  42.6090700  89.2122930   7.3959000  42.9063030  90.1185760   7.3151020
  43.1576260  88.7241710   6.7818570  40.3629020  93.7909170   3.2650650
  40.1369940  93.5746340   4.1697270  39.5821550  94.2237630   2.9196620
  42.8028230  94.6894750  13.9310920  42.7071830  93.7489480  13.7811320
  43.6460210  94.9109820  13.5358990  46.1991650  92.4336080   3.8944580
  46.5921220  92.7508280   3.0813270  46.5608500  91.5547960   4.0089100
  37.9338770  91.1008420  12.0844700  37.5402160  91.9483630  12.2917480
  37.2457170  90.4634790  12.2753340  44.5083820  91.1843390  15.1541440
  43.8182140  90.9915590  15.7887530  45.2516120  91.4678030  15.6865740
  35.2355820  89.0236880   6.1174780  34.9468870  89.5939740   6.8299760
  35.9801580  88.5441330   6.4806010  46.7846790  95.0241830   7.9895360
  46.0527910  95.5328640   8.3385460  46.3871130  94.2071810   7.6884140
  43.2224180  91.6996030   6.3947850  43.2260240  91.2585980   5.5452390
  44.1175300  92.0213360   6.5019670  39.0726560  91.5822520   5.3542060
  38.7326610  92.0597750   6.1109110  38.3103880  91.1287640   4.9943160
  47.2472700  90.4775510   7.4018300  47.2645440  90.9284160   8.2460150
  46.9988280  89.5781150   7.6151740  50.6743450  87.8907690  13.2404680
  50.9989220  87.1597350  13.7662660  50.7099960  87.5721330  12.3385670
  43.5232150  95.7597810   8.1413260  43.8902280  95.2856380   8.8874600
  43.3337210  96.6339380   8.4821600  36.3872640  90.5041500   4.2706730
  36.1019560  90.1397170   5.1085350  36.3251500  89.7721960   3.6569870
  41.3131520  94.8006450  10.4597470  41.0088590  95.6798430  10.6847830
  42.2677980  94.8606240  10.4954910  37.3695250  95.6409190  11.6068830
  37.0110190  96.3063040  12.1942170  37.0749810  94.8092740  11.9781450
  40.5708370  96.0993430  14.4908380  40.2708510  96.2450610  13.5936200
  41.3419610  95.5398720  14.3981770  38.9449890  87.3711310   2.8234230
  38.8164520  87.3629210   3.7719150  38.1211910  87.7094400   2.4725240
  35.9443820  89.1302430  12.2840930  35.2302340  89.3299350  12.8893540
  36.3638860  88.3542000  12.6555730  47.4382600  91.6224740  10.0342380
  47.8063420  90.8019950  10.3621950  46.5780800  91.6826630  10.4498030
  42.7728660  92.8567630   2.2587820  42.0644810  93.3253970   2.7001430
  43.0573140  92.1989640   2.8933010  44.3984590  94.2764330  10.2580350
  44.8969840  94.7510150  10.9232200  44.5407540  93.3527850  10.4650380
  46.8044090  89.5818290   3.6983610  46.6811870  89.6004420   2.7493120
  47.7528650  89.6297230   3.8182010  51.6051450  90.4932290  11.1008740
  51.1025050  91.2337690  11.4402550  52.4208110  90.8816290  10.7845530
  49.8973460  95.7365470   4.5470100  48.9563600  95.7515700   4.7217790
  50.2117530  94.9501430   4.9930400  36.0972660  96.6725060  14.0263120
  36.6011680  96.0932340  14.5979350  35.3580080  96.9565290  14.5639490
  38.1295740  94.8154650  14.9213190  38.1701080  94.5168520  15.8298420
  38.9841240  95.2162260  14.7620710  40.0701550  93.3946750  12.8887680
  39.5398010  92.9037700  12.2611020  40.7389620  93.8230950  12.3545610
  49.4401780  95.2012370  14.6568020  50.0222550  94.4464690  14.5688500
  49.6163550  95.7319810  13.8799500  40.5573850  90.3609120  12.9684970
  40.4630720  89.7429870  12.2435840  39.9771240  91.0875410  12.7414880
  43.3235290  88.9182360  10.0012360  42.8752590  88.9406620   9.1557910
  42.6900490  88.5201380  10.5982660  46.0658740  95.5452870  12.0062640
  46.1854950  94.9494010  12.7457480  46.9252740  95.5822560  11.5863940
  48.4046640  96.0990060  10.5825150  47.8781860  96.6232680   9.9790290
  48.7477980  96.7317450  11.2134880  42.8327510  92.0874220  13.2638460
  43.4227200  91.7790070  13.9516280  42.0147750  91.6153970  13.4198360
  47.6520940  91.7040030  13.4971480  46.9636460  91.0421570  13.4321470
  48.3726960  91.2578300  13.9419940  36.1606400  96.0606320   4.3973310
  35.5055240  95.7917960   3.7533010  36.9984350  95.9510800   3.9475290
  52.6086570  95.7671750   2.3167600  52.2330170  94.9999680   1.8848890
  51.8789690  96.1494450   2.8042530  37.1982330  96.4458890   8.9376650
  37.5655370  96.3586290   9.8172670  36.6293150  95.6825440   8.8383510
  51.9986190  94.9143270  11.9507120  51.7672280  94.6856020  11.0505070
  52.2590740  95.8342820  11.9052010  36.7498330  93.3567980  12.8435070
  35.8554380  93.3234740  13.1828780  37.2895880  93.5554770  13.6086320
  50.4374260  90.1399700  14.7286820  51.3144440  90.1483100  15.1120820
  50.4495100  89.4030540  14.1179170  51.8837530  93.9929240   5.6174840
  52.4075010  93.4991890   4.9865010  52.4696950  94.1279600   6.3622410
  52.0627250  94.0769110   9.1394390  51.1129960  94.0432650   9.2539380
  52.2440260  94.9869220   8.9044160  37.2538040  87.6316310   7.1918290
  37.9014230  87.0813690   6.7513450  37.6739880  87.8859460   8.0134100
  52.8024660  91.8863540   4.0904930  52.6923940  91.7319580   5.0287200
  53.5632250  91.3584480   3.8480340  51.1490380  87.8257670  10.5487930
  51.7862600  88.4391810  10.9147120  51.2965270  87.8618330   9.6037160
  37.0070040  87.7871980   9.9343610  36.6584860  88.2435800  10.7001790
  36.6757740  86.8929110  10.0166040  44.5194860  88.9783860  13.4563030
  44.4583750  89.5705690  14.2058440  45.4595240  88.8709820  13.3113290
  47.1569420  88.6353920  13.0955320  47.7709830  88.9533210  12.4336400
  47.7018980  88.1502510  13.7151180  37.6790680  87.3148180  13.2094380
  38.2273670  87.1336230  12.4460490  37.7445990  86.5242290  13.7450690
  47.8977460  87.1986060   9.4224610  47.0237300  87.5321170   9.2197540
  47.7888210  86.7259240  10.2476480  48.8049440  89.4056930  10.8066330
  48.4762800  88.5908690  10.4268060  49.7531740  89.3626740  10.6832020
  45.6452280  88.1155900   8.3617520  44.8624070  88.5901400   8.6414280
  45.3515210  87.2110730   8.2530700  50.1973350  88.8179000   6.4066610
  50.6381440  88.7624100   5.5588210  49.9280940  89.7337010   6.4776790
  52.0611920  88.4494240   4.4175430  52.0000320  87.5055460   4.2706450
  52.8403950  88.5574330   4.9628890  43.5306500  90.5342650   3.8733550
  42.7181010  90.1599540   3.5329430  44.0348140  89.7787730   4.1754740
  48.0331480  87.1985100   5.1116620  48.6360850  87.7705310   5.5865140
  47.2924470  87.7624540   4.8890520  41.5555680  88.6842570   2.4778600
  40.9258420  87.9829880   2.6448730  41.0160820  89.4446700   2.2611760
  41.6811240  87.9626550  14.9131090  41.3995510  88.4660150  14.1491910
  42.0630940  87.1648300  14.5473220  48.2826700  87.3780130  15.4911560
  48.1692150  87.6974740  16.3863080  49.0996440  87.7792640  15.1948840
  47.1884850  76.6229110  98.5007240  47.1078900  75.7083720  98.2298950
  46.7749270  77.1196180  97.7946950  45.3202890  78.4008130 100.3816510
  44.5444990  77.9208570 100.6715080  45.9715820  77.7213780 100.2072670
  39.3368720  78.7127940 101.2592270  38.5053600  78.4576650 101.6588780
  39.9449700  78.7838710 101.9950190  49.3410320  82.8068320  99.1615640
  48.8791850  82.0355560  99.4902810  50.1535870  82.8334390  99.6668090
  39.3169980  82.7468030 101.4550290  39.6198020  81.8565770 101.2760510
  40.0613570  83.3038250 101.2272540  37.7460670  73.6729830  95.0434660
  36.8577370  74.0145800  94.9414540  38.0301860  73.4730150  94.1515490
  35.7093680  76.2735480 100.9274360  36.2809790  75.5057680 100.9278000
  35.7095220  76.5724240 100.0180970  45.5673630  85.0926330  98.7819630
  44.9485070  85.5483830  98.2114070  46.4225410  85.2477790  98.3809330
  44.7611880  81.0765320 100.3886670  44.6920160  80.1355260 100.2275800
  45.5231740  81.1666730 100.9609240  36.9518550  71.6819840 102.7143290
  36.7721390  70.7845590 102.9946050  36.5498630  72.2291710 103.3890240
  45.7917050  73.8835700 100.6155600  46.1681870  73.0107580 100.5029270
  45.6936560  74.2194400  99.7246040  39.9222060  72.2561330  96.0773040
  40.0288810  73.1565060  96.3841800  39.0114420  72.2079300  95.7867690
  49.5741170  71.3786140  97.5483940  50.3950790  70.8882710  97.5909420
  49.6075250  71.9683800  98.3015780  37.5705220  74.1780340 101.3225630
  38.2515330  74.4418710 101.9413030  37.2553270  73.3381210 101.6563640
  41.7629790  75.2247700 100.4098220  42.2708010  75.7228670 101.0503240
  42.2943030  74.4482900 100.2337580  53.8640720  73.3952890 104.1127570
  53.1592890  73.7834600 103.5942680  54.1298640  74.0903180 104.7148500
  40.0465890  69.8646260 104.6761640  40.0484330  70.3818650 103.8707540
  39.2170200  69.3876440 104.6531570  46.4336980  79.9765570  96.1751540
  45.8154250  80.4415020  95.6114260  46.9460230  80.6693050  96.5921050
  41.2968740  79.5041440 102.8535140  40.9638120  80.1310360 103.4956210
  41.4735420  80.0303320 102.0736810  49.8102650  73.3186520 100.3211480
  49.1058220  73.6071410 100.9014590  50.1714810  74.1286630  99.9611040
  39.7281220  71.5756220 102.6832090  40.0698030  72.4198270 102.3885960
  38.7897030  71.7239960 102.7997430  40.5087840  81.4722240 104.6684320
  41.1261840  82.1473320 104.3868770  39.6480960  81.8810220 104.5771820
  35.8020180  80.6622100  93.5491170  35.4248160  81.1509200  92.8176070
  36.0593250  81.3347380  94.1797700  51.4265430  82.9361650 102.5838960
  50.7428950  83.6060760 102.5755630  51.9659720  83.1342300 101.8183820
  52.8789570  72.7641310 100.7120690  51.9314480  72.7980290 100.8436120
  53.2039560  73.5780260 101.0970050  43.4109110  69.0638490  99.0076680
  43.7184090  68.5085380  98.2912180  42.4809810  69.1982950  98.8249670
  48.9624170  84.7805780 101.2984140  48.9751330  84.3768070 100.4306400
  48.4099390  85.5553070 101.1945570  50.2569590  81.5022000  96.3874310
  50.1465920  80.5596330  96.5123730  50.2537840  81.8637640  97.2737070
  48.3609610  79.6835620 102.6266750  48.7778400  79.4695730 101.7920210
  49.0849430  79.9408410 103.1975370  45.7989870  77.1287320  95.7436800
  44.8719150  77.0624700  95.9725270  45.9514690  78.0667450  95.6292040
  45.7858950  73.4004320  92.7403960  44.8462620  73.5618280  92.8256420
  46.1042210  74.1190000  92.1939950  52.3071710  78.0822840 102.7182990
  51.4790340  78.1515930 102.2433120  52.9022190  78.6677150 102.2498820
  49.8287160  78.6907620  96.2472050  49.2099580  78.3527170  95.5998350
  49.8111610  78.0467380  96.9551240  49.2713720  74.8692160 103.6637860
  48.8584900  75.6945870 103.9177850  48.5389670  74.2837200 103.4714220
  41.4046510  77.6552060  98.5256530  41.0003510  76.9429310  98.0302430
  41.4909630  77.3105300  99.4144570  41.8728210  81.3419620 100.6895740
  41.5756500  80.7365090 100.0103520  42.8228030  81.3796930 100.5785100
  40.1175130  74.4295270 102.3055570  40.6689720  74.5390610 101.5308820
  40.6318640  74.8032870 103.0210800  49.9613820  84.9151490 104.3518840
  49.4844380  85.7223680 104.1591450  49.2775610  84.2629820 104.5045050
  48.0051860  77.9294430  93.2544800  48.4445140  77.0916860  93.1082620
  48.7180280  78.5623830  93.3408940  46.1147240  82.8690500  97.2226040
  46.5543150  83.6114830  96.8081430  46.0534130  83.1117070  98.1465000
  51.5869000  69.1837240  91.5685840  51.2741660  69.2764070  92.4684910
  52.3481470  69.7618270  91.5183270  38.1051140  76.5497040  96.0263180
  37.9848740  77.2759130  95.4144450  37.7952030  75.7799950  95.5491090
  35.7436510  79.7212180 101.8331820  35.8216930  79.8560950 100.8887540
  36.3578190  79.0128070 102.0259940  36.9884140  81.4212370  98.2438000
  36.5812220  81.5626960  97.3891600  37.8797150  81.1372530  98.0409210
  48.7817420  85.8559620  94.5789050  48.6218560  85.5662560  95.4770880
  48.6164130  85.0799750  94.0434280  41.2605800  85.6358150  96.3560670
  41.0848280  84.7193690  96.1428470  40.4061540  85.9945440  96.5958470
  48.4843550  83.3647180  93.1387050  47.7908710  83.3624470  92.4789330
  49.2266410  82.9406500  92.7081220  48.0493480  84.9909890  97.2135540
  48.5050430  84.2099270  97.5274160  48.3886000  85.7016710  97.7576720
  40.5714800  69.8932110  99.4086850  40.1282950  70.6741650  99.0771370
  41.1299790  70.2162000 100.1157790  43.6873620  69.5142810  94.2892680
  43.0627800  69.5102680  95.0145990  43.6003740  68.6473770  93.8928650
  42.6090700  70.4379440 101.2676450  42.9063030  71.3442270 101.1868470
  43.1576260  69.9498220 100.6536020  40.3629020  75.0165680  97.1368100
  40.1369940  74.8002850  98.0414720  39.5821550  75.4494140  96.7914070
  47.5926780  75.0229050  95.7358750  46.9935670  75.7464850  95.5522370
  48.1406390  74.9605830  94.9535200  46.1991650  73.6592590  97.7662030
  46.5921220  73.9764790  96.9530720  46.5608500  72.7804470  97.8806550
  35.2355820  70.2493390  99.9892230  34.9468870  70.8196250 100.7017210
  35.9801580  69.7697840 100.3523460  35.4226050  74.1913510  91.1994950
  35.3400720  75.1344270  91.3409940  35.0709110  74.0488420  90.3207300
  46.7846790  76.2498340 101.8612810  46.0527910  76.7585150 102.2102910
  46.3871130  75.4328320 101.5601590  43.2224180  72.9252540 100.2665300
  43.2260240  72.4842490  99.4169840  44.1175300  73.2469870 100.3737120
  39.0726560  72.8079030  99.2259510  38.7326610  73.2854260  99.9826560
  38.3103880  72.3544150  98.8660610  43.2844330  73.9264620  93.2572060
  43.4057150  73.8851100  94.2057880  42.8992840  74.7888770  93.1018790
  47.2472700  71.7032020 101.2735750  47.2645440  72.1540670 102.1177600
  46.9988280  70.8037660 101.4869190  42.2965830  76.2365760  92.6555360
  41.7282730  75.7884010  92.0291270  43.0054830  76.5958540  92.1220510
  43.5232150  76.9854320 102.0130710  43.8902280  76.5112890 102.7592050
  43.3337210  77.8595890 102.3539050  36.3872640  71.7298010  98.1424180
  36.1019560  71.3653680  98.9802800  36.3251500  70.9978470  97.5287320
  41.3131520  76.0262960 104.3314920  41.0088590  76.9054940 104.5565280
  42.2677980  76.0862750 104.3672360  39.8413310  80.2323950  94.9281770
  39.0675570  79.6921570  94.7680490  40.5707940  79.7130560  94.5899530
  50.6001290  79.2289310 100.7208160  51.3200410  79.7244600 100.3304270
  50.3983110  78.5507200 100.0762030  46.0611230  70.6227270  94.8637550
  45.2475840  70.1240440  94.7882860  45.8673180  71.4625520  94.4473900
  48.7759620  74.9946920  93.1599710  49.6639240  75.3064150  92.9851050
  48.7464710  74.1219170  92.7680290  39.8850710  79.9004330  98.5660580
  40.4029380  79.0972590  98.5117470  39.4334730  79.8383470  99.4077410
  44.7720210  81.1670610  93.8387880  45.1135910  81.9112840  93.3431200
  43.9432920  81.4801730  94.2012710  51.0473890  76.3058760  92.6279570
  50.9637610  76.7372980  91.7776010  51.7668080  76.7657110  93.0606390
  52.0761140  83.1601020  95.3561700  51.4337300  82.5056640  95.6305420
  51.6891800  83.5656110  94.5802370  47.6547620  80.4886450  99.2033390
  48.0071440  79.8914580  98.5434760  46.7709950  80.1630680  99.3741640
  43.7410900  81.2484140  96.6103800  44.4282030  81.7953350  96.9911390
  42.9543320  81.7924870  96.6453410  35.8803300  76.8656960  92.1020880
  36.7498150  77.1481760  92.3856800  35.3893620  77.6792830  91.9869690
  43.0438110  78.2530170  96.2229160  43.5000890  79.0635420  96.4489350
  42.6926320  77.9353310  97.0547650  45.3470720  83.7636510 103.4521460
  45.9912940  83.9695890 104.1294880  45.7100160  83.0024910 102.9992310
  38.9449890  68.5967820  96.6951680  38.8164520  68.5885720  97.6436600
  38.1211910  68.9350910  96.3442690  46.6202800  81.7668860 102.1698910
  47.2625030  81.0662020 102.2831080  47.1452150  82.5467300 101.9895800
  50.4658520  82.0517480  91.8938050  50.2396100  81.3347920  92.4862690
  50.0754720  81.8029920  91.0559800  36.2474550  86.0784340  92.6682510
  36.6072190  86.6773680  92.0139780  36.1066890  86.6244230  93.4417540
  50.0474770  79.9689420  93.5552210  49.7596470  80.4302110  94.3430090
  50.8426940  79.5087190  93.8236430  42.2643170  83.4615540  93.4856180
  42.2553270  84.1945230  92.8700690  41.3441530  83.2147120  93.5783140
  37.8649810  78.6830430  94.2302940  37.2577760  79.4229330  94.2398240
  38.3399160  78.7729790  93.4041140  47.4382600  72.8481250 103.9059830
  47.8063420  72.0276460 104.2339400  46.5780800  72.9083140 104.3215480
  50.8044630  71.8038190  94.7147390  50.1757790  71.9083860  94.0005620
  50.3096550  72.0234970  95.5041270  45.2502770  83.5243780  92.1481370
  45.3514750  83.3207770  91.2183350  44.3504510  83.2702060  92.3529150
  42.7728660  74.0824140  96.1305270  42.0644810  74.5510480  96.5718880
  43.0573140  73.4246150  96.7650460  44.3984590  75.5020840 104.1297800
  44.8969840  75.9766660 104.7949650  44.5407540  74.5784360 104.3367830
  46.8044090  70.8074800  97.5701060  46.6811870  70.8260930  96.6210570
  47.7528650  70.8553740  97.6899460  43.8920880  86.0430100  96.8429040
  44.1462380  86.0051490  95.9208410  42.9433360  85.9163430  96.8357290
  40.9763680  72.3909220  93.5055980  41.8254210  72.8279370  93.4396170
  40.6094950  72.7029480  94.3328040  49.8973460  76.9621980  98.4187550
  48.9563600  76.9772210  98.5935240  50.2117530  76.1757940  98.8647850
  39.8755100  78.6441580  91.9791510  40.6418370  78.5322940  92.5416940
  39.9529790  77.9479550  91.3268280  38.5701860  76.0766650  92.6624400
  38.6505450  75.1294160  92.7741800  39.4621610  76.4073530  92.7685060
  51.8999040  84.1330830 100.0941810  52.0246460  84.9562000 100.5665620
  52.7664600  83.9221560  99.7465960  39.3716570  86.2262040  99.7658940
  40.1079050  85.6777500 100.0367510  39.7557490  87.0918050  99.6264930
  36.2562050  82.2935610  95.6400450  35.3301830  82.5356750  95.6305860
  36.7218480  83.1209870  95.5185200  42.4818880  85.3992350  91.5884510
  43.2747490  85.6881180  91.1366300  41.9623230  84.9684520  90.9096990
  51.5349050  84.6262480  93.0121250  51.2490560  84.2127620  92.1975430
  51.3368600  85.5550190  92.8921770  42.9996280  80.6195760  91.4526860
  42.8946920  80.0048110  92.1788240  42.8320500  80.0961650  90.6689870
  46.2399010  79.6815790  92.0568850  45.6909110  80.1285090  92.7011590
  46.8618270  79.1765040  92.5806520  41.9074130  78.6406710  93.9534150
  42.3290550  78.4746580  94.7965540  42.0324970  77.8306940  93.4589290
  44.4201770  77.6644320  91.2011250  44.9407430  76.9493340  90.8352400
  45.0670170  78.3030190  91.5011760  43.3235290  70.1438870 103.8729810
  42.8752590  70.1663130 103.0275360  42.6900490  69.7457890 104.4700110
  43.7294840  79.0393200 104.4942250  44.1482950  79.8825930 104.3218490
  42.8103470  79.1765240 104.2649030  40.8033030  74.7139940  90.8992310
  40.6022090  73.8507300  91.2605650  40.6325080  74.6273300  89.9613910
  48.2821340  69.5248170  93.4279190  48.5623630  68.6816070  93.7838610
  47.5087070  69.7571280  93.9417940  39.6015830  71.8140560  90.8870190
  39.9041730  71.8207990  89.9789340  40.3410420  71.4638420  91.3837850
  42.8200760  70.7575180  91.8726390  42.4722760  70.0799170  91.2928840
  43.0213530  70.2964690  92.6869780  44.9849800  85.7455930  93.4912990
  45.8800590  86.0840900  93.5131750  45.0167430  85.0235340  92.8637270
  38.6245960  81.1182980  91.7199990  39.0620830  81.6612650  92.3757570
  39.1093690  80.2929930  91.7296330  35.8391760  83.9072010  99.1720250
  36.1694770  83.0393070  98.9398890  36.2682760  84.1130530 100.0025210
  40.4353680  82.2381020  96.8322220  40.1349220  82.1145990  97.7326130
  40.3291170  81.3789610  96.4237950  36.3281970  84.7742600 101.9101880
  35.8912960  84.9543400 102.7426030  36.8959650  85.5317220 101.7683600
  53.2045600  82.0177420  91.5348900  52.3738560  82.0854070  92.0056130
  53.3817430  82.9081540  91.2315760  52.6602060  78.7624900  94.0383100
  53.4220970  79.3321550  94.1442790  52.6756430  78.1952100  94.8091410
  36.1606400  77.2862830  98.2690760  35.5055240  77.0174470  97.6250460
  36.9984350  77.1767310  97.8192740  53.6662030  79.6175000  98.8825030
  54.0370860  78.8342320  98.4761000  54.3063960  80.3064100  98.7042330
  50.6495790  81.0011580 104.2955350  49.8355630  81.4308740 104.5581140
  51.0569990  81.6129990 103.6824400  52.7121230  79.0559270  91.1955620
  52.9870070  79.9638150  91.0674840  52.5231970  78.9921800  92.1317610
  49.1096840  72.0804120  92.4909250  49.5281720  71.8935100  91.6505910
  48.8032900  71.2283170  92.8012180  52.6086570  76.9928260  96.1885050
  52.2330170  76.2256190  95.7566340  51.8789690  77.3750960  96.6759980
  37.1982330  77.6715400 102.8094100  37.5655370  77.5842800 103.6890120
  36.6293150  76.9081950 102.7100960  35.3744480  74.4961760  94.2116090
  34.4708560  74.7591960  94.0367750  35.8585100  74.7672930  93.4316050
  51.8837530  75.2185750  99.4892290  52.4075010  74.7248400  98.8582460
  52.4696950  75.3536110 100.2339860  52.0627250  75.3025620 103.0111840
  51.1129960  75.2689160 103.1256830  52.2440260  76.2125730 102.7761610
  37.9171690  73.5527300  92.1210470  38.6263390  73.1310520  91.6357750
  37.2011630  73.6202530  91.4893820  37.5645850  69.6066630  91.1613120
  38.2873980  70.1475570  91.4794340  37.8370370  69.3330050  90.2854660
  51.3737500  74.4759100  95.4284700  51.8696620  74.2429970  96.2133580
  51.1753570  73.6370940  95.0122340  37.2538040  68.8572820 101.0635740
  37.9014230  68.3070200 100.6230900  37.6739880  69.1115970 101.8851550
  52.8024660  73.1120050  97.9622380  52.6923940  72.9576090  98.9004650
  53.5632250  72.5840990  97.7197790  51.1490380  69.0514180 104.4205380
  51.7862600  69.6648320 104.7864570  51.2965270  69.0874840 103.4754610
  53.6914930  70.9427970  91.2028520  54.6164240  70.8109150  90.9946810
  53.6690720  71.0220790  92.1564970  53.7653420  71.7138630  93.8285230
  52.9704920  71.6483750  94.3578140  53.9696700  72.6489270  93.8170580
  50.7071840  85.7530180  97.8223620  51.3030910  85.4314750  97.1458040
  50.9649990  85.2802000  98.6136890  37.0070040  69.0128490 103.8061060
  36.6584860  69.4692310 104.5719240  36.6757740  68.1185620 103.8883490
  42.3140440  83.7407680 103.5723970  42.0731800  84.0082240 102.6854490
  43.2543080  83.9113410 103.6274830  53.5744600  85.7602060 104.3734610
  53.0802880  86.1570930 103.6561740  52.9657890  85.1351270 104.7671890
  47.8977460  68.4242570 103.2942060  47.0237300  68.7577680 103.0914990
  47.7888210  67.9515750 104.1193930  48.8049440  70.6313440 104.6783780
  48.4762800  69.8165200 104.2985510  49.7531740  70.5883250 104.5549470
  51.2584050  86.4025480 101.6521350  50.7987020  87.1541290 101.2779370
  50.6296510  85.6831950 101.5936150  38.0834670  82.4968720 104.0420070
  37.3568730  81.8774010 103.9746020  38.1443820  82.8909330 103.1718150
  41.6879770  84.7113720 100.8269480  42.2044790  84.1001080 100.3017740
  42.3377150  85.2142500 101.3180490  44.4275270  85.6022210 101.6538460
  44.7153080  85.3476510 100.7771470  44.9398490  85.0499570 102.2444030
  45.6452280  69.3412410 102.2334970  44.8624070  69.8157910 102.5131730
  45.3515210  68.4367240 102.1248150  50.1973350  70.0435510 100.2784060
  50.6381440  69.9880610  99.4305660  49.9280940  70.9593520 100.3494240
  52.0611920  69.6750750  98.2892880  52.0000320  68.7311970  98.1423900
  52.8403950  69.7830840  98.8346340  36.3664670  85.8143110  97.2516830
  36.1986710  85.1813790  97.9498720  35.4999180  86.0202510  96.9011020
  36.9892690  69.6459890  94.7548690  37.7472050  69.7588770  94.1812720
  36.5269860  70.4829090  94.7092120  43.5306500  71.7599160  97.7451000
  42.7181010  71.3856050  97.4046880  44.0348140  71.0044240  98.0472190
  48.0331480  68.4241610  98.9834070  48.6360850  68.9961820  99.4582590
  47.2924470  68.9881050  98.7607970  51.1766080  68.8263170  94.2574350
  51.3716710  69.7246620  94.5241780  50.3895950  68.5950250  94.7507300
  37.9727370  84.5076340  94.6966970  37.4474990  84.8884370  93.9928930
  37.8971950  85.1327110  95.4176680  39.3617840  70.1723940  93.2950660
  39.8910600  69.3853740  93.1658610  39.9946160  70.8515130  93.5286190
  41.5555680  69.9099080  96.3496050  40.9258420  69.2086390  96.5166180
  41.0160820  70.6703210  96.1329210  52.7292690  86.0663880  96.0180910
  52.9044880  85.3801620  95.3741830  52.0314260  86.5910930  95.6257580
  40.5720340  86.4558720  93.5716220  41.3039160  86.1718000  93.0240110
  40.8314010  86.2172000  94.4615600  39.7335130  82.5723450  93.5762550
  39.1044010  83.0408550  94.1248380  39.8482960  81.7272670  94.0108740
  47.1884850  76.6229110  79.7263750  47.1078900  75.7083720  79.4555460
  46.7749270  77.1196180  79.0203460  45.3202890  78.4008130  81.6073020
  44.5444990  77.9208570  81.8971590  45.9715820  77.7213780  81.4329180
  39.3368720  78.7127940  82.4848780  38.5053600  78.4576650  82.8845290
  39.9449700  78.7838710  83.2206700  49.3410320  82.8068320  80.3872150
  48.8791850  82.0355560  80.7159320  50.1535870  82.8334390  80.8924600
  39.3169980  82.7468030  82.6806800  39.6198020  81.8565770  82.5017020
  40.0613570  83.3038250  82.4529050  37.7460670  73.6729830  76.2691170
  36.8577370  74.0145800  76.1671050  38.0301860  73.4730150  75.3772000
  35.7093680  76.2735480  82.1530870  36.2809790  75.5057680  82.1534510
  35.7095220  76.5724240  81.2437480  45.5673630  85.0926330  80.0076140
  44.9485070  85.5483830  79.4370580  46.4225410  85.2477790  79.6065840
  44.7611880  81.0765320  81.6143180  44.6920160  80.1355260  81.4532310
  45.5231740  81.1666730  82.1865750  36.9518550  71.6819840  83.9399800
  36.7721390  70.7845590  84.2202560  36.5498630  72.2291710  84.6146750
  45.7917050  73.8835700  81.8412110  46.1681870  73.0107580  81.7285780
  45.6936560  74.2194400  80.9502550  39.9222060  72.2561330  77.3029550
  40.0288810  73.1565060  77.6098310  39.0114420  72.2079300  77.0124200
  49.5741170  71.3786140  78.7740450  50.3950790  70.8882710  78.8165930
  49.6075250  71.9683800  79.5272290  37.5705220  74.1780340  82.5482140
  38.2515330  74.4418710  83.1669540  37.2553270  73.3381210  82.8820150
  41.7629790  75.2247700  81.6354730  42.2708010  75.7228670  82.2759750
  42.2943030  74.4482900  81.4594090  53.8640720  73.3952890  85.3384080
  53.1592890  73.7834600  84.8199190  54.1298640  74.0903180  85.9405010
  40.0465890  69.8646260  85.9018150  40.0484330  70.3818650  85.0964050
  39.2170200  69.3876440  85.8788080  46.4336980  79.9765570  77.4008050
  45.8154250  80.4415020  76.8370770  46.9460230  80.6693050  77.8177560
  41.2968740  79.5041440  84.0791650  40.9638120  80.1310360  84.7212720
  41.4735420  80.0303320  83.2993320  49.8102650  73.3186520  81.5467990
  49.1058220  73.6071410  82.1271100  50.1714810  74.1286630  81.1867550
  39.7281220  71.5756220  83.9088600  40.0698030  72.4198270  83.6142470
  38.7897030  71.7239960  84.0253940  40.5087840  81.4722240  85.8940830
  41.1261840  82.1473320  85.6125280  39.6480960  81.8810220  85.8028330
  35.8020180  80.6622100  74.7747680  35.4248160  81.1509200  74.0432580
  36.0593250  81.3347380  75.4054210  51.4265430  82.9361650  83.8095470
  50.7428950  83.6060760  83.8012140  51.9659720  83.1342300  83.0440330
  52.8789570  72.7641310  81.9377200  51.9314480  72.7980290  82.0692630
  53.2039560  73.5780260  82.3226560  43.4109110  69.0638490  80.2333190
  43.7184090  68.5085380  79.5168690  42.4809810  69.1982950  80.0506180
  48.9624170  84.7805780  82.5240650  48.9751330  84.3768070  81.6562910
  48.4099390  85.5553070  82.4202080  50.2569590  81.5022000  77.6130820
  50.1465920  80.5596330  77.7380240  50.2537840  81.8637640  78.4993580
  48.3609610  79.6835620  83.8523260  48.7778400  79.4695730  83.0176720
  49.0849430  79.9408410  84.4231880  45.7989870  77.1287320  76.9693310
  44.8719150  77.0624700  77.1981780  45.9514690  78.0667450  76.8548550
  45.7858950  73.4004320  73.9660470  44.8462620  73.5618280  74.0512930
  46.1042210  74.1190000  73.4196460  52.3071710  78.0822840  83.9439500
  51.4790340  78.1515930  83.4689630  52.9022190  78.6677150  83.4755330
  49.8287160  78.6907620  77.4728560  49.2099580  78.3527170  76.8254860
  49.8111610  78.0467380  78.1807750  49.2713720  74.8692160  84.8894370
  48.8584900  75.6945870  85.1434360  48.5389670  74.2837200  84.6970730
  41.4046510  77.6552060  79.7513040  41.0003510  76.9429310  79.2558940
  41.4909630  77.3105300  80.6401080  41.8728210  81.3419620  81.9152250
  41.5756500  80.7365090  81.2360030  42.8228030  81.3796930  81.8041610
  40.1175130  74.4295270  83.5312080  40.6689720  74.5390610  82.7565330
  40.6318640  74.8032870  84.2467310  49.9613820  84.9151490  85.5775350
  49.4844380  85.7223680  85.3847960  49.2775610  84.2629820  85.7301560
  40.9646640  81.0801310  88.5660050  40.0675170  81.3041280  88.8133450
  40.9899510  81.2036250  87.6171450  48.0051860  77.9294430  74.4801310
  48.4445140  77.0916860  74.3339130  48.7180280  78.5623830  74.5665450
  39.7917860  77.9514630  87.1417420  39.6525630  78.8237430  87.5104820
  38.9099220  77.6087440  86.9965360  46.1147240  82.8690500  78.4482550
  46.5543150  83.6114830  78.0337940  46.0534130  83.1117070  79.3721510
  41.5898210  83.8936330  89.3502570  41.5613640  84.2979280  88.4831000
  41.4263180  82.9646690  89.1874170  51.5869000  69.1837240  72.7942350
  51.2741660  69.2764070  73.6941420  52.3481470  69.7618270  72.7439780
  38.1051140  76.5497040  77.2519690  37.9848740  77.2759130  76.6400960
  37.7952030  75.7799950  76.7747600  53.5413030  84.6763430  90.6466740
  54.0172750  85.1546320  91.3255820  54.1620190  84.6080920  89.9212240
  35.7436510  79.7212180  83.0588330  35.8216930  79.8560950  82.1144050
  36.3578190  79.0128070  83.2516450  36.9884140  81.4212370  79.4694510
  36.5812220  81.5626960  78.6148110  37.8797150  81.1372530  79.2665720
  52.9446280  81.8676280  87.8066750  53.0709340  81.6288160  86.8883930
  52.9867660  81.0360820  88.2788830  46.8063020  85.5704280  86.3761560
  47.3207690  85.4812290  87.1783990  45.9632100  85.9163980  86.6689470
  48.7817420  85.8559620  75.8045560  48.6218560  85.5662560  76.7027390
  48.6164130  85.0799750  75.2690790  41.2605800  85.6358150  77.5817180
  41.0848280  84.7193690  77.3684980  40.4061540  85.9945440  77.8214980
  48.4843550  83.3647180  74.3643560  47.7908710  83.3624470  73.7045840
  49.2266410  82.9406500  73.9337730  48.0493480  84.9909890  78.4392050
  48.5050430  84.2099270  78.7530670  48.3886000  85.7016710  78.9833230
  52.7970290  73.9208740  88.7716490  52.1814560  74.4288410  88.2431950
  52.4766710  73.0207070  88.7142430  35.7996030  80.7626350  85.5982790
  35.9627070  80.2931710  84.7802160  36.2648480  80.2549910  86.2631630
  40.5714800  69.8932110  80.6343360  40.1282950  70.6741650  80.3027880
  41.1299790  70.2162000  81.3414300  44.8584610  72.7600630  86.2378680
  44.3963980  72.9683650  87.0498620  44.4562720  71.9459980  85.9349350
  49.8589120  73.9809580  87.3675340  49.0082710  73.6815330  87.6884410
  49.6990910  74.2251590  86.4559160  46.9538830  75.4811330  89.4674130
  47.2792240  74.6475080  89.1276360  47.7419160  76.0039850  89.6152460
  43.6873620  69.5142810  75.5149190  43.0627800  69.5102680  76.2402500
  43.6003740  68.6473770  75.1185160  42.6090700  70.4379440  82.4932960
  42.9063030  71.3442270  82.4124980  43.1576260  69.9498220  81.8792530
  40.3629020  75.0165680  78.3624610  40.1369940  74.8002850  79.2671230
  39.5821550  75.4494140  78.0170580  47.5926780  75.0229050  76.9615260
  46.9935670  75.7464850  76.7778880  48.1406390  74.9605830  76.1791710
  42.8028230  75.9151260  89.0284880  42.7071830  74.9745990  88.8785280
  43.6460210  76.1366330  88.6332950  46.1991650  73.6592590  78.9918540
  46.5921220  73.9764790  78.1787230  46.5608500  72.7804470  79.1063060
  37.9338770  72.3264930  87.1818660  37.5402160  73.1740140  87.3891440
  37.2457170  71.6891300  87.3727300  44.5083820  72.4099900  90.2515400
  43.8182140  72.2172100  90.8861490  45.2516120  72.6934540  90.7839700
  35.2355820  70.2493390  81.2148740  34.9468870  70.8196250  81.9273720
  35.9801580  69.7697840  81.5779970  35.4226050  74.1913510  72.4251460
  35.3400720  75.1344270  72.5666450  35.0709110  74.0488420  71.5463810
  46.7846790  76.2498340  83.0869320  46.0527910  76.7585150  83.4359420
  46.3871130  75.4328320  82.7858100  43.2224180  72.9252540  81.4921810
  43.2260240  72.4842490  80.6426350  44.1175300  73.2469870  81.5993630
  39.0726560  72.8079030  80.4516020  38.7326610  73.2854260  81.2083070
  38.3103880  72.3544150  80.0917120  43.2844330  73.9264620  74.4828570
  43.4057150  73.8851100  75.4314390  42.8992840  74.7888770  74.3275300
  47.2472700  71.7032020  82.4992260  47.2645440  72.1540670  83.3434110
  46.9988280  70.8037660  82.7125700  42.2965830  76.2365760  73.8811870
  41.7282730  75.7884010  73.2547780  43.0054830  76.5958540  73.3477020
  50.6743450  69.1164200  88.3378640  50.9989220  68.3853860  88.8636620
  50.7099960  68.7977840  87.4359630  37.3735010  80.1377780  87.7578600
  36.9889800  79.4971450  88.3561560  37.6847200  80.8413900  88.3273330
  43.5232150  76.9854320  83.2387220  43.8902280  76.5112890  83.9848560
  43.3337210  77.8595890  83.5795560  36.3872640  71.7298010  79.3680690
  36.1019560  71.3653680  80.2059310  36.3251500  70.9978470  78.7543830
  41.3131520  76.0262960  85.5571430  41.0088590  76.9054940  85.7821790
  42.2677980  76.0862750  85.5928870  39.8413310  80.2323950  76.1538280
  39.0675570  79.6921570  75.9937000  40.5707940  79.7130560  75.8156040
  50.6001290  79.2289310  81.9464670  51.3200410  79.7244600  81.5560780
  50.3983110  78.5507200  81.3018540  46.0611230  70.6227270  76.0894060
  45.2475840  70.1240440  76.0139370  45.8673180  71.4625520  75.6730410
  45.9820090  79.2998370  87.8333670  45.9157400  78.3794040  87.5791260
  45.3525230  79.3973810  88.5478310  48.7759620  74.9946920  74.3856220
  49.6639240  75.3064150  74.2107560  48.7464710  74.1219170  73.9936800
  39.8850710  79.9004330  79.7917090  40.4029380  79.0972590  79.7373980
  39.4334730  79.8383470  80.6333920  44.7720210  81.1670610  75.0644390
  45.1135910  81.9112840  74.5687710  43.9432920  81.4801730  75.4269220
  37.3695250  76.8665700  86.7042790  37.0110190  77.5319550  87.2916130
  37.0749810  76.0349250  87.0755410  40.5708370  77.3249940  89.5882340
  40.2708510  77.4707120  88.6910160  41.3419610  76.7655230  89.4955730
  45.9136820  82.1218940  87.5837470  45.9281360  81.1899900  87.3656380
  45.2061920  82.2078700  88.2227240  51.0473890  76.3058760  73.8536080
  50.9637610  76.7372980  73.0032520  51.7668080  76.7657110  74.2862900
  52.1248030  78.7626280  86.9306050  51.3996220  79.3555060  86.7335440
  52.6523490  78.7549820  86.1319420  52.0761140  83.1601020  76.5818210
  51.4337300  82.5056640  76.8561930  51.6891800  83.5656110  75.8058880
  47.6547620  80.4886450  80.4289900  48.0071440  79.8914580  79.7691270
  46.7709950  80.1630680  80.5998150  43.7410900  81.2484140  77.8360310
  44.4282030  81.7953350  78.2167900  42.9543320  81.7924870  77.8709920
  35.8803300  76.8656960  73.3277390  36.7498150  77.1481760  73.6113310
  35.3893620  77.6792830  73.2126200  43.0438110  78.2530170  77.4485670
  43.5000890  79.0635420  77.6745860  42.6926320  77.9353310  78.2804160
  45.3470720  83.7636510  84.6777970  45.9912940  83.9695890  85.3551390
  45.7100160  83.0024910  84.2248820  46.6202800  81.7668860  83.3955420
  47.2625030  81.0662020  83.5087590  47.1452150  82.5467300  83.2152310
  50.4658520  82.0517480  73.1194560  50.2396100  81.3347920  73.7119200
  50.0754720  81.8029920  72.2816310  48.3940420  82.5663760  86.5991480
  48.7296660  83.1530450  87.2769400  47.4740760  82.4356470  86.8289270
  36.2474550  86.0784340  73.8939020  36.6072190  86.6773680  73.2396290
  36.1066890  86.6244230  74.6674050  35.9443820  70.3558940  87.3814890
  35.2302340  70.5555860  87.9867500  36.3638860  69.5798510  87.7529690
  50.0474770  79.9689420  74.7808720  49.7596470  80.4302110  75.5686600
  50.8426940  79.5087190  75.0492940  36.2316410  84.3439200  88.3681420
  36.3407530  83.4033940  88.2276810  35.5796970  84.6093950  87.7195150
  44.2229000  82.6155090  89.7679540  43.9025870  81.8964330  90.3125230
  43.5487360  83.2910160  89.8415600  42.2643170  83.4615540  74.7112690
  42.2553270  84.1945230  74.0957200  41.3441530  83.2147120  74.8039650
  37.8649810  78.6830430  75.4559450  37.2577760  79.4229330  75.4654750
  38.3399160  78.7729790  74.6297650  47.4382600  72.8481250  85.1316340
  47.8063420  72.0276460  85.4595910  46.5780800  72.9083140  85.5471990
  50.8044630  71.8038190  75.9403900  50.1757790  71.9083860  75.2262130
  50.3096550  72.0234970  76.7297780  45.2502770  83.5243780  73.3737880
  45.3514750  83.3207770  72.4439860  44.3504510  83.2702060  73.5785660
  42.7728660  74.0824140  77.3561780  42.0644810  74.5510480  77.7975390
  43.0573140  73.4246150  77.9906970  44.3984590  75.5020840  85.3554310
  44.8969840  75.9766660  86.0206160  44.5407540  74.5784360  85.5624340
  46.8044090  70.8074800  78.7957570  46.6811870  70.8260930  77.8467080
  47.7528650  70.8553740  78.9155970  43.8920880  86.0430100  78.0685550
  44.1462380  86.0051490  77.1464920  42.9433360  85.9163430  78.0613800
  40.9763680  72.3909220  74.7312490  41.8254210  72.8279370  74.6652680
  40.6094950  72.7029480  75.5584550  51.6051450  71.7188800  86.1982700
  51.1025050  72.4594200  86.5376510  52.4208110  72.1072800  85.8819490
  49.8973460  76.9621980  79.6444060  48.9563600  76.9772210  79.8191750
  50.2117530  76.1757940  80.0904360  39.8755100  78.6441580  73.2048020
  40.6418370  78.5322940  73.7673450  39.9529790  77.9479550  72.5524790
  38.5701860  76.0766650  73.8880910  38.6505450  75.1294160  73.9998310
  39.4621610  76.4073530  73.9941570  51.8999040  84.1330830  81.3198320
  52.0246460  84.9562000  81.7922130  52.7664600  83.9221560  80.9722470
  39.3716570  86.2262040  80.9915450  40.1079050  85.6777500  81.2624020
  39.7557490  87.0918050  80.8521440  36.2562050  82.2935610  76.8656960
  35.3301830  82.5356750  76.8562370  36.7218480  83.1209870  76.7441710
  38.3774850  85.4108110  90.1801030  39.1787580  85.7320160  90.5936430
  37.8626670  85.0503690  90.9020940  42.4818880  85.3992350  72.8141020
  43.2747490  85.6881180  72.3622810  41.9623230  84.9684520  72.1353500
  47.2139480  81.5187980  90.1276440  46.6077640  81.5419580  89.3872190
  46.9093590  80.7871020  90.6643690  48.6439850  85.2468270  88.7385850
  49.5961600  85.1626290  88.6886090  48.4968070  85.9109980  89.4119640
  51.5349050  84.6262480  74.2377760  51.2490560  84.2127620  73.4231940
  51.3368600  85.5550190  74.1178280  36.0972660  77.8981570  89.1237080
  36.6011680  77.3188850  89.6953310  35.3580080  78.1821800  89.6613450
  42.9996280  80.6195760  72.6783370  42.8946920  80.0048110  73.4044750
  42.8320500  80.0961650  71.8946380  43.1510600  79.3052560  88.6572600
  42.3856270  79.8737560  88.5727270  43.3326560  79.0128770  87.7640830
  46.2399010  79.6815790  73.2825360  45.6909110  80.1285090  73.9268100
  46.8618270  79.1765040  73.8063030  50.2933950  81.0357890  89.2147620
  51.0343420  81.3733650  88.7115080  49.5306630  81.2049950  88.6617390
  38.1295740  76.0411160  90.0187150  38.1701080  75.7425030  90.9272380
  38.9841240  76.4418770  89.8594670  41.9074130  78.6406710  75.1790660
  42.3290550  78.4746580  76.0222050  42.0324970  77.8306940  74.6845800
  40.0701550  74.6203260  87.9861640  39.5398010  74.1294210  87.3584980
  40.7389620  75.0487460  87.4519570  44.4201770  77.6644320  72.4267760
  44.9407430  76.9493340  72.0608910  45.0670170  78.3030190  72.7268270
  48.9679610  79.0872720  87.7502830  49.3820630  79.2417800  88.5993250
  48.0330610  79.2127940  87.9128610  49.4401780  76.4268880  89.7541980
  50.0222550  75.6721200  89.6662460  49.6163550  76.9576320  88.9773460
  40.5573850  71.5865630  88.0658930  40.4630720  70.9686380  87.3409800
  39.9771240  72.3131920  87.8388840  43.3235290  70.1438870  85.0986320
  42.8752590  70.1663130  84.2531870  42.6900490  69.7457890  85.6956620
  43.7294840  79.0393200  85.7198760  44.1482950  79.8825930  85.5475000
  42.8103470  79.1765240  85.4905540  46.0658740  76.7709380  87.1036600
  46.1854950  76.1750520  87.8431440  46.9252740  76.8079070  86.6837900
  48.4046640  77.3246570  85.6799110  47.8781860  77.8489190  85.0764250
  48.7477980  77.9573960  86.3108840  40.8033030  74.7139940  72.1248820
  40.6022090  73.8507300  72.4862160  40.6325080  74.6273300  71.1870420
  41.5802260  85.3446210  86.8356490  41.0423350  86.0692270  86.5165190
  41.8336220  84.8676550  86.0453830  42.8327510  73.3130730  88.3612420
  43.4227200  73.0046580  89.0490240  42.0147750  72.8410480  88.5172320
  47.6520940  72.9296540  88.5945440  46.9636460  72.2678080  88.5295430
  48.3726960  72.4834810  89.0393900  48.2821340  69.5248170  74.6535700
  48.5623630  68.6816070  75.0095120  47.5087070  69.7571280  75.1674450
  39.6015830  71.8140560  72.1126700  39.9041730  71.8207990  71.2045850
  40.3410420  71.4638420  72.6094360  44.4364470  86.5797420  87.0943140
  44.3623170  87.4832560  87.4015510  43.5343310  86.2609320  87.0665210
  44.9849800  85.7455930  74.7169500  45.8800590  86.0840900  74.7388260
  45.0167430  85.0235340  74.0893780  38.6245960  81.1182980  72.9456500
  39.0620830  81.6612650  73.6014080  39.1093690  80.2929930  72.9552840
  35.8391760  83.9072010  80.3976760  36.1694770  83.0393070  80.1655400
  36.2682760  84.1130530  81.2281720  40.4353680  82.2381020  78.0578730
  40.1349220  82.1145990  78.9582640  40.3291170  81.3789610  77.6494460
  36.3281970  84.7742600  83.1358390  35.8912960  84.9543400  83.9682540
  36.8959650  85.5317220  82.9940110  51.9644150  84.2759600  87.4235700
  51.3646140  84.3352160  86.6799620  52.0938050  83.3364580  87.5532550
  53.2045600  82.0177420  72.7605410  52.3738560  82.0854070  73.2312640
  53.3817430  82.9081540  72.4572270  52.6602060  78.7624900  75.2639610
  53.4220970  79.3321550  75.3699300  52.6756430  78.1952100  76.0347920
  36.1606400  77.2862830  79.4947270  35.5055240  77.0174470  78.8506970
  36.9984350  77.1767310  79.0449250  53.6662030  79.6175000  80.1081540
  54.0370860  78.8342320  79.7017510  54.3063960  80.3064100  79.9298840
  50.6495790  81.0011580  85.5211860  49.8355630  81.4308740  85.7837650
  51.0569990  81.6129990  84.9080910  52.7121230  79.0559270  72.4212130
  52.9870070  79.9638150  72.2931350  52.5231970  78.9921800  73.3574120
  49.1096840  72.0804120  73.7165760  49.5281720  71.8935100  72.8762420
  48.8032900  71.2283170  74.0268690  52.6086570  76.9928260  77.4141560
  52.2330170  76.2256190  76.9822850  51.8789690  77.3750960  77.9016490
  37.1982330  77.6715400  84.0350610  37.5655370  77.5842800  84.9146630
  36.6293150  76.9081950  83.9357470  51.9986190  76.1399780  87.0481080
  51.7672280  75.9112530  86.1479030  52.2590740  77.0599330  87.0025970
  36.7498330  74.5824490  87.9409030  35.8554380  74.5491250  88.2802740
  37.2895880  74.7811280  88.7060280  50.4374260  71.3656210  89.8260780
  51.3144440  71.3739610  90.2094780  50.4495100  70.6287050  89.2153130
  35.3744480  74.4961760  75.4372600  34.4708560  74.7591960  75.2624260
  35.8585100  74.7672930  74.6572560  51.8837530  75.2185750  80.7148800
  52.4075010  74.7248400  80.0838970  52.4696950  75.3536110  81.4596370
  52.0627250  75.3025620  84.2368350  51.1129960  75.2689160  84.3513340
  52.2440260  76.2125730  84.0018120  37.9171690  73.5527300  73.3466980
  38.6263390  73.1310520  72.8614260  37.2011630  73.6202530  72.7150330
  37.5645850  69.6066630  72.3869630  38.2873980  70.1475570  72.7050850
  37.8370370  69.3330050  71.5111170  51.3737500  74.4759100  76.6541210
  51.8696620  74.2429970  77.4390090  51.1753570  73.6370940  76.2378850
  37.2538040  68.8572820  82.2892250  37.9014230  68.3070200  81.8487410
  37.6739880  69.1115970  83.1108060  52.8024660  73.1120050  79.1878890
  52.6923940  72.9576090  80.1261160  53.5632250  72.5840990  78.9454300
  51.1490380  69.0514180  85.6461890  51.7862600  69.6648320  86.0121080
  51.2965270  69.0874840  84.7011120  53.6914930  70.9427970  72.4285030
  54.6164240  70.8109150  72.2203320  53.6690720  71.0220790  73.3821480
  53.7653420  71.7138630  75.0541740  52.9704920  71.6483750  75.5834650
  53.9696700  72.6489270  75.0427090  50.7071840  85.7530180  79.0480130
  51.3030910  85.4314750  78.3714550  50.9649990  85.2802000  79.8393400
  37.0070040  69.0128490  85.0317570  36.6584860  69.4692310  85.7975750
  36.6757740  68.1185620  85.1140000  38.6134410  82.1848090  89.1970760
  38.5704040  81.8141000  90.0785220  38.7445420  83.1225660  89.3372580
  42.3140440  83.7407680  84.7980480  42.0731800  84.0082240  83.9111000
  43.2543080  83.9113410  84.8531340  44.5194860  70.2040370  88.5536990
  44.4583750  70.7962200  89.3032400  45.4595240  70.0966330  88.4087250
  47.1569420  69.8610430  88.1929280  47.7709830  70.1789720  87.5310360
  47.7018980  69.3759020  88.8125140  53.5744600  85.7602060  85.5991120
  53.0802880  86.1570930  84.8818250  52.9657890  85.1351270  85.9928400
  37.6790680  68.5404690  88.3068340  38.2273670  68.3592740  87.5434450
  37.7445990  67.7498800  88.8424650  38.4522440  85.1310340  86.3168540
  37.8582760  84.9995040  87.0558580  38.4446280  84.2948480  85.8510640
  47.8977460  68.4242570  84.5198570  47.0237300  68.7577680  84.3171500
  47.7888210  67.9515750  85.3450440  48.8049440  70.6313440  85.9040290
  48.4762800  69.8165200  85.5242020  49.7531740  70.5883250  85.7805980
  51.2584050  86.4025480  82.8777860  50.7987020  87.1541290  82.5035880
  50.6296510  85.6831950  82.8192660  38.0834670  82.4968720  85.2676580
  37.3568730  81.8774010  85.2002530  38.1443820  82.8909330  84.3974660
  41.6879770  84.7113720  82.0525990  42.2044790  84.1001080  81.5274250
  42.3377150  85.2142500  82.5437000  44.4275270  85.6022210  82.8794970
  44.7153080  85.3476510  82.0027980  44.9398490  85.0499570  83.4700540
  45.6452280  69.3412410  83.4591480  44.8624070  69.8157910  83.7388240
  45.3515210  68.4367240  83.3504660  50.1973350  70.0435510  81.5040570
  50.6381440  69.9880610  80.6562170  49.9280940  70.9593520  81.5750750
  52.0611920  69.6750750  79.5149390  52.0000320  68.7311970  79.3680410
  52.8403950  69.7830840  80.0602850  36.3664670  85.8143110  78.4773340
  36.1986710  85.1813790  79.1755230  35.4999180  86.0202510  78.1267530
  36.9892690  69.6459890  75.9805200  37.7472050  69.7588770  75.4069230
  36.5269860  70.4829090  75.9348630  43.5306500  71.7599160  78.9707510
  42.7181010  71.3856050  78.6303390  44.0348140  71.0044240  79.2728700
  48.0331480  68.4241610  80.2090580  48.6360850  68.9961820  80.6839100
  47.2924470  68.9881050  79.9864480  51.1766080  68.8263170  75.4830860
  51.3716710  69.7246620  75.7498290  50.3895950  68.5950250  75.9763810
  37.9727370  84.5076340  75.9223480  37.4474990  84.8884370  75.2185440
  37.8971950  85.1327110  76.6433190  39.3617840  70.1723940  74.5207170
  39.8910600  69.3853740  74.3915120  39.9946160  70.8515130  74.7542700
  41.5555680  69.9099080  77.5752560  40.9258420  69.2086390  77.7422690
  41.0160820  70.6703210  77.3585720  44.4947630  86.5238310  90.2463170
  45.4214940  86.2882580  90.2899130  44.4798060  87.3510310  89.7649200
  52.7292690  86.0663880  77.2437420  52.9044880  85.3801620  76.5998340
  52.0314260  86.5910930  76.8514090  41.6811240  69.1883060  90.0105050
  41.3995510  69.6916660  89.2465870  42.0630940  68.3904810  89.6447180
  40.5720340  86.4558720  74.7972730  41.3039160  86.1718000  74.2496620
  40.8314010  86.2172000  75.6872110  39.7335130  82.5723450  74.8019060
  39.1044010  83.0408550  75.3504890  39.8482960  81.7272670  75.2365250
  48.2826700  68.6036640  90.5885520  48.1692150  68.9231250  91.4837040
  49.0996440  69.0049150  90.2922800  51.0625190  85.7508170  90.0704210
  51.8550510  85.2557400  89.8630170  51.3558340  86.4298310  90.6779820
  45.3202890  78.4008130  62.8329530  44.5444990  77.9208570  63.1228100
  45.9715820  77.7213780  62.6585690  39.3368720  78.7127940  63.7105290
  38.5053600  78.4576650  64.1101800  39.9449700  78.7838710  64.4463210
  49.3410320  82.8068320  61.6128660  48.8791850  82.0355560  61.9415830
  50.1535870  82.8334390  62.1181110  39.3169980  82.7468030  63.9063310
  39.6198020  81.8565770  63.7273530  40.0613570  83.3038250  63.6785560
  37.7460670  73.6729830  57.4947680  36.8577370  74.0145800  57.3927560
  38.0301860  73.4730150  56.6028510  35.7093680  76.2735480  63.3787380
  36.2809790  75.5057680  63.3791020  35.7095220  76.5724240  62.4693990
  45.5673630  85.0926330  61.2332650  44.9485070  85.5483830  60.6627090
  46.4225410  85.2477790  60.8322350  44.7611880  81.0765320  62.8399690
  44.6920160  80.1355260  62.6788820  45.5231740  81.1666730  63.4122260
  36.9518550  71.6819840  65.1656310  36.7721390  70.7845590  65.4459070
  36.5498630  72.2291710  65.8403260  39.9222060  72.2561330  58.5286060
  40.0288810  73.1565060  58.8354820  39.0114420  72.2079300  58.2380710
  37.5705220  74.1780340  63.7738650  38.2515330  74.4418710  64.3926050
  37.2553270  73.3381210  64.1076660  53.8640720  73.3952890  66.5640590
  53.1592890  73.7834600  66.0455700  54.1298640  74.0903180  67.1661520
  41.2968740  79.5041440  65.3048160  40.9638120  80.1310360  65.9469230
  41.4735420  80.0303320  64.5249830  40.5087840  81.4722240  67.1197340
  41.1261840  82.1473320  66.8381790  39.6480960  81.8810220  67.0284840
  35.8020180  80.6622100  56.0004190  35.4248160  81.1509200  55.2689090
  36.0593250  81.3347380  56.6310720  51.4265430  82.9361650  65.0351980
  50.7428950  83.6060760  65.0268650  51.9659720  83.1342300  64.2696840
  48.9624170  84.7805780  63.7497160  48.9751330  84.3768070  62.8819420
  48.4099390  85.5553070  63.6458590  50.2569590  81.5022000  58.8387330
  50.1465920  80.5596330  58.9636750  50.2537840  81.8637640  59.7250090
  48.3609610  79.6835620  65.0779770  48.7778400  79.4695730  64.2433230
  49.0849430  79.9408410  65.6488390  52.3071710  78.0822840  65.1696010
  51.4790340  78.1515930  64.6946140  52.9022190  78.6677150  64.7011840
  41.4046510  77.6552060  60.9769550  41.0003510  76.9429310  60.4815450
  41.4909630  77.3105300  61.8657590  41.8728210  81.3419620  63.1408760
  41.5756500  80.7365090  62.4616540  42.8228030  81.3796930  63.0298120
  49.9613820  84.9151490  66.8031860  49.4844380  85.7223680  66.6104470
  49.2775610  84.2629820  66.9558070  40.9646640  81.0801310  69.7916560
  40.0675170  81.3041280  70.0389960  40.9899510  81.2036250  68.8427960
  39.7917860  77.9514630  68.3673930  39.6525630  78.8237430  68.7361330
  38.9099220  77.6087440  68.2221870  46.1147240  82.8690500  59.6739060
  46.5543150  83.6114830  59.2594450  46.0534130  83.1117070  60.5978020
  41.5898210  83.8936330  70.5759080  41.5613640  84.2979280  69.7087510
  41.4263180  82.9646690  70.4130680  38.1051140  76.5497040  58.4776200
  37.9848740  77.2759130  57.8657470  37.7952030  75.7799950  58.0004110
  53.5413030  84.6763430  71.8723250  54.0172750  85.1546320  72.5512330
  54.1620190  84.6080920  71.1468750  35.7436510  79.7212180  64.2844840
  35.8216930  79.8560950  63.3400560  36.3578190  79.0128070  64.4772960
  36.9884140  81.4212370  60.6951020  36.5812220  81.5626960  59.8404620
  37.8797150  81.1372530  60.4922230  52.9446280  81.8676280  69.0323260
  53.0709340  81.6288160  68.1140440  52.9867660  81.0360820  69.5045340
  46.8063020  85.5704280  67.6018070  47.3207690  85.4812290  68.4040500
  45.9632100  85.9163980  67.8945980  48.7817420  85.8559620  57.0302070
  48.6218560  85.5662560  57.9283900  48.6164130  85.0799750  56.4947300
  41.2605800  85.6358150  58.8073690  41.0848280  84.7193690  58.5941490
  40.4061540  85.9945440  59.0471490  48.4843550  83.3647180  55.5900070
  47.7908710  83.3624470  54.9302350  49.2266410  82.9406500  55.1594240
  48.0493480  84.9909890  59.6648560  48.5050430  84.2099270  59.9787180
  48.3886000  85.7016710  60.2089740  52.7970290  73.9208740  69.9973000
  52.1814560  74.4288410  69.4688460  52.4766710  73.0207070  69.9398940
  35.7996030  80.7626350  66.8239300  35.9627070  80.2931710  66.0058670
  36.2648480  80.2549910  67.4888140  46.9538830  75.4811330  70.6930640
  47.2792240  74.6475080  70.3532870  47.7419160  76.0039850  70.8408970
  40.3629020  75.0165680  59.5881120  40.1369940  74.8002850  60.4927740
  39.5821550  75.4494140  59.2427090  42.8028230  75.9151260  70.2541390
  42.7071830  74.9745990  70.1041790  43.6460210  76.1366330  69.8589460
  37.9338770  72.3264930  68.4075170  37.5402160  73.1740140  68.6147950
  37.2457170  71.6891300  68.5983810  44.5083820  72.4099900  71.4771910
  43.8182140  72.2172100  72.1118000  45.2516120  72.6934540  72.0096210
  35.2355820  70.2493390  62.4405250  34.9468870  70.8196250  63.1530230
  35.9801580  69.7697840  62.8036480  35.4226050  74.1913510  53.6507970
  35.3400720  75.1344270  53.7922960  35.0709110  74.0488420  52.7720320
  39.0726560  72.8079030  61.6772530  38.7326610  73.2854260  62.4339580
  38.3103880  72.3544150  61.3173630  43.2844330  73.9264620  55.7085080
  43.4057150  73.8851100  56.6570900  42.8992840  74.7888770  55.5531810
  42.2965830  76.2365760  55.1068380  41.7282730  75.7884010  54.4804290
  43.0054830  76.5958540  54.5733530  37.3735010  80.1377780  68.9835110
  36.9889800  79.4971450  69.5818070  37.6847200  80.8413900  69.5529840
  36.3872640  71.7298010  60.5937200  36.1019560  71.3653680  61.4315820
  36.3251500  70.9978470  59.9800340  39.8413310  80.2323950  57.3794790
  39.0675570  79.6921570  57.2193510  40.5707940  79.7130560  57.0412550
  50.6001290  79.2289310  63.1721180  51.3200410  79.7244600  62.7817290
  50.3983110  78.5507200  62.5275050  45.9820090  79.2998370  69.0590180
  45.9157400  78.3794040  68.8047770  45.3525230  79.3973810  69.7734820
  39.8850710  79.9004330  61.0173600  40.4029380  79.0972590  60.9630490
  39.4334730  79.8383470  61.8590430  44.7720210  81.1670610  56.2900900
  45.1135910  81.9112840  55.7944220  43.9432920  81.4801730  56.6525730
  37.3695250  76.8665700  67.9299300  37.0110190  77.5319550  68.5172640
  37.0749810  76.0349250  68.3011920  40.5708370  77.3249940  70.8138850
  40.2708510  77.4707120  69.9166670  41.3419610  76.7655230  70.7212240
  45.9136820  82.1218940  68.8093980  45.9281360  81.1899900  68.5912890
  45.2061920  82.2078700  69.4483750  52.1248030  78.7626280  68.1562560
  51.3996220  79.3555060  67.9591950  52.6523490  78.7549820  67.3575930
  52.0761140  83.1601020  57.8074720  51.4337300  82.5056640  58.0818440
  51.6891800  83.5656110  57.0315390  47.6547620  80.4886450  61.6546410
  48.0071440  79.8914580  60.9947780  46.7709950  80.1630680  61.8254660
  43.7410900  81.2484140  59.0616820  44.4282030  81.7953350  59.4424410
  42.9543320  81.7924870  59.0966430  35.8803300  76.8656960  54.5533900
  36.7498150  77.1481760  54.8369820  35.3893620  77.6792830  54.4382710
  43.0438110  78.2530170  58.6742180  43.5000890  79.0635420  58.9002370
  42.6926320  77.9353310  59.5060670  45.3470720  83.7636510  65.9034480
  45.9912940  83.9695890  66.5807900  45.7100160  83.0024910  65.4505330
  38.9449890  68.5967820  59.1464700  38.8164520  68.5885720  60.0949620
  38.1211910  68.9350910  58.7955710  46.6202800  81.7668860  64.6211930
  47.2625030  81.0662020  64.7344100  47.1452150  82.5467300  64.4408820
  50.4658520  82.0517480  54.3451070  50.2396100  81.3347920  54.9375710
  50.0754720  81.8029920  53.5072820  48.3940420  82.5663760  67.8247990
  48.7296660  83.1530450  68.5025910  47.4740760  82.4356470  68.0545780
  36.2474550  86.0784340  55.1195530  36.6072190  86.6773680  54.4652800
  36.1066890  86.6244230  55.8930560  35.9443820  70.3558940  68.6071400
  35.2302340  70.5555860  69.2124010  36.3638860  69.5798510  68.9786200
  36.2316410  84.3439200  69.5937930  36.3407530  83.4033940  69.4533320
  35.5796970  84.6093950  68.9451660  44.2229000  82.6155090  70.9936050
  43.9025870  81.8964330  71.5381740  43.5487360  83.2910160  71.0672110
  42.2643170  83.4615540  55.9369200  42.2553270  84.1945230  55.3213710
  41.3441530  83.2147120  56.0296160  37.8649810  78.6830430  56.6815960
  37.2577760  79.4229330  56.6911260  38.3399160  78.7729790  55.8554160
  45.2502770  83.5243780  54.5994390  45.3514750  83.3207770  53.6696370
  44.3504510  83.2702060  54.8042170  42.7728660  74.0824140  58.5818290
  42.0644810  74.5510480  59.0231900  43.0573140  73.4246150  59.2163480
  43.8920880  86.0430100  59.2942060  44.1462380  86.0051490  58.3721430
  42.9433360  85.9163430  59.2870310  40.9763680  72.3909220  55.9569000
  41.8254210  72.8279370  55.8909190  40.6094950  72.7029480  56.7841060
  39.8755100  78.6441580  54.4304530  40.6418370  78.5322940  54.9929960
  39.9529790  77.9479550  53.7781300  38.5701860  76.0766650  55.1137420
  38.6505450  75.1294160  55.2254820  39.4621610  76.4073530  55.2198080
  51.8999040  84.1330830  62.5454830  52.0246460  84.9562000  63.0178640
  52.7664600  83.9221560  62.1978980  39.3716570  86.2262040  62.2171960
  40.1079050  85.6777500  62.4880530  39.7557490  87.0918050  62.0777950
  36.2562050  82.2935610  58.0913470  35.3301830  82.5356750  58.0818880
  36.7218480  83.1209870  57.9698220  38.3774850  85.4108110  71.4057540
  39.1787580  85.7320160  71.8192940  37.8626670  85.0503690  72.1277450
  42.4818880  85.3992350  54.0397530  43.2747490  85.6881180  53.5879320
  41.9623230  84.9684520  53.3610010  47.2139480  81.5187980  71.3532950
  46.6077640  81.5419580  70.6128700  46.9093590  80.7871020  71.8900200
  48.6439850  85.2468270  69.9642360  49.5961600  85.1626290  69.9142600
  48.4968070  85.9109980  70.6376150  51.5349050  84.6262480  55.4634270
  51.2490560  84.2127620  54.6488450  51.3368600  85.5550190  55.3434790
  36.0972660  77.8981570  70.3493590  36.6011680  77.3188850  70.9209820
  35.3580080  78.1821800  70.8869960  42.9996280  80.6195760  53.9039880
  42.8946920  80.0048110  54.6301260  42.8320500  80.0961650  53.1202890
  43.1510600  79.3052560  69.8829110  42.3856270  79.8737560  69.7983780
  43.3326560  79.0128770  68.9897340  50.2933950  81.0357890  70.4404130
  51.0343420  81.3733650  69.9371590  49.5306630  81.2049950  69.8873900
  38.1295740  76.0411160  71.2443660  38.1701080  75.7425030  72.1528890
  38.9841240  76.4418770  71.0851180  41.9074130  78.6406710  56.4047170
  42.3290550  78.4746580  57.2478560  42.0324970  77.8306940  55.9102310
  40.0701550  74.6203260  69.2118150  39.5398010  74.1294210  68.5841490
  40.7389620  75.0487460  68.6776080  48.9679610  79.0872720  68.9759340
  49.3820630  79.2417800  69.8249760  48.0330610  79.2127940  69.1385120
  49.4401780  76.4268880  70.9798490  50.0222550  75.6721200  70.8918970
  49.6163550  76.9576320  70.2029970  40.5573850  71.5865630  69.2915440
  40.4630720  70.9686380  68.5666310  39.9771240  72.3131920  69.0645350
  43.7294840  79.0393200  66.9455270  44.1482950  79.8825930  66.7731510
  42.8103470  79.1765240  66.7162050  40.8033030  74.7139940  53.3505330
  40.6022090  73.8507300  53.7118670  40.6325080  74.6273300  52.4126930
  41.5802260  85.3446210  68.0613000  41.0423350  86.0692270  67.7421700
  41.8336220  84.8676550  67.2710340  39.6015830  71.8140560  53.3383210
  39.9041730  71.8207990  52.4302360  40.3410420  71.4638420  53.8350870
  44.4364470  86.5797420  68.3199650  44.3623170  87.4832560  68.6272020
  43.5343310  86.2609320  68.2921720  42.8200760  70.7575180  54.3239410
  42.4722760  70.0799170  53.7441860  43.0213530  70.2964690  55.1382800
  44.9849800  85.7455930  55.9426010  45.8800590  86.0840900  55.9644770
  45.0167430  85.0235340  55.3150290  38.6245960  81.1182980  54.1713010
  39.0620830  81.6612650  54.8270590  39.1093690  80.2929930  54.1809350
  35.8391760  83.9072010  61.6233270  36.1694770  83.0393070  61.3911910
  36.2682760  84.1130530  62.4538230  40.4353680  82.2381020  59.2835240
  40.1349220  82.1145990  60.1839150  40.3291170  81.3789610  58.8750970
  36.3281970  84.7742600  64.3614900  35.8912960  84.9543400  65.1939050
  36.8959650  85.5317220  64.2196620  51.9644150  84.2759600  68.6492210
  51.3646140  84.3352160  67.9056130  52.0938050  83.3364580  68.7789060
  53.2045600  82.0177420  53.9861920  52.3738560  82.0854070  54.4569150
  53.3817430  82.9081540  53.6828780  36.1606400  77.2862830  60.7203780
  35.5055240  77.0174470  60.0763480  36.9984350  77.1767310  60.2705760
  53.6662030  79.6175000  61.3338050  54.0370860  78.8342320  60.9274020
  54.3063960  80.3064100  61.1555350  50.6495790  81.0011580  66.7468370
  49.8355630  81.4308740  67.0094160  51.0569990  81.6129990  66.1337420
  49.1096840  72.0804120  54.9422270  49.5281720  71.8935100  54.1018930
  48.8032900  71.2283170  55.2525200  37.1982330  77.6715400  65.2607120
  37.5655370  77.5842800  66.1403140  36.6293150  76.9081950  65.1613980
  51.9986190  76.1399780  68.2737590  51.7672280  75.9112530  67.3735540
  52.2590740  77.0599330  68.2282480  36.7498330  74.5824490  69.1665540
  35.8554380  74.5491250  69.5059250  37.2895880  74.7811280  69.9316790
  35.3744480  74.4961760  56.6629110  34.4708560  74.7591960  56.4880770
  35.8585100  74.7672930  55.8829070  52.0627250  75.3025620  65.4624860
  51.1129960  75.2689160  65.5769850  52.2440260  76.2125730  65.2274630
  37.9171690  73.5527300  54.5723490  38.6263390  73.1310520  54.0870770
  37.2011630  73.6202530  53.9406840  37.5645850  69.6066630  53.6126140
  38.2873980  70.1475570  53.9307360  37.8370370  69.3330050  52.7367680
  50.7071840  85.7530180  60.2736640  51.3030910  85.4314750  59.5971060
  50.9649990  85.2802000  61.0649910  37.0070040  69.0128490  66.2574080
  36.6584860  69.4692310  67.0232260  36.6757740  68.1185620  66.3396510
  38.6134410  82.1848090  70.4227270  38.5704040  81.8141000  71.3041730
  38.7445420  83.1225660  70.5629090  42.3140440  83.7407680  66.0236990
  42.0731800  84.0082240  65.1367510  43.2543080  83.9113410  66.0787850
  53.5744600  85.7602060  66.8247630  53.0802880  86.1570930  66.1074760
  52.9657890  85.1351270  67.2184910  38.4522440  85.1310340  67.5425050
  37.8582760  84.9995040  68.2815090  38.4446280  84.2948480  67.0767150
  51.2584050  86.4025480  64.1034370  50.7987020  87.1541290  63.7292390
  50.6296510  85.6831950  64.0449170  38.0834670  82.4968720  66.4933090
  37.3568730  81.8774010  66.4259040  38.1443820  82.8909330  65.6231170
  41.6879770  84.7113720  63.2782500  42.2044790  84.1001080  62.7530760
  42.3377150  85.2142500  63.7693510  44.4275270  85.6022210  64.1051480
  44.7153080  85.3476510  63.2284490  44.9398490  85.0499570  64.6957050
  36.3664670  85.8143110  59.7029850  36.1986710  85.1813790  60.4011740
  35.4999180  86.0202510  59.3524040  36.9892690  69.6459890  57.2061710
  37.7472050  69.7588770  56.6325740  36.5269860  70.4829090  57.1605140
  37.9727370  84.5076340  57.1479990  37.4474990  84.8884370  56.4441950
  37.8971950  85.1327110  57.8689700  39.3617840  70.1723940  55.7463680
  39.8910600  69.3853740  55.6171630  39.9946160  70.8515130  55.9799210
  44.4947630  86.5238310  71.4719680  45.4214940  86.2882580  71.5155640
  44.4798060  87.3510310  70.9905710  52.7292690  86.0663880  58.4693930
  52.9044880  85.3801620  57.8254850  52.0314260  86.5910930  58.0770600
  40.5720340  86.4558720  56.0229240  41.3039160  86.1718000  55.4753130
  40.8314010  86.2172000  56.9128620  39.7335130  82.5723450  56.0275570
  39.1044010  83.0408550  56.5761400  39.8482960  81.7272670  56.4621760
  51.0625190  85.7508170  71.2960720  51.8550510  85.2557400  71.0886680
  51.3558340  86.4298310  71.9036330  47.1884850  76.6229110  42.1776770
  47.1078900  75.7083720  41.9068480  46.7749270  77.1196180  41.4716480
  45.3202890  78.4008130  44.0586040  44.5444990  77.9208570  44.3484610
  45.9715820  77.7213780  43.8842200  39.3368720  78.7127940  44.9361800
  38.5053600  78.4576650  45.3358310  39.9449700  78.7838710  45.6719720
  49.3410320  82.8068320  42.8385170  48.8791850  82.0355560  43.1672340
  50.1535870  82.8334390  43.3437620  39.3169980  82.7468030  45.1319820
  39.6198020  81.8565770  44.9530040  40.0613570  83.3038250  44.9042070
  37.7460670  73.6729830  38.7204190  36.8577370  74.0145800  38.6184070
  38.0301860  73.4730150  37.8285020  35.7093680  76.2735480  44.6043890
  36.2809790  75.5057680  44.6047530  35.7095220  76.5724240  43.6950500
  45.5673630  85.0926330  42.4589160  44.9485070  85.5483830  41.8883600
  46.4225410  85.2477790  42.0578860  44.7611880  81.0765320  44.0656200
  44.6920160  80.1355260  43.9045330  45.5231740  81.1666730  44.6378770
  36.9518550  71.6819840  46.3912820  36.7721390  70.7845590  46.6715580
  36.5498630  72.2291710  47.0659770  45.7917050  73.8835700  44.2925130
  46.1681870  73.0107580  44.1798800  45.6936560  74.2194400  43.4015570
  39.9222060  72.2561330  39.7542570  40.0288810  73.1565060  40.0611330
  39.0114420  72.2079300  39.4637220  49.5741170  71.3786140  41.2253470
  50.3950790  70.8882710  41.2678950  49.6075250  71.9683800  41.9785310
  37.5705220  74.1780340  44.9995160  38.2515330  74.4418710  45.6182560
  37.2553270  73.3381210  45.3333170  41.7629790  75.2247700  44.0867750
  42.2708010  75.7228670  44.7272770  42.2943030  74.4482900  43.9107110
  53.8640720  73.3952890  47.7897100  53.1592890  73.7834600  47.2712210
  54.1298640  74.0903180  48.3918030  40.0465890  69.8646260  48.3531170
  40.0484330  70.3818650  47.5477070  39.2170200  69.3876440  48.3301100
  46.4336980  79.9765570  39.8521070  45.8154250  80.4415020  39.2883790
  46.9460230  80.6693050  40.2690580  41.2968740  79.5041440  46.5304670
  40.9638120  80.1310360  47.1725740  41.4735420  80.0303320  45.7506340
  49.8102650  73.3186520  43.9981010  49.1058220  73.6071410  44.5784120
  50.1714810  74.1286630  43.6380570  39.7281220  71.5756220  46.3601620
  40.0698030  72.4198270  46.0655490  38.7897030  71.7239960  46.4766960
  40.5087840  81.4722240  48.3453850  41.1261840  82.1473320  48.0638300
  39.6480960  81.8810220  48.2541350  35.8020180  80.6622100  37.2260700
  35.4248160  81.1509200  36.4945600  36.0593250  81.3347380  37.8567230
  51.4265430  82.9361650  46.2608490  50.7428950  83.6060760  46.2525160
  51.9659720  83.1342300  45.4953350  52.8789570  72.7641310  44.3890220
  51.9314480  72.7980290  44.5205650  53.2039560  73.5780260  44.7739580
  43.4109110  69.0638490  42.6846210  43.7184090  68.5085380  41.9681710
  42.4809810  69.1982950  42.5019200  48.9624170  84.7805780  44.9753670
  48.9751330  84.3768070  44.1075930  48.4099390  85.5553070  44.8715100
  50.2569590  81.5022000  40.0643840  50.1465920  80.5596330  40.1893260
  50.2537840  81.8637640  40.9506600  48.3609610  79.6835620  46.3036280
  48.7778400  79.4695730  45.4689740  49.0849430  79.9408410  46.8744900
  45.7989870  77.1287320  39.4206330  44.8719150  77.0624700  39.6494800
  45.9514690  78.0667450  39.3061570  45.7858950  73.4004320  36.4173490
  44.8462620  73.5618280  36.5025950  46.1042210  74.1190000  35.8709480
  52.3071710  78.0822840  46.3952520  51.4790340  78.1515930  45.9202650
  52.9022190  78.6677150  45.9268350  49.8287160  78.6907620  39.9241580
  49.2099580  78.3527170  39.2767880  49.8111610  78.0467380  40.6320770
  49.2713720  74.8692160  47.3407390  48.8584900  75.6945870  47.5947380
  48.5389670  74.2837200  47.1483750  41.4046510  77.6552060  42.2026060
  41.0003510  76.9429310  41.7071960  41.4909630  77.3105300  43.0914100
  41.8728210  81.3419620  44.3665270  41.5756500  80.7365090  43.6873050
  42.8228030  81.3796930  44.2554630  40.1175130  74.4295270  45.9825100
  40.6689720  74.5390610  45.2078350  40.6318640  74.8032870  46.6980330
  49.9613820  84.9151490  48.0288370  49.4844380  85.7223680  47.8360980
  49.2775610  84.2629820  48.1814580  40.9646640  81.0801310  51.0173070
  40.0675170  81.3041280  51.2646470  40.9899510  81.2036250  50.0684470
  48.0051860  77.9294430  36.9314330  48.4445140  77.0916860  36.7852150
  48.7180280  78.5623830  37.0178470  39.7917860  77.9514630  49.5930440
  39.6525630  78.8237430  49.9617840  38.9099220  77.6087440  49.4478380
  46.1147240  82.8690500  40.8995570  46.5543150  83.6114830  40.4850960
  46.0534130  83.1117070  41.8234530  41.5898210  83.8936330  51.8015590
  41.5613640  84.2979280  50.9344020  41.4263180  82.9646690  51.6387190
  51.5869000  69.1837240  35.2455370  51.2741660  69.2764070  36.1454440
  52.3481470  69.7618270  35.1952800  38.1051140  76.5497040  39.7032710
  37.9848740  77.2759130  39.0913980  37.7952030  75.7799950  39.2260620
  53.5413030  84.6763430  53.0979760  54.0172750  85.1546320  53.7768840
  54.1620190  84.6080920  52.3725260  35.7436510  79.7212180  45.5101350
  35.8216930  79.8560950  44.5657070  36.3578190  79.0128070  45.7029470
  36.9884140  81.4212370  41.9207530  36.5812220  81.5626960  41.0661130
  37.8797150  81.1372530  41.7178740  52.9446280  81.8676280  50.2579770
  53.0709340  81.6288160  49.3396950  52.9867660  81.0360820  50.7301850
  46.8063020  85.5704280  48.8274580  47.3207690  85.4812290  49.6297010
  45.9632100  85.9163980  49.1202490  48.7817420  85.8559620  38.2558580
  48.6218560  85.5662560  39.1540410  48.6164130  85.0799750  37.7203810
  41.2605800  85.6358150  40.0330200  41.0848280  84.7193690  39.8198000
  40.4061540  85.9945440  40.2728000  48.4843550  83.3647180  36.8156580
  47.7908710  83.3624470  36.1558860  49.2266410  82.9406500  36.3850750
  48.0493480  84.9909890  40.8905070  48.5050430  84.2099270  41.2043690
  48.3886000  85.7016710  41.4346250  52.7970290  73.9208740  51.2229510
  52.1814560  74.4288410  50.6944970  52.4766710  73.0207070  51.1655450
  35.7996030  80.7626350  48.0495810  35.9627070  80.2931710  47.2315180
  36.2648480  80.2549910  48.7144650  40.5714800  69.8932110  43.0856380
  40.1282950  70.6741650  42.7540900  41.1299790  70.2162000  43.7927320
  44.8584610  72.7600630  48.6891700  44.3963980  72.9683650  49.5011640
  44.4562720  71.9459980  48.3862370  46.9538830  75.4811330  51.9187150
  47.2792240  74.6475080  51.5789380  47.7419160  76.0039850  52.0665480
  43.6873620  69.5142810  37.9662210  43.0627800  69.5102680  38.6915520
  43.6003740  68.6473770  37.5698180  42.6090700  70.4379440  44.9445980
  42.9063030  71.3442270  44.8638000  43.1576260  69.9498220  44.3305550
  40.3629020  75.0165680  40.8137630  40.1369940  74.8002850  41.7184250
  39.5821550  75.4494140  40.4683600  47.5926780  75.0229050  39.4128280
  46.9935670  75.7464850  39.2291900  48.1406390  74.9605830  38.6304730
  42.8028230  75.9151260  51.4797900  42.7071830  74.9745990  51.3298300
  43.6460210  76.1366330  51.0845970  46.1991650  73.6592590  41.4431560
  46.5921220  73.9764790  40.6300250  46.5608500  72.7804470  41.5576080
  37.9338770  72.3264930  49.6331680  37.5402160  73.1740140  49.8404460
  37.2457170  71.6891300  49.8240320  44.5083820  72.4099900  52.7028420
  43.8182140  72.2172100  53.3374510  45.2516120  72.6934540  53.2352720
  35.2355820  70.2493390  43.6661760  34.9468870  70.8196250  44.3786740
  35.9801580  69.7697840  44.0292990  35.4226050  74.1913510  34.8764480
  35.3400720  75.1344270  35.0179470  35.0709110  74.0488420  33.9976830
  46.7846790  76.2498340  45.5382340  46.0527910  76.7585150  45.8872440
  46.3871130  75.4328320  45.2371120  43.2224180  72.9252540  43.9434830
  43.2260240  72.4842490  43.0939370  44.1175300  73.2469870  44.0506650
  39.0726560  72.8079030  42.9029040  38.7326610  73.2854260  43.6596090
  38.3103880  72.3544150  42.5430140  43.2844330  73.9264620  36.9341590
  43.4057150  73.8851100  37.8827410  42.8992840  74.7888770  36.7788320
  47.2472700  71.7032020  44.9505280  47.2645440  72.1540670  45.7947130
  46.9988280  70.8037660  45.1638720  42.2965830  76.2365760  36.3324890
  41.7282730  75.7884010  35.7060800  43.0054830  76.5958540  35.7990040
  37.3735010  80.1377780  50.2091620  36.9889800  79.4971450  50.8074580
  37.6847200  80.8413900  50.7786350  43.5232150  76.9854320  45.6900240
  43.8902280  76.5112890  46.4361580  43.3337210  77.8595890  46.0308580
  36.3872640  71.7298010  41.8193710  36.1019560  71.3653680  42.6572330
  36.3251500  70.9978470  41.2056850  41.3131520  76.0262960  48.0084450
  41.0088590  76.9054940  48.2334810  42.2677980  76.0862750  48.0441890
  39.8413310  80.2323950  38.6051300  39.0675570  79.6921570  38.4450020
  40.5707940  79.7130560  38.2669060  50.6001290  79.2289310  44.3977690
  51.3200410  79.7244600  44.0073800  50.3983110  78.5507200  43.7531560
  46.0611230  70.6227270  38.5407080  45.2475840  70.1240440  38.4652390
  45.8673180  71.4625520  38.1243430  45.9820090  79.2998370  50.2846690
  45.9157400  78.3794040  50.0304280  45.3525230  79.3973810  50.9991330
  48.7759620  74.9946920  36.8369240  49.6639240  75.3064150  36.6620580
  48.7464710  74.1219170  36.4449820  39.8850710  79.9004330  42.2430110
  40.4029380  79.0972590  42.1887000  39.4334730  79.8383470  43.0846940
  44.7720210  81.1670610  37.5157410  45.1135910  81.9112840  37.0200730
  43.9432920  81.4801730  37.8782240  37.3695250  76.8665700  49.1555810
  37.0110190  77.5319550  49.7429150  37.0749810  76.0349250  49.5268430
  40.5708370  77.3249940  52.0395360  40.2708510  77.4707120  51.1423180
  41.3419610  76.7655230  51.9468750  45.9136820  82.1218940  50.0350490
  45.9281360  81.1899900  49.8169400  45.2061920  82.2078700  50.6740260
  51.0473890  76.3058760  36.3049100  50.9637610  76.7372980  35.4545540
  51.7668080  76.7657110  36.7375920  52.1248030  78.7626280  49.3819070
  51.3996220  79.3555060  49.1848460  52.6523490  78.7549820  48.5832440
  52.0761140  83.1601020  39.0331230  51.4337300  82.5056640  39.3074950
  51.6891800  83.5656110  38.2571900  47.6547620  80.4886450  42.8802920
  48.0071440  79.8914580  42.2204290  46.7709950  80.1630680  43.0511170
  43.7410900  81.2484140  40.2873330  44.4282030  81.7953350  40.6680920
  42.9543320  81.7924870  40.3222940  35.8803300  76.8656960  35.7790410
  36.7498150  77.1481760  36.0626330  35.3893620  77.6792830  35.6639220
  43.0438110  78.2530170  39.8998690  43.5000890  79.0635420  40.1258880
  42.6926320  77.9353310  40.7317180  45.3470720  83.7636510  47.1290990
  45.9912940  83.9695890  47.8064410  45.7100160  83.0024910  46.6761840
  38.9449890  68.5967820  40.3721210  38.8164520  68.5885720  41.3206130
  38.1211910  68.9350910  40.0212220  46.6202800  81.7668860  45.8468440
  47.2625030  81.0662020  45.9600610  47.1452150  82.5467300  45.6665330
  50.4658520  82.0517480  35.5707580  50.2396100  81.3347920  36.1632220
  50.0754720  81.8029920  34.7329330  48.3940420  82.5663760  49.0504500
  48.7296660  83.1530450  49.7282420  47.4740760  82.4356470  49.2802290
  36.2474550  86.0784340  36.3452040  36.6072190  86.6773680  35.6909310
  36.1066890  86.6244230  37.1187070  35.9443820  70.3558940  49.8327910
  35.2302340  70.5555860  50.4380520  36.3638860  69.5798510  50.2042710
  50.0474770  79.9689420  37.2321740  49.7596470  80.4302110  38.0199620
  50.8426940  79.5087190  37.5005960  36.2316410  84.3439200  50.8194440
  36.3407530  83.4033940  50.6789830  35.5796970  84.6093950  50.1708170
  44.2229000  82.6155090  52.2192560  43.9025870  81.8964330  52.7638250
  43.5487360  83.2910160  52.2928620  42.2643170  83.4615540  37.1625710
  42.2553270  84.1945230  36.5470220  41.3441530  83.2147120  37.2552670
  37.8649810  78.6830430  37.9072470  37.2577760  79.4229330  37.9167770
  38.3399160  78.7729790  37.0810670  47.4382600  72.8481250  47.5829360
  47.8063420  72.0276460  47.9108930  46.5780800  72.9083140  47.9985010
  50.8044630  71.8038190  38.3916920  50.1757790  71.9083860  37.6775150
  50.3096550  72.0234970  39.1810800  45.2502770  83.5243780  35.8250900
  45.3514750  83.3207770  34.8952880  44.3504510  83.2702060  36.0298680
  42.7728660  74.0824140  39.8074800  42.0644810  74.5510480  40.2488410
  43.0573140  73.4246150  40.4419990  44.3984590  75.5020840  47.8067330
  44.8969840  75.9766660  48.4719180  44.5407540  74.5784360  48.0137360
  46.8044090  70.8074800  41.2470590  46.6811870  70.8260930  40.2980100
  47.7528650  70.8553740  41.3668990  43.8920880  86.0430100  40.5198570
  44.1462380  86.0051490  39.5977940  42.9433360  85.9163430  40.5126820
  40.9763680  72.3909220  37.1825510  41.8254210  72.8279370  37.1165700
  40.6094950  72.7029480  38.0097570  49.8973460  76.9621980  42.0957080
  48.9563600  76.9772210  42.2704770  50.2117530  76.1757940  42.5417380
  39.8755100  78.6441580  35.6561040  40.6418370  78.5322940  36.2186470
  39.9529790  77.9479550  35.0037810  38.5701860  76.0766650  36.3393930
  38.6505450  75.1294160  36.4511330  39.4621610  76.4073530  36.4454590
  51.8999040  84.1330830  43.7711340  52.0246460  84.9562000  44.2435150
  52.7664600  83.9221560  43.4235490  39.3716570  86.2262040  43.4428470
  40.1079050  85.6777500  43.7137040  39.7557490  87.0918050  43.3034460
  36.2562050  82.2935610  39.3169980  35.3301830  82.5356750  39.3075390
  36.7218480  83.1209870  39.1954730  38.3774850  85.4108110  52.6314050
  39.1787580  85.7320160  53.0449450  37.8626670  85.0503690  53.3533960
  42.4818880  85.3992350  35.2654040  43.2747490  85.6881180  34.8135830
  41.9623230  84.9684520  34.5866520  47.2139480  81.5187980  52.5789460
  46.6077640  81.5419580  51.8385210  46.9093590  80.7871020  53.1156710
  48.6439850  85.2468270  51.1898870  49.5961600  85.1626290  51.1399110
  48.4968070  85.9109980  51.8632660  51.5349050  84.6262480  36.6890780
  51.2490560  84.2127620  35.8744960  51.3368600  85.5550190  36.5691300
  36.0972660  77.8981570  51.5750100  36.6011680  77.3188850  52.1466330
  35.3580080  78.1821800  52.1126470  42.9996280  80.6195760  35.1296390
  42.8946920  80.0048110  35.8557770  42.8320500  80.0961650  34.3459400
  43.1510600  79.3052560  51.1085620  42.3856270  79.8737560  51.0240290
  43.3326560  79.0128770  50.2153850  46.2399010  79.6815790  35.7338380
  45.6909110  80.1285090  36.3781120  46.8618270  79.1765040  36.2576050
  50.2933950  81.0357890  51.6660640  51.0343420  81.3733650  51.1628100
  49.5306630  81.2049950  51.1130410  38.1295740  76.0411160  52.4700170
  38.1701080  75.7425030  53.3785400  38.9841240  76.4418770  52.3107690
  41.9074130  78.6406710  37.6303680  42.3290550  78.4746580  38.4735070
  42.0324970  77.8306940  37.1358820  40.0701550  74.6203260  50.4374660
  39.5398010  74.1294210  49.8098000  40.7389620  75.0487460  49.9032590
  44.4201770  77.6644320  34.8780780  44.9407430  76.9493340  34.5121930
  45.0670170  78.3030190  35.1781290  48.9679610  79.0872720  50.2015850
  49.3820630  79.2417800  51.0506270  48.0330610  79.2127940  50.3641630
  49.4401780  76.4268880  52.2055000  50.0222550  75.6721200  52.1175480
  49.6163550  76.9576320  51.4286480  40.5573850  71.5865630  50.5171950
  40.4630720  70.9686380  49.7922820  39.9771240  72.3131920  50.2901860
  43.7294840  79.0393200  48.1711780  44.1482950  79.8825930  47.9988020
  42.8103470  79.1765240  47.9418560  46.0658740  76.7709380  49.5549620
  46.1854950  76.1750520  50.2944460  46.9252740  76.8079070  49.1350920
  48.4046640  77.3246570  48.1312130  47.8781860  77.8489190  47.5277270
  48.7477980  77.9573960  48.7621860  40.8033030  74.7139940  34.5761840
  40.6022090  73.8507300  34.9375180  40.6325080  74.6273300  33.6383440
  41.5802260  85.3446210  49.2869510  41.0423350  86.0692270  48.9678210
  41.8336220  84.8676550  48.4966850  42.8327510  73.3130730  50.8125440
  43.4227200  73.0046580  51.5003260  42.0147750  72.8410480  50.9685340
  47.6520940  72.9296540  51.0458460  46.9636460  72.2678080  50.9808450
  48.3726960  72.4834810  51.4906920  48.2821340  69.5248170  37.1048720
  48.5623630  68.6816070  37.4608140  47.5087070  69.7571280  37.6187470
  39.6015830  71.8140560  34.5639720  39.9041730  71.8207990  33.6558870
  40.3410420  71.4638420  35.0607380  44.4364470  86.5797420  49.5456160
  44.3623170  87.4832560  49.8528530  43.5343310  86.2609320  49.5178230
  42.8200760  70.7575180  35.5495920  42.4722760  70.0799170  34.9698370
  43.0213530  70.2964690  36.3639310  44.9849800  85.7455930  37.1682520
  45.8800590  86.0840900  37.1901280  45.0167430  85.0235340  36.5406800
  38.6245960  81.1182980  35.3969520  39.0620830  81.6612650  36.0527100
  39.1093690  80.2929930  35.4065860  35.8391760  83.9072010  42.8489780
  36.1694770  83.0393070  42.6168420  36.2682760  84.1130530  43.6794740
  40.4353680  82.2381020  40.5091750  40.1349220  82.1145990  41.4095660
  40.3291170  81.3789610  40.1007480  36.3281970  84.7742600  45.5871410
  35.8912960  84.9543400  46.4195560  36.8959650  85.5317220  45.4453130
  51.9644150  84.2759600  49.8748720  51.3646140  84.3352160  49.1312640
  52.0938050  83.3364580  50.0045570  53.2045600  82.0177420  35.2118430
  52.3738560  82.0854070  35.6825660  53.3817430  82.9081540  34.9085290
  52.6602060  78.7624900  37.7152630  53.4220970  79.3321550  37.8212320
  52.6756430  78.1952100  38.4860940  36.1606400  77.2862830  41.9460290
  35.5055240  77.0174470  41.3019990  36.9984350  77.1767310  41.4962270
  53.6662030  79.6175000  42.5594560  54.0370860  78.8342320  42.1530530
  54.3063960  80.3064100  42.3811860  50.6495790  81.0011580  47.9724880
  49.8355630  81.4308740  48.2350670  51.0569990  81.6129990  47.3593930
  52.7121230  79.0559270  34.8725150  52.9870070  79.9638150  34.7444370
  52.5231970  78.9921800  35.8087140  49.1096840  72.0804120  36.1678780
  49.5281720  71.8935100  35.3275440  48.8032900  71.2283170  36.4781710
  52.6086570  76.9928260  39.8654580  52.2330170  76.2256190  39.4335870
  51.8789690  77.3750960  40.3529510  37.1982330  77.6715400  46.4863630
  37.5655370  77.5842800  47.3659650  36.6293150  76.9081950  46.3870490
  51.9986190  76.1399780  49.4994100  51.7672280  75.9112530  48.5992050
  52.2590740  77.0599330  49.4538990  36.7498330  74.5824490  50.3922050
  35.8554380  74.5491250  50.7315760  37.2895880  74.7811280  51.1573300
  35.3744480  74.4961760  37.8885620  34.4708560  74.7591960  37.7137280
  35.8585100  74.7672930  37.1085580  51.8837530  75.2185750  43.1661820
  52.4075010  74.7248400  42.5351990  52.4696950  75.3536110  43.9109390
  52.0627250  75.3025620  46.6881370  51.1129960  75.2689160  46.8026360
  52.2440260  76.2125730  46.4531140  37.9171690  73.5527300  35.7980000
  38.6263390  73.1310520  35.3127280  37.2011630  73.6202530  35.1663350
  37.5645850  69.6066630  34.8382650  38.2873980  70.1475570  35.1563870
  37.8370370  69.3330050  33.9624190  51.3737500  74.4759100  39.1054230
  51.8696620  74.2429970  39.8903110  51.1753570  73.6370940  38.6891870
  37.2538040  68.8572820  44.7405270  37.9014230  68.3070200  44.3000430
  37.6739880  69.1115970  45.5621080  52.8024660  73.1120050  41.6391910
  52.6923940  72.9576090  42.5774180  53.5632250  72.5840990  41.3967320
  53.6914930  70.9427970  34.8798050  54.6164240  70.8109150  34.6716340
  53.6690720  71.0220790  35.8334500  53.7653420  71.7138630  37.5054760
  52.9704920  71.6483750  38.0347670  53.9696700  72.6489270  37.4940110
  50.7071840  85.7530180  41.4993150  51.3030910  85.4314750  40.8227570
  50.9649990  85.2802000  42.2906420  37.0070040  69.0128490  47.4830590
  36.6584860  69.4692310  48.2488770  36.6757740  68.1185620  47.5653020
  38.6134410  82.1848090  51.6483780  38.5704040  81.8141000  52.5298240
  38.7445420  83.1225660  51.7885600  42.3140440  83.7407680  47.2493500
  42.0731800  84.0082240  46.3624020  43.2543080  83.9113410  47.3044360
  44.5194860  70.2040370  51.0050010  44.4583750  70.7962200  51.7545420
  45.4595240  70.0966330  50.8600270  47.1569420  69.8610430  50.6442300
  47.7709830  70.1789720  49.9823380  47.7018980  69.3759020  51.2638160
  53.5744600  85.7602060  48.0504140  53.0802880  86.1570930  47.3331270
  52.9657890  85.1351270  48.4441420  37.6790680  68.5404690  50.7581360
  38.2273670  68.3592740  49.9947470  37.7445990  67.7498800  51.2937670
  38.4522440  85.1310340  48.7681560  37.8582760  84.9995040  49.5071600
  38.4446280  84.2948480  48.3023660  47.8977460  68.4242570  46.9711590
  47.0237300  68.7577680  46.7684520  47.7888210  67.9515750  47.7963460
  51.2584050  86.4025480  45.3290880  50.7987020  87.1541290  44.9548900
  50.6296510  85.6831950  45.2705680  38.0834670  82.4968720  47.7189600
  37.3568730  81.8774010  47.6515550  38.1443820  82.8909330  46.8487680
  41.6879770  84.7113720  44.5039010  42.2044790  84.1001080  43.9787270
  42.3377150  85.2142500  44.9950020  44.4275270  85.6022210  45.3307990
  44.7153080  85.3476510  44.4541000  44.9398490  85.0499570  45.9213560
  50.1973350  70.0435510  43.9553590  50.6381440  69.9880610  43.1075190
  49.9280940  70.9593520  44.0263770  52.0611920  69.6750750  41.9662410
  52.0000320  68.7311970  41.8193430  52.8403950  69.7830840  42.5115870
  36.3664670  85.8143110  40.9286360  36.1986710  85.1813790  41.6268250
  35.4999180  86.0202510  40.5780550  36.9892690  69.6459890  38.4318220
  37.7472050  69.7588770  37.8582250  36.5269860  70.4829090  38.3861650
  43.5306500  71.7599160  41.4220530  42.7181010  71.3856050  41.0816410
  44.0348140  71.0044240  41.7241720  48.0331480  68.4241610  42.6603600
  48.6360850  68.9961820  43.1352120  47.2924470  68.9881050  42.4377500
  51.1766080  68.8263170  37.9343880  51.3716710  69.7246620  38.2011310
  50.3895950  68.5950250  38.4276830  37.9727370  84.5076340  38.3736500
  37.4474990  84.8884370  37.6698460  37.8971950  85.1327110  39.0946210
  39.3617840  70.1723940  36.9720190  39.8910600  69.3853740  36.8428140
  39.9946160  70.8515130  37.2055720  41.5555680  69.9099080  40.0265580
  40.9258420  69.2086390  40.1935710  41.0160820  70.6703210  39.8098740
  44.4947630  86.5238310  52.6976190  45.4214940  86.2882580  52.7412150
  44.4798060  87.3510310  52.2162220  52.7292690  86.0663880  39.6950440
  52.9044880  85.3801620  39.0511360  52.0314260  86.5910930  39.3027110
  41.6811240  69.1883060  52.4618070  41.3995510  69.6916660  51.6978890
  42.0630940  68.3904810  52.0960200  40.5720340  86.4558720  37.2485750
  41.3039160  86.1718000  36.7009640  40.8314010  86.2172000  38.1385130
  39.7335130  82.5723450  37.2532080  39.1044010  83.0408550  37.8017910
  39.8482960  81.7272670  37.6878270  51.0625190  85.7508170  52.5217230
  51.8550510  85.2557400  52.3143190  51.3558340  86.4298310  53.1292840
  47.1884850  76.6229110  23.4033280  47.1078900  75.7083720  23.1324990
  46.7749270  77.1196180  22.6972990  45.3202890  78.4008130  25.2842550
  44.5444990  77.9208570  25.5741120  45.9715820  77.7213780  25.1098710
  39.3368720  78.7127940  26.1618310  38.5053600  78.4576650  26.5614820
  39.9449700  78.7838710  26.8976230  49.3410320  82.8068320  24.0641680
  48.8791850  82.0355560  24.3928850  50.1535870  82.8334390  24.5694130
  39.3169980  82.7468030  26.3576330  39.6198020  81.8565770  26.1786550
  40.0613570  83.3038250  26.1298580  37.7460670  73.6729830  19.9460700
  36.8577370  74.0145800  19.8440580  38.0301860  73.4730150  19.0541530
  35.7093680  76.2735480  25.8300400  36.2809790  75.5057680  25.8304040
  35.7095220  76.5724240  24.9207010  45.5673630  85.0926330  23.6845670
  44.9485070  85.5483830  23.1140110  46.4225410  85.2477790  23.2835370
  44.7611880  81.0765320  25.2912710  44.6920160  80.1355260  25.1301840
  45.5231740  81.1666730  25.8635280  36.9518550  71.6819840  27.6169330
  36.7721390  70.7845590  27.8972090  36.5498630  72.2291710  28.2916280
  45.7917050  73.8835700  25.5181640  46.1681870  73.0107580  25.4055310
  45.6936560  74.2194400  24.6272080  39.9222060  72.2561330  20.9799080
  40.0288810  73.1565060  21.2867840  39.0114420  72.2079300  20.6893730
  49.5741170  71.3786140  22.4509980  50.3950790  70.8882710  22.4935460
  49.6075250  71.9683800  23.2041820  37.5705220  74.1780340  26.2251670
  38.2515330  74.4418710  26.8439070  37.2553270  73.3381210  26.5589680
  41.7629790  75.2247700  25.3124260  42.2708010  75.7228670  25.9529280
  42.2943030  74.4482900  25.1363620  53.8640720  73.3952890  29.0153610
  53.1592890  73.7834600  28.4968720  54.1298640  74.0903180  29.6174540
  40.0465890  69.8646260  29.5787680  40.0484330  70.3818650  28.7733580
  39.2170200  69.3876440  29.5557610  46.4336980  79.9765570  21.0777580
  45.8154250  80.4415020  20.5140300  46.9460230  80.6693050  21.4947090
  41.2968740  79.5041440  27.7561180  40.9638120  80.1310360  28.3982250
  41.4735420  80.0303320  26.9762850  49.8102650  73.3186520  25.2237520
  49.1058220  73.6071410  25.8040630  50.1714810  74.1286630  24.8637080
  39.7281220  71.5756220  27.5858130  40.0698030  72.4198270  27.2912000
  38.7897030  71.7239960  27.7023470  40.5087840  81.4722240  29.5710360
  41.1261840  82.1473320  29.2894810  39.6480960  81.8810220  29.4797860
  35.8020180  80.6622100  18.4517210  35.4248160  81.1509200  17.7202110
  36.0593250  81.3347380  19.0823740  51.4265430  82.9361650  27.4865000
  50.7428950  83.6060760  27.4781670  51.9659720  83.1342300  26.7209860
  52.8789570  72.7641310  25.6146730  51.9314480  72.7980290  25.7462160
  53.2039560  73.5780260  25.9996090  43.4109110  69.0638490  23.9102720
  43.7184090  68.5085380  23.1938220  42.4809810  69.1982950  23.7275710
  48.9624170  84.7805780  26.2010180  48.9751330  84.3768070  25.3332440
  48.4099390  85.5553070  26.0971610  50.2569590  81.5022000  21.2900350
  50.1465920  80.5596330  21.4149770  50.2537840  81.8637640  22.1763110
  48.3609610  79.6835620  27.5292790  48.7778400  79.4695730  26.6946250
  49.0849430  79.9408410  28.1001410  45.7989870  77.1287320  20.6462840
  44.8719150  77.0624700  20.8751310  45.9514690  78.0667450  20.5318080
  45.7858950  73.4004320  17.6430000  44.8462620  73.5618280  17.7282460
  46.1042210  74.1190000  17.0965990  52.3071710  78.0822840  27.6209030
  51.4790340  78.1515930  27.1459160  52.9022190  78.6677150  27.1524860
  49.8287160  78.6907620  21.1498090  49.2099580  78.3527170  20.5024390
  49.8111610  78.0467380  21.8577280  49.2713720  74.8692160  28.5663900
  48.8584900  75.6945870  28.8203890  48.5389670  74.2837200  28.3740260
  41.4046510  77.6552060  23.4282570  41.0003510  76.9429310  22.9328470
  41.4909630  77.3105300  24.3170610  41.8728210  81.3419620  25.5921780
  41.5756500  80.7365090  24.9129560  42.8228030  81.3796930  25.4811140
  40.1175130  74.4295270  27.2081610  40.6689720  74.5390610  26.4334860
  40.6318640  74.8032870  27.9236840  49.9613820  84.9151490  29.2544880
  49.4844380  85.7223680  29.0617490  49.2775610  84.2629820  29.4071090
  40.9646640  81.0801310  32.2429580  40.0675170  81.3041280  32.4902980
  40.9899510  81.2036250  31.2940980  48.0051860  77.9294430  18.1570840
  48.4445140  77.0916860  18.0108660  48.7180280  78.5623830  18.2434980
  39.7917860  77.9514630  30.8186950  39.6525630  78.8237430  31.1874350
  38.9099220  77.6087440  30.6734890  46.1147240  82.8690500  22.1252080
  46.5543150  83.6114830  21.7107470  46.0534130  83.1117070  23.0491040
  41.5898210  83.8936330  33.0272100  41.5613640  84.2979280  32.1600530
  41.4263180  82.9646690  32.8643700  51.5869000  69.1837240  16.4711880
  51.2741660  69.2764070  17.3710950  52.3481470  69.7618270  16.4209310
  38.1051140  76.5497040  20.9289220  37.9848740  77.2759130  20.3170490
  37.7952030  75.7799950  20.4517130  53.5413030  84.6763430  34.3236270
  54.0172750  85.1546320  35.0025350  54.1620190  84.6080920  33.5981770
  35.7436510  79.7212180  26.7357860  35.8216930  79.8560950  25.7913580
  36.3578190  79.0128070  26.9285980  36.9884140  81.4212370  23.1464040
  36.5812220  81.5626960  22.2917640  37.8797150  81.1372530  22.9435250
  52.9446280  81.8676280  31.4836280  53.0709340  81.6288160  30.5653460
  52.9867660  81.0360820  31.9558360  46.8063020  85.5704280  30.0531090
  47.3207690  85.4812290  30.8553520  45.9632100  85.9163980  30.3459000
  48.7817420  85.8559620  19.4815090  48.6218560  85.5662560  20.3796920
  48.6164130  85.0799750  18.9460320  41.2605800  85.6358150  21.2586710
  41.0848280  84.7193690  21.0454510  40.4061540  85.9945440  21.4984510
  48.4843550  83.3647180  18.0413090  47.7908710  83.3624470  17.3815370
  49.2266410  82.9406500  17.6107260  48.0493480  84.9909890  22.1161580
  48.5050430  84.2099270  22.4300200  48.3886000  85.7016710  22.6602760
  52.7970290  73.9208740  32.4486020  52.1814560  74.4288410  31.9201480
  52.4766710  73.0207070  32.3911960  35.7996030  80.7626350  29.2752320
  35.9627070  80.2931710  28.4571690  36.2648480  80.2549910  29.9401160
  40.5714800  69.8932110  24.3112890  40.1282950  70.6741650  23.9797410
  41.1299790  70.2162000  25.0183830  44.8584610  72.7600630  29.9148210
  44.3963980  72.9683650  30.7268150  44.4562720  71.9459980  29.6118880
  49.8589120  73.9809580  31.0444870  49.0082710  73.6815330  31.3653940
  49.6990910  74.2251590  30.1328690  46.9538830  75.4811330  33.1443660
  47.2792240  74.6475080  32.8045890  47.7419160  76.0039850  33.2921990
  43.6873620  69.5142810  19.1918720  43.0627800  69.5102680  19.9172030
  43.6003740  68.6473770  18.7954690  42.6090700  70.4379440  26.1702490
  42.9063030  71.3442270  26.0894510  43.1576260  69.9498220  25.5562060
  40.3629020  75.0165680  22.0394140  40.1369940  74.8002850  22.9440760
  39.5821550  75.4494140  21.6940110  47.5926780  75.0229050  20.6384790
  46.9935670  75.7464850  20.4548410  48.1406390  74.9605830  19.8561240
  42.8028230  75.9151260  32.7054410  42.7071830  74.9745990  32.5554810
  43.6460210  76.1366330  32.3102480  46.1991650  73.6592590  22.6688070
  46.5921220  73.9764790  21.8556760  46.5608500  72.7804470  22.7832590
  37.9338770  72.3264930  30.8588190  37.5402160  73.1740140  31.0660970
  37.2457170  71.6891300  31.0496830  44.5083820  72.4099900  33.9284930
  43.8182140  72.2172100  34.5631020  45.2516120  72.6934540  34.4609230
  35.2355820  70.2493390  24.8918270  34.9468870  70.8196250  25.6043250
  35.9801580  69.7697840  25.2549500  35.4226050  74.1913510  16.1020990
  35.3400720  75.1344270  16.2435980  35.0709110  74.0488420  15.2233340
  46.7846790  76.2498340  26.7638850  46.0527910  76.7585150  27.1128950
  46.3871130  75.4328320  26.4627630  43.2224180  72.9252540  25.1691340
  43.2260240  72.4842490  24.3195880  44.1175300  73.2469870  25.2763160
  39.0726560  72.8079030  24.1285550  38.7326610  73.2854260  24.8852600
  38.3103880  72.3544150  23.7686650  43.2844330  73.9264620  18.1598100
  43.4057150  73.8851100  19.1083920  42.8992840  74.7888770  18.0044830
  47.2472700  71.7032020  26.1761790  47.2645440  72.1540670  27.0203640
  46.9988280  70.8037660  26.3895230  42.2965830  76.2365760  17.5581400
  41.7282730  75.7884010  16.9317310  43.0054830  76.5958540  17.0246550
  50.6743450  69.1164200  32.0148170  50.9989220  68.3853860  32.5406150
  50.7099960  68.7977840  31.1129160  37.3735010  80.1377780  31.4348130
  36.9889800  79.4971450  32.0331090  37.6847200  80.8413900  32.0042860
  43.5232150  76.9854320  26.9156750  43.8902280  76.5112890  27.6618090
  43.3337210  77.8595890  27.2565090  36.3872640  71.7298010  23.0450220
  36.1019560  71.3653680  23.8828840  36.3251500  70.9978470  22.4313360
  41.3131520  76.0262960  29.2340960  41.0088590  76.9054940  29.4591320
  42.2677980  76.0862750  29.2698400  39.8413310  80.2323950  19.8307810
  39.0675570  79.6921570  19.6706530  40.5707940  79.7130560  19.4925570
  50.6001290  79.2289310  25.6234200  51.3200410  79.7244600  25.2330310
  50.3983110  78.5507200  24.9788070  46.0611230  70.6227270  19.7663590
  45.2475840  70.1240440  19.6908900  45.8673180  71.4625520  19.3499940
  45.9820090  79.2998370  31.5103200  45.9157400  78.3794040  31.2560790
  45.3525230  79.3973810  32.2247840  48.7759620  74.9946920  18.0625750
  49.6639240  75.3064150  17.8877090  48.7464710  74.1219170  17.6706330
  39.8850710  79.9004330  23.4686620  40.4029380  79.0972590  23.4143510
  39.4334730  79.8383470  24.3103450  44.7720210  81.1670610  18.7413920
  45.1135910  81.9112840  18.2457240  43.9432920  81.4801730  19.1038750
  37.3695250  76.8665700  30.3812320  37.0110190  77.5319550  30.9685660
  37.0749810  76.0349250  30.7524940  40.5708370  77.3249940  33.2651870
  40.2708510  77.4707120  32.3679690  41.3419610  76.7655230  33.1725260
  45.9136820  82.1218940  31.2607000  45.9281360  81.1899900  31.0425910
  45.2061920  82.2078700  31.8996770  51.0473890  76.3058760  17.5305610
  50.9637610  76.7372980  16.6802050  51.7668080  76.7657110  17.9632430
  52.1248030  78.7626280  30.6075580  51.3996220  79.3555060  30.4104970
  52.6523490  78.7549820  29.8088950  52.0761140  83.1601020  20.2587740
  51.4337300  82.5056640  20.5331460  51.6891800  83.5656110  19.4828410
  47.6547620  80.4886450  24.1059430  48.0071440  79.8914580  23.4460800
  46.7709950  80.1630680  24.2767680  43.7410900  81.2484140  21.5129840
  44.4282030  81.7953350  21.8937430  42.9543320  81.7924870  21.5479450
  35.8803300  76.8656960  17.0046920  36.7498150  77.1481760  17.2882840
  35.3893620  77.6792830  16.8895730  43.0438110  78.2530170  21.1255200
  43.5000890  79.0635420  21.3515390  42.6926320  77.9353310  21.9573690
  45.3470720  83.7636510  28.3547500  45.9912940  83.9695890  29.0320920
  45.7100160  83.0024910  27.9018350  38.9449890  68.5967820  21.5977720
  38.8164520  68.5885720  22.5462640  38.1211910  68.9350910  21.2468730
  46.6202800  81.7668860  27.0724950  47.2625030  81.0662020  27.1857120
  47.1452150  82.5467300  26.8921840  50.4658520  82.0517480  16.7964090
  50.2396100  81.3347920  17.3888730  50.0754720  81.8029920  15.9585840
  48.3940420  82.5663760  30.2761010  48.7296660  83.1530450  30.9538930
  47.4740760  82.4356470  30.5058800  36.2474550  86.0784340  17.5708550
  36.6072190  86.6773680  16.9165820  36.1066890  86.6244230  18.3443580
  35.9443820  70.3558940  31.0584420  35.2302340  70.5555860  31.6637030
  36.3638860  69.5798510  31.4299220  50.0474770  79.9689420  18.4578250
  49.7596470  80.4302110  19.2456130  50.8426940  79.5087190  18.7262470
  36.2316410  84.3439200  32.0450950  36.3407530  83.4033940  31.9046340
  35.5796970  84.6093950  31.3964680  44.2229000  82.6155090  33.4449070
  43.9025870  81.8964330  33.9894760  43.5487360  83.2910160  33.5185130
  42.2643170  83.4615540  18.3882220  42.2553270  84.1945230  17.7726730
  41.3441530  83.2147120  18.4809180  37.8649810  78.6830430  19.1328980
  37.2577760  79.4229330  19.1424280  38.3399160  78.7729790  18.3067180
  47.4382600  72.8481250  28.8085870  47.8063420  72.0276460  29.1365440
  46.5780800  72.9083140  29.2241520  50.8044630  71.8038190  19.6173430
  50.1757790  71.9083860  18.9031660  50.3096550  72.0234970  20.4067310
  45.2502770  83.5243780  17.0507410  45.3514750  83.3207770  16.1209390
  44.3504510  83.2702060  17.2555190  42.7728660  74.0824140  21.0331310
  42.0644810  74.5510480  21.4744920  43.0573140  73.4246150  21.6676500
  44.3984590  75.5020840  29.0323840  44.8969840  75.9766660  29.6975690
  44.5407540  74.5784360  29.2393870  46.8044090  70.8074800  22.4727100
  46.6811870  70.8260930  21.5236610  47.7528650  70.8553740  22.5925500
  43.8920880  86.0430100  21.7455080  44.1462380  86.0051490  20.8234450
  42.9433360  85.9163430  21.7383330  40.9763680  72.3909220  18.4082020
  41.8254210  72.8279370  18.3422210  40.6094950  72.7029480  19.2354080
  51.6051450  71.7188800  29.8752230  51.1025050  72.4594200  30.2146040
  52.4208110  72.1072800  29.5589020  49.8973460  76.9621980  23.3213590
  48.9563600  76.9772210  23.4961280  50.2117530  76.1757940  23.7673890
  39.8755100  78.6441580  16.8817550  40.6418370  78.5322940  17.4442980
  39.9529790  77.9479550  16.2294320  38.5701860  76.0766650  17.5650440
  38.6505450  75.1294160  17.6767840  39.4621610  76.4073530  17.6711100
  51.8999040  84.1330830  24.9967850  52.0246460  84.9562000  25.4691660
  52.7664600  83.9221560  24.6492000  39.3716570  86.2262040  24.6684980
  40.1079050  85.6777500  24.9393550  39.7557490  87.0918050  24.5290970
  36.2562050  82.2935610  20.5426490  35.3301830  82.5356750  20.5331900
  36.7218480  83.1209870  20.4211240  38.3774850  85.4108110  33.8570560
  39.1787580  85.7320160  34.2705960  37.8626670  85.0503690  34.5790470
  42.4818880  85.3992350  16.4910550  43.2747490  85.6881180  16.0392340
  41.9623230  84.9684520  15.8123030  47.2139480  81.5187980  33.8045970
  46.6077640  81.5419580  33.0641720  46.9093590  80.7871020  34.3413220
  48.6439850  85.2468270  32.4155380  49.5961600  85.1626290  32.3655620
  48.4968070  85.9109980  33.0889170  51.5349050  84.6262480  17.9147290
  51.2490560  84.2127620  17.1001470  51.3368600  85.5550190  17.7947810
  36.0972660  77.8981570  32.8006610  36.6011680  77.3188850  33.3722840
  35.3580080  78.1821800  33.3382980  42.9996280  80.6195760  16.3552900
  42.8946920  80.0048110  17.0814280  42.8320500  80.0961650  15.5715910
  43.1510600  79.3052560  32.3342130  42.3856270  79.8737560  32.2496800
  43.3326560  79.0128770  31.4410360  46.2399010  79.6815790  16.9594890
  45.6909110  80.1285090  17.6037630  46.8618270  79.1765040  17.4832560
  50.2933950  81.0357890  32.8917150  51.0343420  81.3733650  32.3884610
  49.5306630  81.2049950  32.3386920  38.1295740  76.0411160  33.6956680
  38.1701080  75.7425030  34.6041910  38.9841240  76.4418770  33.5364200
  41.9074130  78.6406710  18.8560190  42.3290550  78.4746580  19.6991580
  42.0324970  77.8306940  18.3615330  40.0701550  74.6203260  31.6631170
  39.5398010  74.1294210  31.0354510  40.7389620  75.0487460  31.1289100
  44.4201770  77.6644320  16.1037290  44.9407430  76.9493340  15.7378440
  45.0670170  78.3030190  16.4037800  48.9679610  79.0872720  31.4272360
  49.3820630  79.2417800  32.2762780  48.0330610  79.2127940  31.5898140
  49.4401780  76.4268880  33.4311510  50.0222550  75.6721200  33.3431990
  49.6163550  76.9576320  32.6542990  40.5573850  71.5865630  31.7428460
  40.4630720  70.9686380  31.0179330  39.9771240  72.3131920  31.5158370
  43.3235290  70.1438870  28.7755850  42.8752590  70.1663130  27.9301400
  42.6900490  69.7457890  29.3726150  43.7294840  79.0393200  29.3968290
  44.1482950  79.8825930  29.2244530  42.8103470  79.1765240  29.1675070
  46.0658740  76.7709380  30.7806130  46.1854950  76.1750520  31.5200970
  46.9252740  76.8079070  30.3607430  48.4046640  77.3246570  29.3568640
  47.8781860  77.8489190  28.7533780  48.7477980  77.9573960  29.9878370
  40.8033030  74.7139940  15.8018350  40.6022090  73.8507300  16.1631690
  40.6325080  74.6273300  14.8639950  41.5802260  85.3446210  30.5126020
  41.0423350  86.0692270  30.1934720  41.8336220  84.8676550  29.7223360
  42.8327510  73.3130730  32.0381950  43.4227200  73.0046580  32.7259770
  42.0147750  72.8410480  32.1941850  47.6520940  72.9296540  32.2714970
  46.9636460  72.2678080  32.2064960  48.3726960  72.4834810  32.7163430
  48.2821340  69.5248170  18.3305230  48.5623630  68.6816070  18.6864650
  47.5087070  69.7571280  18.8443980  39.6015830  71.8140560  15.7896230
  39.9041730  71.8207990  14.8815380  40.3410420  71.4638420  16.2863890
  44.4364470  86.5797420  30.7712670  44.3623170  87.4832560  31.0785040
  43.5343310  86.2609320  30.7434740  42.8200760  70.7575180  16.7752430
  42.4722760  70.0799170  16.1954880  43.0213530  70.2964690  17.5895820
  44.9849800  85.7455930  18.3939030  45.8800590  86.0840900  18.4157790
  45.0167430  85.0235340  17.7663310  38.6245960  81.1182980  16.6226030
  39.0620830  81.6612650  17.2783610  39.1093690  80.2929930  16.6322370
  35.8391760  83.9072010  24.0746290  36.1694770  83.0393070  23.8424930
  36.2682760  84.1130530  24.9051250  40.4353680  82.2381020  21.7348260
  40.1349220  82.1145990  22.6352170  40.3291170  81.3789610  21.3263990
  36.3281970  84.7742600  26.8127920  35.8912960  84.9543400  27.6452070
  36.8959650  85.5317220  26.6709640  51.9644150  84.2759600  31.1005230
  51.3646140  84.3352160  30.3569150  52.0938050  83.3364580  31.2302080
  53.2045600  82.0177420  16.4374940  52.3738560  82.0854070  16.9082170
  53.3817430  82.9081540  16.1341800  52.6602060  78.7624900  18.9409140
  53.4220970  79.3321550  19.0468830  52.6756430  78.1952100  19.7117450
  36.1606400  77.2862830  23.1716800  35.5055240  77.0174470  22.5276500
  36.9984350  77.1767310  22.7218780  53.6662030  79.6175000  23.7851070
  54.0370860  78.8342320  23.3787040  54.3063960  80.3064100  23.6068370
  50.6495790  81.0011580  29.1981390  49.8355630  81.4308740  29.4607180
  51.0569990  81.6129990  28.5850440  52.7121230  79.0559270  16.0981660
  52.9870070  79.9638150  15.9700880  52.5231970  78.9921800  17.0343650
  49.1096840  72.0804120  17.3935290  49.5281720  71.8935100  16.5531950
  48.8032900  71.2283170  17.7038220  52.6086570  76.9928260  21.0911090
  52.2330170  76.2256190  20.6592380  51.8789690  77.3750960  21.5786020
  37.1982330  77.6715400  27.7120140  37.5655370  77.5842800  28.5916160
  36.6293150  76.9081950  27.6127000  51.9986190  76.1399780  30.7250610
  51.7672280  75.9112530  29.8248560  52.2590740  77.0599330  30.6795500
  36.7498330  74.5824490  31.6178560  35.8554380  74.5491250  31.9572270
  37.2895880  74.7811280  32.3829810  50.4374260  71.3656210  33.5030310
  51.3144440  71.3739610  33.8864310  50.4495100  70.6287050  32.8922660
  35.3744480  74.4961760  19.1142130  34.4708560  74.7591960  18.9393790
  35.8585100  74.7672930  18.3342090  51.8837530  75.2185750  24.3918330
  52.4075010  74.7248400  23.7608500  52.4696950  75.3536110  25.1365900
  52.0627250  75.3025620  27.9137880  51.1129960  75.2689160  28.0282870
  52.2440260  76.2125730  27.6787650  37.9171690  73.5527300  17.0236510
  38.6263390  73.1310520  16.5383790  37.2011630  73.6202530  16.3919860
  37.5645850  69.6066630  16.0639160  38.2873980  70.1475570  16.3820380
  37.8370370  69.3330050  15.1880700  51.3737500  74.4759100  20.3310740
  51.8696620  74.2429970  21.1159620  51.1753570  73.6370940  19.9148380
  37.2538040  68.8572820  25.9661780  37.9014230  68.3070200  25.5256940
  37.6739880  69.1115970  26.7877590  52.8024660  73.1120050  22.8648420
  52.6923940  72.9576090  23.8030690  53.5632250  72.5840990  22.6223830
  51.1490380  69.0514180  29.3231420  51.7862600  69.6648320  29.6890610
  51.2965270  69.0874840  28.3780650  53.6914930  70.9427970  16.1054560
  54.6164240  70.8109150  15.8972850  53.6690720  71.0220790  17.0591010
  53.7653420  71.7138630  18.7311270  52.9704920  71.6483750  19.2604180
  53.9696700  72.6489270  18.7196620  50.7071840  85.7530180  22.7249660
  51.3030910  85.4314750  22.0484080  50.9649990  85.2802000  23.5162930
  37.0070040  69.0128490  28.7087100  36.6584860  69.4692310  29.4745280
  36.6757740  68.1185620  28.7909530  38.6134410  82.1848090  32.8740290
  38.5704040  81.8141000  33.7554750  38.7445420  83.1225660  33.0142110
  42.3140440  83.7407680  28.4750010  42.0731800  84.0082240  27.5880530
  43.2543080  83.9113410  28.5300870  44.5194860  70.2040370  32.2306520
  44.4583750  70.7962200  32.9801930  45.4595240  70.0966330  32.0856780
  47.1569420  69.8610430  31.8698810  47.7709830  70.1789720  31.2079890
  47.7018980  69.3759020  32.4894670  53.5744600  85.7602060  29.2760650
  53.0802880  86.1570930  28.5587780  52.9657890  85.1351270  29.6697930
  37.6790680  68.5404690  31.9837870  38.2273670  68.3592740  31.2203980
  37.7445990  67.7498800  32.5194180  38.4522440  85.1310340  29.9938070
  37.8582760  84.9995040  30.7328110  38.4446280  84.2948480  29.5280170
  47.8977460  68.4242570  28.1968100  47.0237300  68.7577680  27.9941030
  47.7888210  67.9515750  29.0219970  48.8049440  70.6313440  29.5809820
  48.4762800  69.8165200  29.2011550  49.7531740  70.5883250  29.4575510
  51.2584050  86.4025480  26.5547390  50.7987020  87.1541290  26.1805410
  50.6296510  85.6831950  26.4962190  38.0834670  82.4968720  28.9446110
  37.3568730  81.8774010  28.8772060  38.1443820  82.8909330  28.0744190
  41.6879770  84.7113720  25.7295520  42.2044790  84.1001080  25.2043780
  42.3377150  85.2142500  26.2206530  44.4275270  85.6022210  26.5564500
  44.7153080  85.3476510  25.6797510  44.9398490  85.0499570  27.1470070
  45.6452280  69.3412410  27.1361010  44.8624070  69.8157910  27.4157770
  45.3515210  68.4367240  27.0274190  50.1973350  70.0435510  25.1810100
  50.6381440  69.9880610  24.3331700  49.9280940  70.9593520  25.2520280
  52.0611920  69.6750750  23.1918920  52.0000320  68.7311970  23.0449940
  52.8403950  69.7830840  23.7372380  36.3664670  85.8143110  22.1542870
  36.1986710  85.1813790  22.8524760  35.4999180  86.0202510  21.8037060
  36.9892690  69.6459890  19.6574730  37.7472050  69.7588770  19.0838760
  36.5269860  70.4829090  19.6118160  43.5306500  71.7599160  22.6477040
  42.7181010  71.3856050  22.3072920  44.0348140  71.0044240  22.9498230
  48.0331480  68.4241610  23.8860110  48.6360850  68.9961820  24.3608630
  47.2924470  68.9881050  23.6634010  51.1766080  68.8263170  19.1600390
  51.3716710  69.7246620  19.4267820  50.3895950  68.5950250  19.6533340
  37.9727370  84.5076340  19.5993010  37.4474990  84.8884370  18.8954970
  37.8971950  85.1327110  20.3202720  39.3617840  70.1723940  18.1976700
  39.8910600  69.3853740  18.0684650  39.9946160  70.8515130  18.4312230
  41.5555680  69.9099080  21.2522090  40.9258420  69.2086390  21.4192220
  41.0160820  70.6703210  21.0355250  44.4947630  86.5238310  33.9232700
  45.4214940  86.2882580  33.9668660  44.4798060  87.3510310  33.4418730
  52.7292690  86.0663880  20.9206950  52.9044880  85.3801620  20.2767870
  52.0314260  86.5910930  20.5283620  41.6811240  69.1883060  33.6874580
  41.3995510  69.6916660  32.9235400  42.0630940  68.3904810  33.3216710
  40.5720340  86.4558720  18.4742260  41.3039160  86.1718000  17.9266150
  40.8314010  86.2172000  19.3641640  39.7335130  82.5723450  18.4788590
  39.1044010  83.0408550  19.0274420  39.8482960  81.7272670  18.9134780
  48.2826700  68.6036640  34.2655050  48.1692150  68.9231250  35.1606570
  49.0996440  69.0049150  33.9692330  51.0625190  85.7508170  33.7473740
  51.8550510  85.2557400  33.5399700  51.3558340  86.4298310  34.3549350
  47.1884850  76.6229110   4.6289790  47.1078900  75.7083720   4.3581500
  46.7749270  77.1196180   3.9229500  45.3202890  78.4008130   6.5099060
  44.5444990  77.9208570   6.7997630  45.9715820  77.7213780   6.3355220
  39.3368720  78.7127940   7.3874820  38.5053600  78.4576650   7.7871330
  39.9449700  78.7838710   8.1232740  49.3410320  82.8068320   5.2898190
  48.8791850  82.0355560   5.6185360  50.1535870  82.8334390   5.7950640
  39.3169980  82.7468030   7.5832840  39.6198020  81.8565770   7.4043060
  40.0613570  83.3038250   7.3555090  35.7093680  76.2735480   7.0556910
  36.2809790  75.5057680   7.0560550  35.7095220  76.5724240   6.1463520
  45.5673630  85.0926330   4.9102180  44.9485070  85.5483830   4.3396620
  46.4225410  85.2477790   4.5091880  44.7611880  81.0765320   6.5169220
  44.6920160  80.1355260   6.3558350  45.5231740  81.1666730   7.0891790
  36.9518550  71.6819840   8.8425840  36.7721390  70.7845590   9.1228600
  36.5498630  72.2291710   9.5172790  45.7917050  73.8835700   6.7438150
  46.1681870  73.0107580   6.6311820  45.6936560  74.2194400   5.8528590
  39.9222060  72.2561330   2.2055590  40.0288810  73.1565060   2.5124350
  39.0114420  72.2079300   1.9150240  49.5741170  71.3786140   3.6766490
  50.3950790  70.8882710   3.7191970  49.6075250  71.9683800   4.4298330
  37.5705220  74.1780340   7.4508180  38.2515330  74.4418710   8.0695580
  37.2553270  73.3381210   7.7846190  41.7629790  75.2247700   6.5380770
  42.2708010  75.7228670   7.1785790  42.2943030  74.4482900   6.3620130
  53.8640720  73.3952890  10.2410120  53.1592890  73.7834600   9.7225230
  54.1298640  74.0903180  10.8431050  40.0465890  69.8646260  10.8044190
  40.0484330  70.3818650   9.9990090  39.2170200  69.3876440  10.7814120
  46.4336980  79.9765570   2.3034090  45.8154250  80.4415020   1.7396810
  46.9460230  80.6693050   2.7203600  41.2968740  79.5041440   8.9817690
  40.9638120  80.1310360   9.6238760  41.4735420  80.0303320   8.2019360
  49.8102650  73.3186520   6.4494030  49.1058220  73.6071410   7.0297140
  50.1714810  74.1286630   6.0893590  39.7281220  71.5756220   8.8114640
  40.0698030  72.4198270   8.5168510  38.7897030  71.7239960   8.9279980
  40.5087840  81.4722240  10.7966870  41.1261840  82.1473320  10.5151320
  39.6480960  81.8810220  10.7054370  51.4265430  82.9361650   8.7121510
  50.7428950  83.6060760   8.7038180  51.9659720  83.1342300   7.9466370
  52.8789570  72.7641310   6.8403240  51.9314480  72.7980290   6.9718670
  53.2039560  73.5780260   7.2252600  43.4109110  69.0638490   5.1359230
  43.7184090  68.5085380   4.4194730  42.4809810  69.1982950   4.9532220
  48.9624170  84.7805780   7.4266690  48.9751330  84.3768070   6.5588950
  48.4099390  85.5553070   7.3228120  50.2569590  81.5022000   2.5156860
  50.1465920  80.5596330   2.6406280  50.2537840  81.8637640   3.4019620
  48.3609610  79.6835620   8.7549300  48.7778400  79.4695730   7.9202760
  49.0849430  79.9408410   9.3257920  45.7989870  77.1287320   1.8719350
  44.8719150  77.0624700   2.1007820  45.9514690  78.0667450   1.7574590
  52.3071710  78.0822840   8.8465540  51.4790340  78.1515930   8.3715670
  52.9022190  78.6677150   8.3781370  49.8287160  78.6907620   2.3754600
  49.2099580  78.3527170   1.7280900  49.8111610  78.0467380   3.0833790
  49.2713720  74.8692160   9.7920410  48.8584900  75.6945870  10.0460400
  48.5389670  74.2837200   9.5996770  41.4046510  77.6552060   4.6539080
  41.0003510  76.9429310   4.1584980  41.4909630  77.3105300   5.5427120
  41.8728210  81.3419620   6.8178290  41.5756500  80.7365090   6.1386070
  42.8228030  81.3796930   6.7067650  40.1175130  74.4295270   8.4338120
  40.6689720  74.5390610   7.6591370  40.6318640  74.8032870   9.1493350
  49.9613820  84.9151490  10.4801390  49.4844380  85.7223680  10.2874000
  49.2775610  84.2629820  10.6327600  40.9646640  81.0801310  13.4686090
  40.0675170  81.3041280  13.7159490  40.9899510  81.2036250  12.5197490
  39.7917860  77.9514630  12.0443460  39.6525630  78.8237430  12.4130860
  38.9099220  77.6087440  11.8991400  46.1147240  82.8690500   3.3508590
  46.5543150  83.6114830   2.9363980  46.0534130  83.1117070   4.2747550
  41.5898210  83.8936330  14.2528610  41.5613640  84.2979280  13.3857040
  41.4263180  82.9646690  14.0900210  38.1051140  76.5497040   2.1545730
  37.9848740  77.2759130   1.5427000  37.7952030  75.7799950   1.6773640
  53.5413030  84.6763430  15.5492780  54.0172750  85.1546320  16.2281860
  54.1620190  84.6080920  14.8238280  35.7436510  79.7212180   7.9614370
  35.8216930  79.8560950   7.0170090  36.3578190  79.0128070   8.1542490
  36.9884140  81.4212370   4.3720550  36.5812220  81.5626960   3.5174150
  37.8797150  81.1372530   4.1691760  52.9446280  81.8676280  12.7092790
  53.0709340  81.6288160  11.7909970  52.9867660  81.0360820  13.1814870
  46.8063020  85.5704280  11.2787600  47.3207690  85.4812290  12.0810030
  45.9632100  85.9163980  11.5715510  41.2605800  85.6358150   2.4843220
  41.0848280  84.7193690   2.2711020  40.4061540  85.9945440   2.7241020
  48.0493480  84.9909890   3.3418090  48.5050430  84.2099270   3.6556710
  48.3886000  85.7016710   3.8859270  52.7970290  73.9208740  13.6742530
  52.1814560  74.4288410  13.1457990  52.4766710  73.0207070  13.6168470
  35.7996030  80.7626350  10.5008830  35.9627070  80.2931710   9.6828200
  36.2648480  80.2549910  11.1657670  40.5714800  69.8932110   5.5369400
  40.1282950  70.6741650   5.2053920  41.1299790  70.2162000   6.2440340
  44.8584610  72.7600630  11.1404720  44.3963980  72.9683650  11.9524660
  44.4562720  71.9459980  10.8375390  49.8589120  73.9809580  12.2701380
  49.0082710  73.6815330  12.5910450  49.6990910  74.2251590  11.3585200
  46.9538830  75.4811330  14.3700170  47.2792240  74.6475080  14.0302400
  47.7419160  76.0039850  14.5178500  42.6090700  70.4379440   7.3959000
  42.9063030  71.3442270   7.3151020  43.1576260  69.9498220   6.7818570
  40.3629020  75.0165680   3.2650650  40.1369940  74.8002850   4.1697270
  39.5821550  75.4494140   2.9196620  42.8028230  75.9151260  13.9310920
  42.7071830  74.9745990  13.7811320  43.6460210  76.1366330  13.5358990
  46.1991650  73.6592590   3.8944580  46.5921220  73.9764790   3.0813270
  46.5608500  72.7804470   4.0089100  37.9338770  72.3264930  12.0844700
  37.5402160  73.1740140  12.2917480  37.2457170  71.6891300  12.2753340
  44.5083820  72.4099900  15.1541440  43.8182140  72.2172100  15.7887530
  45.2516120  72.6934540  15.6865740  35.2355820  70.2493390   6.1174780
  34.9468870  70.8196250   6.8299760  35.9801580  69.7697840   6.4806010
  46.7846790  76.2498340   7.9895360  46.0527910  76.7585150   8.3385460
  46.3871130  75.4328320   7.6884140  43.2224180  72.9252540   6.3947850
  43.2260240  72.4842490   5.5452390  44.1175300  73.2469870   6.5019670
  39.0726560  72.8079030   5.3542060  38.7326610  73.2854260   6.1109110
  38.3103880  72.3544150   4.9943160  47.2472700  71.7032020   7.4018300
  47.2645440  72.1540670   8.2460150  46.9988280  70.8037660   7.6151740
  50.6743450  69.1164200  13.2404680  50.9989220  68.3853860  13.7662660
  50.7099960  68.7977840  12.3385670  37.3735010  80.1377780  12.6604640
  36.9889800  79.4971450  13.2587600  37.6847200  80.8413900  13.2299370
  43.5232150  76.9854320   8.1413260  43.8902280  76.5112890   8.8874600
  43.3337210  77.8595890   8.4821600  36.3872640  71.7298010   4.2706730
  36.1019560  71.3653680   5.1085350  36.3251500  70.9978470   3.6569870
  41.3131520  76.0262960  10.4597470  41.0088590  76.9054940  10.6847830
  42.2677980  76.0862750  10.4954910  50.6001290  79.2289310   6.8490710
  51.3200410  79.7244600   6.4586820  50.3983110  78.5507200   6.2044580
  45.9820090  79.2998370  12.7359710  45.9157400  78.3794040  12.4817300
  45.3525230  79.3973810  13.4504350  39.8850710  79.9004330   4.6943130
  40.4029380  79.0972590   4.6400020  39.4334730  79.8383470   5.5359960
  37.3695250  76.8665700  11.6068830  37.0110190  77.5319550  12.1942170
  37.0749810  76.0349250  11.9781450  40.5708370  77.3249940  14.4908380
  40.2708510  77.4707120  13.5936200  41.3419610  76.7655230  14.3981770
  45.9136820  82.1218940  12.4863510  45.9281360  81.1899900  12.2682420
  45.2061920  82.2078700  13.1253280  52.1248030  78.7626280  11.8332090
  51.3996220  79.3555060  11.6361480  52.6523490  78.7549820  11.0345460
  47.6547620  80.4886450   5.3315940  48.0071440  79.8914580   4.6717310
  46.7709950  80.1630680   5.5024190  43.7410900  81.2484140   2.7386350
  44.4282030  81.7953350   3.1193940  42.9543320  81.7924870   2.7735960
  43.0438110  78.2530170   2.3511710  43.5000890  79.0635420   2.5771900
  42.6926320  77.9353310   3.1830200  45.3470720  83.7636510   9.5804010
  45.9912940  83.9695890  10.2577430  45.7100160  83.0024910   9.1274860
  38.9449890  68.5967820   2.8234230  38.8164520  68.5885720   3.7719150
  38.1211910  68.9350910   2.4725240  46.6202800  81.7668860   8.2981460
  47.2625030  81.0662020   8.4113630  47.1452150  82.5467300   8.1178350
  48.3940420  82.5663760  11.5017520  48.7296660  83.1530450  12.1795440
  47.4740760  82.4356470  11.7315310  35.9443820  70.3558940  12.2840930
  35.2302340  70.5555860  12.8893540  36.3638860  69.5798510  12.6555730
  36.2316410  84.3439200  13.2707460  36.3407530  83.4033940  13.1302850
  35.5796970  84.6093950  12.6221190  44.2229000  82.6155090  14.6705580
  43.9025870  81.8964330  15.2151270  43.5487360  83.2910160  14.7441640
  47.4382600  72.8481250  10.0342380  47.8063420  72.0276460  10.3621950
  46.5780800  72.9083140  10.4498030  42.7728660  74.0824140   2.2587820
  42.0644810  74.5510480   2.7001430  43.0573140  73.4246150   2.8933010
  44.3984590  75.5020840  10.2580350  44.8969840  75.9766660  10.9232200
  44.5407540  74.5784360  10.4650380  46.8044090  70.8074800   3.6983610
  46.6811870  70.8260930   2.7493120  47.7528650  70.8553740   3.8182010
  43.8920880  86.0430100   2.9711590  44.1462380  86.0051490   2.0490960
  42.9433360  85.9163430   2.9639840  51.6051450  71.7188800  11.1008740
  51.1025050  72.4594200  11.4402550  52.4208110  72.1072800  10.7845530
  49.8973460  76.9621980   4.5470100  48.9563600  76.9772210   4.7217790
  50.2117530  76.1757940   4.9930400  51.8999040  84.1330830   6.2224360
  52.0246460  84.9562000   6.6948170  52.7664600  83.9221560   5.8748510
  39.3716570  86.2262040   5.8941490  40.1079050  85.6777500   6.1650060
  39.7557490  87.0918050   5.7547480  36.2562050  82.2935610   1.7683000
  35.3301830  82.5356750   1.7588410  36.7218480  83.1209870   1.6467750
  38.3774850  85.4108110  15.0827070  39.1787580  85.7320160  15.4962470
  37.8626670  85.0503690  15.8046980  47.2139480  81.5187980  15.0302480
  46.6077640  81.5419580  14.2898230  46.9093590  80.7871020  15.5669730
  48.6439850  85.2468270  13.6411890  49.5961600  85.1626290  13.5912130
  48.4968070  85.9109980  14.3145680  36.0972660  77.8981570  14.0263120
  36.6011680  77.3188850  14.5979350  35.3580080  78.1821800  14.5639490
  43.1510600  79.3052560  13.5598640  42.3856270  79.8737560  13.4753310
  43.3326560  79.0128770  12.6666870  50.2933950  81.0357890  14.1173660
  51.0343420  81.3733650  13.6141120  49.5306630  81.2049950  13.5643430
  38.1295740  76.0411160  14.9213190  38.1701080  75.7425030  15.8298420
  38.9841240  76.4418770  14.7620710  40.0701550  74.6203260  12.8887680
  39.5398010  74.1294210  12.2611020  40.7389620  75.0487460  12.3545610
  48.9679610  79.0872720  12.6528870  49.3820630  79.2417800  13.5019290
  48.0330610  79.2127940  12.8154650  49.4401780  76.4268880  14.6568020
  50.0222550  75.6721200  14.5688500  49.6163550  76.9576320  13.8799500
  40.5573850  71.5865630  12.9684970  40.4630720  70.9686380  12.2435840
  39.9771240  72.3131920  12.7414880  43.3235290  70.1438870  10.0012360
  42.8752590  70.1663130   9.1557910  42.6900490  69.7457890  10.5982660
  43.7294840  79.0393200  10.6224800  44.1482950  79.8825930  10.4501040
  42.8103470  79.1765240  10.3931580  46.0658740  76.7709380  12.0062640
  46.1854950  76.1750520  12.7457480  46.9252740  76.8079070  11.5863940
  48.4046640  77.3246570  10.5825150  47.8781860  77.8489190   9.9790290
  48.7477980  77.9573960  11.2134880  41.5802260  85.3446210  11.7382530
  41.0423350  86.0692270  11.4191230  41.8336220  84.8676550  10.9479870
  42.8327510  73.3130730  13.2638460  43.4227200  73.0046580  13.9516280
  42.0147750  72.8410480  13.4198360  47.6520940  72.9296540  13.4971480
  46.9636460  72.2678080  13.4321470  48.3726960  72.4834810  13.9419940
  44.4364470  86.5797420  11.9969180  44.3623170  87.4832560  12.3041550
  43.5343310  86.2609320  11.9691250  35.8391760  83.9072010   5.3002800
  36.1694770  83.0393070   5.0681440  36.2682760  84.1130530   6.1307760
  40.4353680  82.2381020   2.9604770  40.1349220  82.1145990   3.8608680
  40.3291170  81.3789610   2.5520500  36.3281970  84.7742600   8.0384430
  35.8912960  84.9543400   8.8708580  36.8959650  85.5317220   7.8966150
  51.9644150  84.2759600  12.3261740  51.3646140  84.3352160  11.5825660
  52.0938050  83.3364580  12.4558590  36.1606400  77.2862830   4.3973310
  35.5055240  77.0174470   3.7533010  36.9984350  77.1767310   3.9475290
  53.6662030  79.6175000   5.0107580  54.0370860  78.8342320   4.6043550
  54.3063960  80.3064100   4.8324880  50.6495790  81.0011580  10.4237900
  49.8355630  81.4308740  10.6863690  51.0569990  81.6129990   9.8106950
  52.6086570  76.9928260   2.3167600  52.2330170  76.2256190   1.8848890
  51.8789690  77.3750960   2.8042530  37.1982330  77.6715400   8.9376650
  37.5655370  77.5842800   9.8172670  36.6293150  76.9081950   8.8383510
  51.9986190  76.1399780  11.9507120  51.7672280  75.9112530  11.0505070
  52.2590740  77.0599330  11.9052010  36.7498330  74.5824490  12.8435070
  35.8554380  74.5491250  13.1828780  37.2895880  74.7811280  13.6086320
  50.4374260  71.3656210  14.7286820  51.3144440  71.3739610  15.1120820
  50.4495100  70.6287050  14.1179170  51.8837530  75.2185750   5.6174840
  52.4075010  74.7248400   4.9865010  52.4696950  75.3536110   6.3622410
  52.0627250  75.3025620   9.1394390  51.1129960  75.2689160   9.2539380
  52.2440260  76.2125730   8.9044160  37.2538040  68.8572820   7.1918290
  37.9014230  68.3070200   6.7513450  37.6739880  69.1115970   8.0134100
  52.8024660  73.1120050   4.0904930  52.6923940  72.9576090   5.0287200
  53.5632250  72.5840990   3.8480340  51.1490380  69.0514180  10.5487930
  51.7862600  69.6648320  10.9147120  51.2965270  69.0874840   9.6037160
  50.7071840  85.7530180   3.9506170  51.3030910  85.4314750   3.2740590
  50.9649990  85.2802000   4.7419440  37.0070040  69.0128490   9.9343610
  36.6584860  69.4692310  10.7001790  36.6757740  68.1185620  10.0166040
  38.6134410  82.1848090  14.0996800  38.5704040  81.8141000  14.9811260
  38.7445420  83.1225660  14.2398620  42.3140440  83.7407680   9.7006520
  42.0731800  84.0082240   8.8137040  43.2543080  83.9113410   9.7557380
  44.5194860  70.2040370  13.4563030  44.4583750  70.7962200  14.2058440
  45.4595240  70.0966330  13.3113290  47.1569420  69.8610430  13.0955320
  47.7709830  70.1789720  12.4336400  47.7018980  69.3759020  13.7151180
  53.5744600  85.7602060  10.5017160  53.0802880  86.1570930   9.7844290
  52.9657890  85.1351270  10.8954440  37.6790680  68.5404690  13.2094380
  38.2273670  68.3592740  12.4460490  37.7445990  67.7498800  13.7450690
  38.4522440  85.1310340  11.2194580  37.8582760  84.9995040  11.9584620
  38.4446280  84.2948480  10.7536680  47.8977460  68.4242570   9.4224610
  47.0237300  68.7577680   9.2197540  47.7888210  67.9515750  10.2476480
  48.8049440  70.6313440  10.8066330  48.4762800  69.8165200  10.4268060
  49.7531740  70.5883250  10.6832020  51.2584050  86.4025480   7.7803900
  50.7987020  87.1541290   7.4061920  50.6296510  85.6831950   7.7218700
  38.0834670  82.4968720  10.1702620  37.3568730  81.8774010  10.1028570
  38.1443820  82.8909330   9.3000700  41.6879770  84.7113720   6.9552030
  42.2044790  84.1001080   6.4300290  42.3377150  85.2142500   7.4463040
  44.4275270  85.6022210   7.7821010  44.7153080  85.3476510   6.9054020
  44.9398490  85.0499570   8.3726580  45.6452280  69.3412410   8.3617520
  44.8624070  69.8157910   8.6414280  45.3515210  68.4367240   8.2530700
  50.1973350  70.0435510   6.4066610  50.6381440  69.9880610   5.5588210
  49.9280940  70.9593520   6.4776790  52.0611920  69.6750750   4.4175430
  52.0000320  68.7311970   4.2706450  52.8403950  69.7830840   4.9628890
  36.3664670  85.8143110   3.3799380  36.1986710  85.1813790   4.0781270
  35.4999180  86.0202510   3.0293570  43.5306500  71.7599160   3.8733550
  42.7181010  71.3856050   3.5329430  44.0348140  71.0044240   4.1754740
  48.0331480  68.4241610   5.1116620  48.6360850  68.9961820   5.5865140
  47.2924470  68.9881050   4.8890520  41.5555680  69.9099080   2.4778600
  40.9258420  69.2086390   2.6448730  41.0160820  70.6703210   2.2611760
  44.4947630  86.5238310  15.1489210  45.4214940  86.2882580  15.1925170
  44.4798060  87.3510310  14.6675240  52.7292690  86.0663880   2.1463460
  52.9044880  85.3801620   1.5024380  52.0314260  86.5910930   1.7540130
  41.6811240  69.1883060  14.9131090  41.3995510  69.6916660  14.1491910
  42.0630940  68.3904810  14.5473220  48.2826700  68.6036640  15.4911560
  48.1692150  68.9231250  16.3863080  49.0996440  69.0049150  15.1948840
  51.0625190  85.7508170  14.9730250  51.8550510  85.2557400  14.7656210
  51.3558340  86.4298310  15.5805860  47.1884850  57.8485620  98.5007240
  47.1078900  56.9340230  98.2298950  46.7749270  58.3452690  97.7946950
  45.3202890  59.6264640 100.3816510  44.5444990  59.1465080 100.6715080
  45.9715820  58.9470290 100.2072670  39.3368720  59.9384450 101.2592270
  38.5053600  59.6833160 101.6588780  39.9449700  60.0095220 101.9950190
  49.3410320  64.0324830  99.1615640  48.8791850  63.2612070  99.4902810
  50.1535870  64.0590900  99.6668090  39.3169980  63.9724540 101.4550290
  39.6198020  63.0822280 101.2760510  40.0613570  64.5294760 101.2272540
  37.7460670  54.8986340  95.0434660  36.8577370  55.2402310  94.9414540
  38.0301860  54.6986660  94.1515490  35.7093680  57.4991990 100.9274360
  36.2809790  56.7314190 100.9278000  35.7095220  57.7980750 100.0180970
  45.5673630  66.3182840  98.7819630  44.9485070  66.7740340  98.2114070
  46.4225410  66.4734300  98.3809330  44.7611880  62.3021830 100.3886670
  44.6920160  61.3611770 100.2275800  45.5231740  62.3923240 100.9609240
  36.9518550  52.9076350 102.7143290  36.7721390  52.0102100 102.9946050
  36.5498630  53.4548220 103.3890240  45.7917050  55.1092210 100.6155600
  46.1681870  54.2364090 100.5029270  45.6936560  55.4450910  99.7246040
  39.9222060  53.4817840  96.0773040  40.0288810  54.3821570  96.3841800
  39.0114420  53.4335810  95.7867690  49.5741170  52.6042650  97.5483940
  50.3950790  52.1139220  97.5909420  49.6075250  53.1940310  98.3015780
  37.5705220  55.4036850 101.3225630  38.2515330  55.6675220 101.9413030
  37.2553270  54.5637720 101.6563640  41.7629790  56.4504210 100.4098220
  42.2708010  56.9485180 101.0503240  42.2943030  55.6739410 100.2337580
  53.8640720  54.6209400 104.1127570  53.1592890  55.0091110 103.5942680
  54.1298640  55.3159690 104.7148500  40.0465890  51.0902770 104.6761640
  40.0484330  51.6075160 103.8707540  39.2170200  50.6132950 104.6531570
  46.4336980  61.2022080  96.1751540  45.8154250  61.6671530  95.6114260
  46.9460230  61.8949560  96.5921050  41.2968740  60.7297950 102.8535140
  40.9638120  61.3566870 103.4956210  41.4735420  61.2559830 102.0736810
  49.8102650  54.5443030 100.3211480  49.1058220  54.8327920 100.9014590
  50.1714810  55.3543140  99.9611040  39.7281220  52.8012730 102.6832090
  40.0698030  53.6454780 102.3885960  38.7897030  52.9496470 102.7997430
  40.5087840  62.6978750 104.6684320  41.1261840  63.3729830 104.3868770
  39.6480960  63.1066730 104.5771820  35.8020180  61.8878610  93.5491170
  35.4248160  62.3765710  92.8176070  36.0593250  62.5603890  94.1797700
  51.4265430  64.1618160 102.5838960  50.7428950  64.8317270 102.5755630
  51.9659720  64.3598810 101.8183820  52.8789570  53.9897820 100.7120690
  51.9314480  54.0236800 100.8436120  53.2039560  54.8036770 101.0970050
  43.4109110  50.2895000  99.0076680  43.7184090  49.7341890  98.2912180
  42.4809810  50.4239460  98.8249670  48.9624170  66.0062290 101.2984140
  48.9751330  65.6024580 100.4306400  48.4099390  66.7809580 101.1945570
  50.2569590  62.7278510  96.3874310  50.1465920  61.7852840  96.5123730
  50.2537840  63.0894150  97.2737070  48.3609610  60.9092130 102.6266750
  48.7778400  60.6952240 101.7920210  49.0849430  61.1664920 103.1975370
  45.7989870  58.3543830  95.7436800  44.8719150  58.2881210  95.9725270
  45.9514690  59.2923960  95.6292040  45.7858950  54.6260830  92.7403960
  44.8462620  54.7874790  92.8256420  46.1042210  55.3446510  92.1939950
  52.3071710  59.3079350 102.7182990  51.4790340  59.3772440 102.2433120
  52.9022190  59.8933660 102.2498820  49.8287160  59.9164130  96.2472050
  49.2099580  59.5783680  95.5998350  49.8111610  59.2723890  96.9551240
  49.2713720  56.0948670 103.6637860  48.8584900  56.9202380 103.9177850
  48.5389670  55.5093710 103.4714220  41.4046510  58.8808570  98.5256530
  41.0003510  58.1685820  98.0302430  41.4909630  58.5361810  99.4144570
  41.8728210  62.5676130 100.6895740  41.5756500  61.9621600 100.0103520
  42.8228030  62.6053440 100.5785100  40.1175130  55.6551780 102.3055570
  40.6689720  55.7647120 101.5308820  40.6318640  56.0289380 103.0210800
  49.9613820  66.1408000 104.3518840  49.4844380  66.9480190 104.1591450
  49.2775610  65.4886330 104.5045050  48.0051860  59.1550940  93.2544800
  48.4445140  58.3173370  93.1082620  48.7180280  59.7880340  93.3408940
  46.1147240  64.0947010  97.2226040  46.5543150  64.8371340  96.8081430
  46.0534130  64.3373580  98.1465000  51.5869000  50.4093750  91.5685840
  51.2741660  50.5020580  92.4684910  52.3481470  50.9874780  91.5183270
  38.1051140  57.7753550  96.0263180  37.9848740  58.5015640  95.4144450
  37.7952030  57.0056460  95.5491090  35.7436510  60.9468690 101.8331820
  35.8216930  61.0817460 100.8887540  36.3578190  60.2384580 102.0259940
  36.9884140  62.6468880  98.2438000  36.5812220  62.7883470  97.3891600
  37.8797150  62.3629040  98.0409210  48.7817420  67.0816130  94.5789050
  48.6218560  66.7919070  95.4770880  48.6164130  66.3056260  94.0434280
  41.2605800  66.8614660  96.3560670  41.0848280  65.9450200  96.1428470
  40.4061540  67.2201950  96.5958470  48.4843550  64.5903690  93.1387050
  47.7908710  64.5880980  92.4789330  49.2266410  64.1663010  92.7081220
  48.0493480  66.2166400  97.2135540  48.5050430  65.4355780  97.5274160
  48.3886000  66.9273220  97.7576720  40.5714800  51.1188620  99.4086850
  40.1282950  51.8998160  99.0771370  41.1299790  51.4418510 100.1157790
  43.6873620  50.7399320  94.2892680  43.0627800  50.7359190  95.0145990
  43.6003740  49.8730280  93.8928650  42.6090700  51.6635950 101.2676450
  42.9063030  52.5698780 101.1868470  43.1576260  51.1754730 100.6536020
  40.3629020  56.2422190  97.1368100  40.1369940  56.0259360  98.0414720
  39.5821550  56.6750650  96.7914070  47.5926780  56.2485560  95.7358750
  46.9935670  56.9721360  95.5522370  48.1406390  56.1862340  94.9535200
  46.1991650  54.8849100  97.7662030  46.5921220  55.2021300  96.9530720
  46.5608500  54.0060980  97.8806550  35.2355820  51.4749900  99.9892230
  34.9468870  52.0452760 100.7017210  35.9801580  50.9954350 100.3523460
  35.4226050  55.4170020  91.1994950  35.3400720  56.3600780  91.3409940
  35.0709110  55.2744930  90.3207300  46.7846790  57.4754850 101.8612810
  46.0527910  57.9841660 102.2102910  46.3871130  56.6584830 101.5601590
  43.2224180  54.1509050 100.2665300  43.2260240  53.7099000  99.4169840
  44.1175300  54.4726380 100.3737120  39.0726560  54.0335540  99.2259510
  38.7326610  54.5110770  99.9826560  38.3103880  53.5800660  98.8660610
  43.2844330  55.1521130  93.2572060  43.4057150  55.1107610  94.2057880
  42.8992840  56.0145280  93.1018790  47.2472700  52.9288530 101.2735750
  47.2645440  53.3797180 102.1177600  46.9988280  52.0294170 101.4869190
  42.2965830  57.4622270  92.6555360  41.7282730  57.0140520  92.0291270
  43.0054830  57.8215050  92.1220510  43.5232150  58.2110830 102.0130710
  43.8902280  57.7369400 102.7592050  43.3337210  59.0852400 102.3539050
  36.3872640  52.9554520  98.1424180  36.1019560  52.5910190  98.9802800
  36.3251500  52.2234980  97.5287320  41.3131520  57.2519470 104.3314920
  41.0088590  58.1311450 104.5565280  42.2677980  57.3119260 104.3672360
  39.8413310  61.4580460  94.9281770  39.0675570  60.9178080  94.7680490
  40.5707940  60.9387070  94.5899530  50.6001290  60.4545820 100.7208160
  51.3200410  60.9501110 100.3304270  50.3983110  59.7763710 100.0762030
  46.0611230  51.8483780  94.8637550  45.2475840  51.3496950  94.7882860
  45.8673180  52.6882030  94.4473900  48.7759620  56.2203430  93.1599710
  49.6639240  56.5320660  92.9851050  48.7464710  55.3475680  92.7680290
  39.8850710  61.1260840  98.5660580  40.4029380  60.3229100  98.5117470
  39.4334730  61.0639980  99.4077410  44.7720210  62.3927120  93.8387880
  45.1135910  63.1369350  93.3431200  43.9432920  62.7058240  94.2012710
  51.0473890  57.5315270  92.6279570  50.9637610  57.9629490  91.7776010
  51.7668080  57.9913620  93.0606390  52.0761140  64.3857530  95.3561700
  51.4337300  63.7313150  95.6305420  51.6891800  64.7912620  94.5802370
  47.6547620  61.7142960  99.2033390  48.0071440  61.1171090  98.5434760
  46.7709950  61.3887190  99.3741640  43.7410900  62.4740650  96.6103800
  44.4282030  63.0209860  96.9911390  42.9543320  63.0181380  96.6453410
  35.8803300  58.0913470  92.1020880  36.7498150  58.3738270  92.3856800
  35.3893620  58.9049340  91.9869690  43.0438110  59.4786680  96.2229160
  43.5000890  60.2891930  96.4489350  42.6926320  59.1609820  97.0547650
  45.3470720  64.9893020 103.4521460  45.9912940  65.1952400 104.1294880
  45.7100160  64.2281420 102.9992310  38.9449890  49.8224330  96.6951680
  38.8164520  49.8142230  97.6436600  38.1211910  50.1607420  96.3442690
  46.6202800  62.9925370 102.1698910  47.2625030  62.2918530 102.2831080
  47.1452150  63.7723810 101.9895800  50.4658520  63.2773990  91.8938050
  50.2396100  62.5604430  92.4862690  50.0754720  63.0286430  91.0559800
  36.2474550  67.3040850  92.6682510  36.6072190  67.9030190  92.0139780
  36.1066890  67.8500740  93.4417540  50.0474770  61.1945930  93.5552210
  49.7596470  61.6558620  94.3430090  50.8426940  60.7343700  93.8236430
  42.2643170  64.6872050  93.4856180  42.2553270  65.4201740  92.8700690
  41.3441530  64.4403630  93.5783140  37.8649810  59.9086940  94.2302940
  37.2577760  60.6485840  94.2398240  38.3399160  59.9986300  93.4041140
  47.4382600  54.0737760 103.9059830  47.8063420  53.2532970 104.2339400
  46.5780800  54.1339650 104.3215480  50.8044630  53.0294700  94.7147390
  50.1757790  53.1340370  94.0005620  50.3096550  53.2491480  95.5041270
  45.2502770  64.7500290  92.1481370  45.3514750  64.5464280  91.2183350
  44.3504510  64.4958570  92.3529150  42.7728660  55.3080650  96.1305270
  42.0644810  55.7766990  96.5718880  43.0573140  54.6502660  96.7650460
  44.3984590  56.7277350 104.1297800  44.8969840  57.2023170 104.7949650
  44.5407540  55.8040870 104.3367830  46.8044090  52.0331310  97.5701060
  46.6811870  52.0517440  96.6210570  47.7528650  52.0810250  97.6899460
  43.8920880  67.2686610  96.8429040  44.1462380  67.2308000  95.9208410
  42.9433360  67.1419940  96.8357290  40.9763680  53.6165730  93.5055980
  41.8254210  54.0535880  93.4396170  40.6094950  53.9285990  94.3328040
  49.8973460  58.1878490  98.4187550  48.9563600  58.2028720  98.5935240
  50.2117530  57.4014450  98.8647850  39.8755100  59.8698090  91.9791510
  40.6418370  59.7579450  92.5416940  39.9529790  59.1736060  91.3268280
  38.5701860  57.3023160  92.6624400  38.6505450  56.3550670  92.7741800
  39.4621610  57.6330040  92.7685060  51.8999040  65.3587340 100.0941810
  52.0246460  66.1818510 100.5665620  52.7664600  65.1478070  99.7465960
  39.3716570  67.4518550  99.7658940  40.1079050  66.9034010 100.0367510
  39.7557490  68.3174560  99.6264930  36.2562050  63.5192120  95.6400450
  35.3301830  63.7613260  95.6305860  36.7218480  64.3466380  95.5185200
  42.4818880  66.6248860  91.5884510  43.2747490  66.9137690  91.1366300
  41.9623230  66.1941030  90.9096990  51.5349050  65.8518990  93.0121250
  51.2490560  65.4384130  92.1975430  51.3368600  66.7806700  92.8921770
  42.9996280  61.8452270  91.4526860  42.8946920  61.2304620  92.1788240
  42.8320500  61.3218160  90.6689870  46.2399010  60.9072300  92.0568850
  45.6909110  61.3541600  92.7011590  46.8618270  60.4021550  92.5806520
  41.9074130  59.8663220  93.9534150  42.3290550  59.7003090  94.7965540
  42.0324970  59.0563450  93.4589290  44.4201770  58.8900830  91.2011250
  44.9407430  58.1749850  90.8352400  45.0670170  59.5286700  91.5011760
  43.3235290  51.3695380 103.8729810  42.8752590  51.3919640 103.0275360
  42.6900490  50.9714400 104.4700110  43.7294840  60.2649710 104.4942250
  44.1482950  61.1082440 104.3218490  42.8103470  60.4021750 104.2649030
  40.8033030  55.9396450  90.8992310  40.6022090  55.0763810  91.2605650
  40.6325080  55.8529810  89.9613910  48.2821340  50.7504680  93.4279190
  48.5623630  49.9072580  93.7838610  47.5087070  50.9827790  93.9417940
  39.6015830  53.0397070  90.8870190  39.9041730  53.0464500  89.9789340
  40.3410420  52.6894930  91.3837850  42.8200760  51.9831690  91.8726390
  42.4722760  51.3055680  91.2928840  43.0213530  51.5221200  92.6869780
  44.9849800  66.9712440  93.4912990  45.8800590  67.3097410  93.5131750
  45.0167430  66.2491850  92.8637270  38.6245960  62.3439490  91.7199990
  39.0620830  62.8869160  92.3757570  39.1093690  61.5186440  91.7296330
  35.8391760  65.1328520  99.1720250  36.1694770  64.2649580  98.9398890
  36.2682760  65.3387040 100.0025210  40.4353680  63.4637530  96.8322220
  40.1349220  63.3402500  97.7326130  40.3291170  62.6046120  96.4237950
  36.3281970  65.9999110 101.9101880  35.8912960  66.1799910 102.7426030
  36.8959650  66.7573730 101.7683600  53.2045600  63.2433930  91.5348900
  52.3738560  63.3110580  92.0056130  53.3817430  64.1338050  91.2315760
  52.6602060  59.9881410  94.0383100  53.4220970  60.5578060  94.1442790
  52.6756430  59.4208610  94.8091410  36.1606400  58.5119340  98.2690760
  35.5055240  58.2430980  97.6250460  36.9984350  58.4023820  97.8192740
  53.6662030  60.8431510  98.8825030  54.0370860  60.0598830  98.4761000
  54.3063960  61.5320610  98.7042330  50.6495790  62.2268090 104.2955350
  49.8355630  62.6565250 104.5581140  51.0569990  62.8386500 103.6824400
  52.7121230  60.2815780  91.1955620  52.9870070  61.1894660  91.0674840
  52.5231970  60.2178310  92.1317610  49.1096840  53.3060630  92.4909250
  49.5281720  53.1191610  91.6505910  48.8032900  52.4539680  92.8012180
  52.6086570  58.2184770  96.1885050  52.2330170  57.4512700  95.7566340
  51.8789690  58.6007470  96.6759980  37.1982330  58.8971910 102.8094100
  37.5655370  58.8099310 103.6890120  36.6293150  58.1338460 102.7100960
  35.3744480  55.7218270  94.2116090  34.4708560  55.9848470  94.0367750
  35.8585100  55.9929440  93.4316050  51.8837530  56.4442260  99.4892290
  52.4075010  55.9504910  98.8582460  52.4696950  56.5792620 100.2339860
  52.0627250  56.5282130 103.0111840  51.1129960  56.4945670 103.1256830
  52.2440260  57.4382240 102.7761610  37.9171690  54.7783810  92.1210470
  38.6263390  54.3567030  91.6357750  37.2011630  54.8459040  91.4893820
  37.5645850  50.8323140  91.1613120  38.2873980  51.3732080  91.4794340
  37.8370370  50.5586560  90.2854660  51.3737500  55.7015610  95.4284700
  51.8696620  55.4686480  96.2133580  51.1753570  54.8627450  95.0122340
  37.2538040  50.0829330 101.0635740  37.9014230  49.5326710 100.6230900
  37.6739880  50.3372480 101.8851550  52.8024660  54.3376560  97.9622380
  52.6923940  54.1832600  98.9004650  53.5632250  53.8097500  97.7197790
  51.1490380  50.2770690 104.4205380  51.7862600  50.8904830 104.7864570
  51.2965270  50.3131350 103.4754610  53.6914930  52.1684480  91.2028520
  54.6164240  52.0365660  90.9946810  53.6690720  52.2477300  92.1564970
  53.7653420  52.9395140  93.8285230  52.9704920  52.8740260  94.3578140
  53.9696700  53.8745780  93.8170580  50.7071840  66.9786690  97.8223620
  51.3030910  66.6571260  97.1458040  50.9649990  66.5058510  98.6136890
  37.0070040  50.2385000 103.8061060  36.6584860  50.6948820 104.5719240
  36.6757740  49.3442130 103.8883490  42.3140440  64.9664190 103.5723970
  42.0731800  65.2338750 102.6854490  43.2543080  65.1369920 103.6274830
  53.5744600  66.9858570 104.3734610  53.0802880  67.3827440 103.6561740
  52.9657890  66.3607780 104.7671890  47.8977460  49.6499080 103.2942060
  47.0237300  49.9834190 103.0914990  47.7888210  49.1772260 104.1193930
  48.8049440  51.8569950 104.6783780  48.4762800  51.0421710 104.2985510
  49.7531740  51.8139760 104.5549470  51.2584050  67.6281990 101.6521350
  50.7987020  68.3797800 101.2779370  50.6296510  66.9088460 101.5936150
  38.0834670  63.7225230 104.0420070  37.3568730  63.1030520 103.9746020
  38.1443820  64.1165840 103.1718150  41.6879770  65.9370230 100.8269480
  42.2044790  65.3257590 100.3017740  42.3377150  66.4399010 101.3180490
  44.4275270  66.8278720 101.6538460  44.7153080  66.5733020 100.7771470
  44.9398490  66.2756080 102.2444030  45.6452280  50.5668920 102.2334970
  44.8624070  51.0414420 102.5131730  45.3515210  49.6623750 102.1248150
  50.1973350  51.2692020 100.2784060  50.6381440  51.2137120  99.4305660
  49.9280940  52.1850030 100.3494240  52.0611920  50.9007260  98.2892880
  52.0000320  49.9568480  98.1423900  52.8403950  51.0087350  98.8346340
  36.3664670  67.0399620  97.2516830  36.1986710  66.4070300  97.9498720
  35.4999180  67.2459020  96.9011020  36.9892690  50.8716400  94.7548690
  37.7472050  50.9845280  94.1812720  36.5269860  51.7085600  94.7092120
  43.5306500  52.9855670  97.7451000  42.7181010  52.6112560  97.4046880
  44.0348140  52.2300750  98.0472190  48.0331480  49.6498120  98.9834070
  48.6360850  50.2218330  99.4582590  47.2924470  50.2137560  98.7607970
  51.1766080  50.0519680  94.2574350  51.3716710  50.9503130  94.5241780
  50.3895950  49.8206760  94.7507300  37.9727370  65.7332850  94.6966970
  37.4474990  66.1140880  93.9928930  37.8971950  66.3583620  95.4176680
  39.3617840  51.3980450  93.2950660  39.8910600  50.6110250  93.1658610
  39.9946160  52.0771640  93.5286190  41.5555680  51.1355590  96.3496050
  40.9258420  50.4342900  96.5166180  41.0160820  51.8959720  96.1329210
  52.7292690  67.2920390  96.0180910  52.9044880  66.6058130  95.3741830
  52.0314260  67.8167440  95.6257580  40.5720340  67.6815230  93.5716220
  41.3039160  67.3974510  93.0240110  40.8314010  67.4428510  94.4615600
  39.7335130  63.7979960  93.5762550  39.1044010  64.2665060  94.1248380
  39.8482960  62.9529180  94.0108740  47.1884850  57.8485620  79.7263750
  47.1078900  56.9340230  79.4555460  46.7749270  58.3452690  79.0203460
  45.3202890  59.6264640  81.6073020  44.5444990  59.1465080  81.8971590
  45.9715820  58.9470290  81.4329180  39.3368720  59.9384450  82.4848780
  38.5053600  59.6833160  82.8845290  39.9449700  60.0095220  83.2206700
  49.3410320  64.0324830  80.3872150  48.8791850  63.2612070  80.7159320
  50.1535870  64.0590900  80.8924600  39.3169980  63.9724540  82.6806800
  39.6198020  63.0822280  82.5017020  40.0613570  64.5294760  82.4529050
  35.7093680  57.4991990  82.1530870  36.2809790  56.7314190  82.1534510
  35.7095220  57.7980750  81.2437480  45.5673630  66.3182840  80.0076140
  44.9485070  66.7740340  79.4370580  46.4225410  66.4734300  79.6065840
  44.7611880  62.3021830  81.6143180  44.6920160  61.3611770  81.4532310
  45.5231740  62.3923240  82.1865750  41.7629790  56.4504210  81.6354730
  42.2708010  56.9485180  82.2759750  42.2943030  55.6739410  81.4594090
  53.8640720  54.6209400  85.3384080  53.1592890  55.0091110  84.8199190
  54.1298640  55.3159690  85.9405010  40.0465890  51.0902770  85.9018150
  40.0484330  51.6075160  85.0964050  39.2170200  50.6132950  85.8788080
  41.2968740  60.7297950  84.0791650  40.9638120  61.3566870  84.7212720
  41.4735420  61.2559830  83.2993320  40.5087840  62.6978750  85.8940830
  41.1261840  63.3729830  85.6125280  39.6480960  63.1066730  85.8028330
  51.4265430  64.1618160  83.8095470  50.7428950  64.8317270  83.8012140
  51.9659720  64.3598810  83.0440330  52.8789570  53.9897820  81.9377200
  51.9314480  54.0236800  82.0692630  53.2039560  54.8036770  82.3226560
  43.4109110  50.2895000  80.2333190  43.7184090  49.7341890  79.5168690
  42.4809810  50.4239460  80.0506180  48.9624170  66.0062290  82.5240650
  48.9751330  65.6024580  81.6562910  48.4099390  66.7809580  82.4202080
  50.2569590  62.7278510  77.6130820  50.1465920  61.7852840  77.7380240
  50.2537840  63.0894150  78.4993580  48.3609610  60.9092130  83.8523260
  48.7778400  60.6952240  83.0176720  49.0849430  61.1664920  84.4231880
  52.3071710  59.3079350  83.9439500  51.4790340  59.3772440  83.4689630
  52.9022190  59.8933660  83.4755330  49.8287160  59.9164130  77.4728560
  49.2099580  59.5783680  76.8254860  49.8111610  59.2723890  78.1807750
  49.2713720  56.0948670  84.8894370  48.8584900  56.9202380  85.1434360
  48.5389670  55.5093710  84.6970730  41.8728210  62.5676130  81.9152250
  41.5756500  61.9621600  81.2360030  42.8228030  62.6053440  81.8041610
  40.1175130  55.6551780  83.5312080  40.6689720  55.7647120  82.7565330
  40.6318640  56.0289380  84.2467310  49.9613820  66.1408000  85.5775350
  49.4844380  66.9480190  85.3847960  49.2775610  65.4886330  85.7301560
  40.9646640  62.3057820  88.5660050  40.0675170  62.5297790  88.8133450
  40.9899510  62.4292760  87.6171450  39.7917860  59.1771140  87.1417420
  39.6525630  60.0493940  87.5104820  38.9099220  58.8343950  86.9965360
  46.1147240  64.0947010  78.4482550  46.5543150  64.8371340  78.0337940
  46.0534130  64.3373580  79.3721510  41.5898210  65.1192840  89.3502570
  41.5613640  65.5235790  88.4831000  41.4263180  64.1903200  89.1874170
  53.5413030  65.9019940  90.6466740  54.0172750  66.3802830  91.3255820
  54.1620190  65.8337430  89.9212240  52.9446280  63.0932790  87.8066750
  53.0709340  62.8544670  86.8883930  52.9867660  62.2617330  88.2788830
  46.8063020  66.7960790  86.3761560  47.3207690  66.7068800  87.1783990
  45.9632100  67.1420490  86.6689470  48.7817420  67.0816130  75.8045560
  48.6218560  66.7919070  76.7027390  48.6164130  66.3056260  75.2690790
  48.4843550  64.5903690  74.3643560  47.7908710  64.5880980  73.7045840
  49.2266410  64.1663010  73.9337730  48.0493480  66.2166400  78.4392050
  48.5050430  65.4355780  78.7530670  48.3886000  66.9273220  78.9833230
  52.7970290  55.1465250  88.7716490  52.1814560  55.6544920  88.2431950
  52.4766710  54.2463580  88.7142430  35.7996030  61.9882860  85.5982790
  35.9627070  61.5188220  84.7802160  36.2648480  61.4806420  86.2631630
  44.8584610  53.9857140  86.2378680  44.3963980  54.1940160  87.0498620
  44.4562720  53.1716490  85.9349350  49.8589120  55.2066090  87.3675340
  49.0082710  54.9071840  87.6884410  49.6990910  55.4508100  86.4559160
  46.9538830  56.7067840  89.4674130  47.2792240  55.8731590  89.1276360
  47.7419160  57.2296360  89.6152460  42.8028230  57.1407770  89.0284880
  42.7071830  56.2002500  88.8785280  43.6460210  57.3622840  88.6332950
  37.9338770  53.5521440  87.1818660  37.5402160  54.3996650  87.3891440
  37.2457170  52.9147810  87.3727300  44.5083820  53.6356410  90.2515400
  43.8182140  53.4428610  90.8861490  45.2516120  53.9191050  90.7839700
  46.7846790  57.4754850  83.0869320  46.0527910  57.9841660  83.4359420
  46.3871130  56.6584830  82.7858100  43.2224180  54.1509050  81.4921810
  43.2260240  53.7099000  80.6426350  44.1175300  54.4726380  81.5993630
  50.6743450  50.3420710  88.3378640  50.9989220  49.6110370  88.8636620
  50.7099960  50.0234350  87.4359630  37.3735010  61.3634290  87.7578600
  36.9889800  60.7227960  88.3561560  37.6847200  62.0670410  88.3273330
  43.5232150  58.2110830  83.2387220  43.8902280  57.7369400  83.9848560
  43.3337210  59.0852400  83.5795560  41.3131520  57.2519470  85.5571430
  41.0088590  58.1311450  85.7821790  42.2677980  57.3119260  85.5928870
  50.6001290  60.4545820  81.9464670  51.3200410  60.9501110  81.5560780
  50.3983110  59.7763710  81.3018540  45.9820090  60.5254880  87.8333670
  45.9157400  59.6050550  87.5791260  45.3525230  60.6230320  88.5478310
  37.3695250  58.0922210  86.7042790  37.0110190  58.7576060  87.2916130
  37.0749810  57.2605760  87.0755410  40.5708370  58.5506450  89.5882340
  40.2708510  58.6963630  88.6910160  41.3419610  57.9911740  89.4955730
  45.9136820  63.3475450  87.5837470  45.9281360  62.4156410  87.3656380
  45.2061920  63.4335210  88.2227240  51.0473890  57.5315270  73.8536080
  50.9637610  57.9629490  73.0032520  51.7668080  57.9913620  74.2862900
  52.1248030  59.9882790  86.9306050  51.3996220  60.5811570  86.7335440
  52.6523490  59.9806330  86.1319420  52.0761140  64.3857530  76.5818210
  51.4337300  63.7313150  76.8561930  51.6891800  64.7912620  75.8058880
  47.6547620  61.7142960  80.4289900  48.0071440  61.1171090  79.7691270
  46.7709950  61.3887190  80.5998150  45.3470720  64.9893020  84.6777970
  45.9912940  65.1952400  85.3551390  45.7100160  64.2281420  84.2248820
  46.6202800  62.9925370  83.3955420  47.2625030  62.2918530  83.5087590
  47.1452150  63.7723810  83.2152310  48.3940420  63.7920270  86.5991480
  48.7296660  64.3786960  87.2769400  47.4740760  63.6612980  86.8289270
  35.9443820  51.5815450  87.3814890  35.2302340  51.7812370  87.9867500
  36.3638860  50.8055020  87.7529690  50.0474770  61.1945930  74.7808720
  49.7596470  61.6558620  75.5686600  50.8426940  60.7343700  75.0492940
  36.2316410  65.5695710  88.3681420  36.3407530  64.6290450  88.2276810
  35.5796970  65.8350460  87.7195150  44.2229000  63.8411600  89.7679540
  43.9025870  63.1220840  90.3125230  43.5487360  64.5166670  89.8415600
  47.4382600  54.0737760  85.1316340  47.8063420  53.2532970  85.4595910
  46.5780800  54.1339650  85.5471990  44.3984590  56.7277350  85.3554310
  44.8969840  57.2023170  86.0206160  44.5407540  55.8040870  85.5624340
  43.8920880  67.2686610  78.0685550  44.1462380  67.2308000  77.1464920
  42.9433360  67.1419940  78.0613800  51.6051450  52.9445310  86.1982700
  51.1025050  53.6850710  86.5376510  52.4208110  53.3329310  85.8819490
  49.8973460  58.1878490  79.6444060  48.9563600  58.2028720  79.8191750
  50.2117530  57.4014450  80.0904360  51.8999040  65.3587340  81.3198320
  52.0246460  66.1818510  81.7922130  52.7664600  65.1478070  80.9722470
  39.3716570  67.4518550  80.9915450  40.1079050  66.9034010  81.2624020
  39.7557490  68.3174560  80.8521440  38.3774850  66.6364620  90.1801030
  39.1787580  66.9576670  90.5936430  37.8626670  66.2760200  90.9020940
  47.2139480  62.7444490  90.1276440  46.6077640  62.7676090  89.3872190
  46.9093590  62.0127530  90.6643690  48.6439850  66.4724780  88.7385850
  49.5961600  66.3882800  88.6886090  48.4968070  67.1366490  89.4119640
  51.5349050  65.8518990  74.2377760  51.2490560  65.4384130  73.4231940
  51.3368600  66.7806700  74.1178280  36.0972660  59.1238080  89.1237080
  36.6011680  58.5445360  89.6953310  35.3580080  59.4078310  89.6613450
  43.1510600  60.5309070  88.6572600  42.3856270  61.0994070  88.5727270
  43.3326560  60.2385280  87.7640830  50.2933950  62.2614400  89.2147620
  51.0343420  62.5990160  88.7115080  49.5306630  62.4306460  88.6617390
  38.1295740  57.2667670  90.0187150  38.1701080  56.9681540  90.9272380
  38.9841240  57.6675280  89.8594670  40.0701550  55.8459770  87.9861640
  39.5398010  55.3550720  87.3584980  40.7389620  56.2743970  87.4519570
  48.9679610  60.3129230  87.7502830  49.3820630  60.4674310  88.5993250
  48.0330610  60.4384450  87.9128610  49.4401780  57.6525390  89.7541980
  50.0222550  56.8977710  89.6662460  49.6163550  58.1832830  88.9773460
  40.5573850  52.8122140  88.0658930  40.4630720  52.1942890  87.3409800
  39.9771240  53.5388430  87.8388840  43.7294840  60.2649710  85.7198760
  44.1482950  61.1082440  85.5475000  42.8103470  60.4021750  85.4905540
  46.0658740  57.9965890  87.1036600  46.1854950  57.4007030  87.8431440
  46.9252740  58.0335580  86.6837900  48.4046640  58.5503080  85.6799110
  47.8781860  59.0745700  85.0764250  48.7477980  59.1830470  86.3108840
  41.5802260  66.5702720  86.8356490  41.0423350  67.2948780  86.5165190
  41.8336220  66.0933060  86.0453830  42.8327510  54.5387240  88.3612420
  43.4227200  54.2303090  89.0490240  42.0147750  54.0666990  88.5172320
  47.6520940  54.1553050  88.5945440  46.9636460  53.4934590  88.5295430
  48.3726960  53.7091320  89.0393900  44.4364470  67.8053930  87.0943140
  44.3623170  68.7089070  87.4015510  43.5343310  67.4865830  87.0665210
  36.3281970  65.9999110  83.1358390  35.8912960  66.1799910  83.9682540
  36.8959650  66.7573730  82.9940110  51.9644150  65.5016110  87.4235700
  51.3646140  65.5608670  86.6799620  52.0938050  64.5621090  87.5532550
  52.6602060  59.9881410  75.2639610  53.4220970  60.5578060  75.3699300
  52.6756430  59.4208610  76.0347920  53.6662030  60.8431510  80.1081540
  54.0370860  60.0598830  79.7017510  54.3063960  61.5320610  79.9298840
  50.6495790  62.2268090  85.5211860  49.8355630  62.6565250  85.7837650
  51.0569990  62.8386500  84.9080910  52.6086570  58.2184770  77.4141560
  52.2330170  57.4512700  76.9822850  51.8789690  58.6007470  77.9016490
  37.1982330  58.8971910  84.0350610  37.5655370  58.8099310  84.9146630
  36.6293150  58.1338460  83.9357470  51.9986190  57.3656290  87.0481080
  51.7672280  57.1369040  86.1479030  52.2590740  58.2855840  87.0025970
  36.7498330  55.8081000  87.9409030  35.8554380  55.7747760  88.2802740
  37.2895880  56.0067790  88.7060280  50.4374260  52.5912720  89.8260780
  51.3144440  52.5996120  90.2094780  50.4495100  51.8543560  89.2153130
  51.8837530  56.4442260  80.7148800  52.4075010  55.9504910  80.0838970
  52.4696950  56.5792620  81.4596370  52.0627250  56.5282130  84.2368350
  51.1129960  56.4945670  84.3513340  52.2440260  57.4382240  84.0018120
  51.1490380  50.2770690  85.6461890  51.7862600  50.8904830  86.0121080
  51.2965270  50.3131350  84.7011120  53.6914930  52.1684480  72.4285030
  54.6164240  52.0365660  72.2203320  53.6690720  52.2477300  73.3821480
  53.7653420  52.9395140  75.0541740  52.9704920  52.8740260  75.5834650
  53.9696700  53.8745780  75.0427090  50.7071840  66.9786690  79.0480130
  51.3030910  66.6571260  78.3714550  50.9649990  66.5058510  79.8393400
  38.6134410  63.4104600  89.1970760  38.5704040  63.0397510  90.0785220
  38.7445420  64.3482170  89.3372580  42.3140440  64.9664190  84.7980480
  42.0731800  65.2338750  83.9111000  43.2543080  65.1369920  84.8531340
  44.5194860  51.4296880  88.5536990  44.4583750  52.0218710  89.3032400
  45.4595240  51.3222840  88.4087250  47.1569420  51.0866940  88.1929280
  47.7709830  51.4046230  87.5310360  47.7018980  50.6015530  88.8125140
  53.5744600  66.9858570  85.5991120  53.0802880  67.3827440  84.8818250
  52.9657890  66.3607780  85.9928400  37.6790680  49.7661200  88.3068340
  38.2273670  49.5849250  87.5434450  37.7445990  48.9755310  88.8424650
  38.4522440  66.3566850  86.3168540  37.8582760  66.2251550  87.0558580
  38.4446280  65.5204990  85.8510640  47.8977460  49.6499080  84.5198570
  47.0237300  49.9834190  84.3171500  47.7888210  49.1772260  85.3450440
  48.8049440  51.8569950  85.9040290  48.4762800  51.0421710  85.5242020
  49.7531740  51.8139760  85.7805980  51.2584050  67.6281990  82.8777860
  50.7987020  68.3797800  82.5035880  50.6296510  66.9088460  82.8192660
  38.0834670  63.7225230  85.2676580  37.3568730  63.1030520  85.2002530
  38.1443820  64.1165840  84.3974660  41.6879770  65.9370230  82.0525990
  42.2044790  65.3257590  81.5274250  42.3377150  66.4399010  82.5437000
  44.4275270  66.8278720  82.8794970  44.7153080  66.5733020  82.0027980
  44.9398490  66.2756080  83.4700540  44.4947630  67.7494820  90.2463170
  45.4214940  67.5139090  90.2899130  44.4798060  68.5766820  89.7649200
  52.7292690  67.2920390  77.2437420  52.9044880  66.6058130  76.5998340
  52.0314260  67.8167440  76.8514090  41.6811240  50.4139570  90.0105050
  41.3995510  50.9173170  89.2465870  42.0630940  49.6161320  89.6447180
  48.2826700  49.8293150  90.5885520  48.1692150  50.1487760  91.4837040
  49.0996440  50.2305660  90.2922800  51.0625190  66.9764680  90.0704210
  51.8550510  66.4813910  89.8630170  51.3558340  67.6554820  90.6779820
  35.8020180  61.8878610  56.0004190  35.4248160  62.3765710  55.2689090
  36.0593250  62.5603890  56.6310720  53.5413030  65.9019940  71.8723250
  54.0172750  66.3802830  72.5512330  54.1620190  65.8337430  71.1468750
  52.7970290  55.1465250  69.9973000  52.1814560  55.6544920  69.4688460
  52.4766710  54.2463580  69.9398940  50.6743450  50.3420710  69.5635150
  50.9989220  49.6110370  70.0893130  50.7099960  50.0234350  68.6616140
  36.2474550  67.3040850  55.1195530  36.6072190  67.9030190  54.4652800
  36.1066890  67.8500740  55.8930560  36.2562050  63.5192120  58.0913470
  35.3301830  63.7613260  58.0818880  36.7218480  64.3466380  57.9698220
  35.8391760  65.1328520  61.6233270  36.1694770  64.2649580  61.3911910
  36.2682760  65.3387040  62.4538230  36.3281970  65.9999110  64.3614900
  35.8912960  66.1799910  65.1939050  36.8959650  66.7573730  64.2196620
  50.4374260  52.5912720  71.0517290  51.3144440  52.5996120  71.4351290
  50.4495100  51.8543560  70.4409640  36.3664670  67.0399620  59.7029850
  36.1986710  66.4070300  60.4011740  35.4999180  67.2459020  59.3524040
  37.9727370  65.7332850  57.1479990  37.4474990  66.1140880  56.4441950
  37.8971950  66.3583620  57.8689700  47.1884850  57.8485620  42.1776770
  47.1078900  56.9340230  41.9068480  46.7749270  58.3452690  41.4716480
  49.5741170  52.6042650  41.2253470  50.3950790  52.1139220  41.2678950
  49.6075250  53.1940310  41.9785310  49.8102650  54.5443030  43.9981010
  49.1058220  54.8327920  44.5784120  50.1714810  55.3543140  43.6380570
  51.4265430  64.1618160  46.2608490  50.7428950  64.8317270  46.2525160
  51.9659720  64.3598810  45.4953350  48.9624170  66.0062290  44.9753670
  48.9751330  65.6024580  44.1075930  48.4099390  66.7809580  44.8715100
  50.2569590  62.7278510  40.0643840  50.1465920  61.7852840  40.1893260
  50.2537840  63.0894150  40.9506600  49.8287160  59.9164130  39.9241580
  49.2099580  59.5783680  39.2767880  49.8111610  59.2723890  40.6320770
  49.9613820  66.1408000  48.0288370  49.4844380  66.9480190  47.8360980
  49.2775610  65.4886330  48.1814580  48.0051860  59.1550940  36.9314330
  48.4445140  58.3173370  36.7852150  48.7180280  59.7880340  37.0178470
  48.7817420  67.0816130  38.2558580  48.6218560  66.7919070  39.1540410
  48.6164130  66.3056260  37.7203810  41.2605800  66.8614660  40.0330200
  41.0848280  65.9450200  39.8198000  40.4061540  67.2201950  40.2728000
  48.4843550  64.5903690  36.8156580  47.7908710  64.5880980  36.1558860
  49.2266410  64.1663010  36.3850750  47.5926780  56.2485560  39.4128280
  46.9935670  56.9721360  39.2291900  48.1406390  56.1862340  38.6304730
  46.1991650  54.8849100  41.4431560  46.5921220  55.2021300  40.6300250
  46.5608500  54.0060980  41.5576080  47.2472700  52.9288530  44.9505280
  47.2645440  53.3797180  45.7947130  46.9988280  52.0294170  45.1638720
  50.6001290  60.4545820  44.3977690  51.3200410  60.9501110  44.0073800
  50.3983110  59.7763710  43.7531560  48.7759620  56.2203430  36.8369240
  49.6639240  56.5320660  36.6620580  48.7464710  55.3475680  36.4449820
  51.0473890  57.5315270  36.3049100  50.9637610  57.9629490  35.4545540
  51.7668080  57.9913620  36.7375920  52.0761140  64.3857530  39.0331230
  51.4337300  63.7313150  39.3074950  51.6891800  64.7912620  38.2571900
  46.6202800  62.9925370  45.8468440  47.2625030  62.2918530  45.9600610
  47.1452150  63.7723810  45.6665330  50.4658520  63.2773990  35.5707580
  50.2396100  62.5604430  36.1632220  50.0754720  63.0286430  34.7329330
  36.2474550  67.3040850  36.3452040  36.6072190  67.9030190  35.6909310
  36.1066890  67.8500740  37.1187070  50.0474770  61.1945930  37.2321740
  49.7596470  61.6558620  38.0199620  50.8426940  60.7343700  37.5005960
  36.2316410  65.5695710  50.8194440  36.3407530  64.6290450  50.6789830
  35.5796970  65.8350460  50.1708170  49.8973460  58.1878490  42.0957080
  48.9563600  58.2028720  42.2704770  50.2117530  57.4014450  42.5417380
  51.8999040  65.3587340  43.7711340  52.0246460  66.1818510  44.2435150
  52.7664600  65.1478070  43.4235490  38.3774850  66.6364620  52.6314050
  39.1787580  66.9576670  53.0449450  37.8626670  66.2760200  53.3533960
  51.5349050  65.8518990  36.6890780  51.2490560  65.4384130  35.8744960
  51.3368600  66.7806700  36.5691300  46.2399010  60.9072300  35.7338380
  45.6909110  61.3541600  36.3781120  46.8618270  60.4021550  36.2576050
  51.9644150  65.5016110  49.8748720  51.3646140  65.5608670  49.1312640
  52.0938050  64.5621090  50.0045570  53.2045600  63.2433930  35.2118430
  52.3738560  63.3110580  35.6825660  53.3817430  64.1338050  34.9085290
  52.6602060  59.9881410  37.7152630  53.4220970  60.5578060  37.8212320
  52.6756430  59.4208610  38.4860940  53.6662030  60.8431510  42.5594560
  54.0370860  60.0598830  42.1530530  54.3063960  61.5320610  42.3811860
  52.7121230  60.2815780  34.8725150  52.9870070  61.1894660  34.7444370
  52.5231970  60.2178310  35.8087140  49.1096840  53.3060630  36.1678780
  49.5281720  53.1191610  35.3275440  48.8032900  52.4539680  36.4781710
  52.6086570  58.2184770  39.8654580  52.2330170  57.4512700  39.4335870
  51.8789690  58.6007470  40.3529510  50.7071840  66.9786690  41.4993150
  51.3030910  66.6571260  40.8227570  50.9649990  66.5058510  42.2906420
  37.9727370  65.7332850  38.3736500  37.4474990  66.1140880  37.6698460
  37.8971950  66.3583620  39.0946210  52.7292690  67.2920390  39.6950440
  52.9044880  66.6058130  39.0511360  52.0314260  67.8167440  39.3027110
  40.5720340  67.6815230  37.2485750  41.3039160  67.3974510  36.7009640
  40.8314010  67.4428510  38.1385130  49.3410320  64.0324830  24.0641680
  48.8791850  63.2612070  24.3928850  50.1535870  64.0590900  24.5694130
  37.7460670  54.8986340  19.9460700  36.8577370  55.2402310  19.8440580
  38.0301860  54.6986660  19.0541530  45.5673630  66.3182840  23.6845670
  44.9485070  66.7740340  23.1140110  46.4225410  66.4734300  23.2835370
  39.9222060  53.4817840  20.9799080  40.0288810  54.3821570  21.2867840
  39.0114420  53.4335810  20.6893730  53.8640720  54.6209400  29.0153610
  53.1592890  55.0091110  28.4968720  54.1298640  55.3159690  29.6174540
  46.4336980  61.2022080  21.0777580  45.8154250  61.6671530  20.5140300
  46.9460230  61.8949560  21.4947090  40.5087840  62.6978750  29.5710360
  41.1261840  63.3729830  29.2894810  39.6480960  63.1066730  29.4797860
  35.8020180  61.8878610  18.4517210  35.4248160  62.3765710  17.7202110
  36.0593250  62.5603890  19.0823740  51.4265430  64.1618160  27.4865000
  50.7428950  64.8317270  27.4781670  51.9659720  64.3598810  26.7209860
  52.8789570  53.9897820  25.6146730  51.9314480  54.0236800  25.7462160
  53.2039560  54.8036770  25.9996090  48.9624170  66.0062290  26.2010180
  48.9751330  65.6024580  25.3332440  48.4099390  66.7809580  26.0971610
  50.2569590  62.7278510  21.2900350  50.1465920  61.7852840  21.4149770
  50.2537840  63.0894150  22.1763110  45.7858950  54.6260830  17.6430000
  44.8462620  54.7874790  17.7282460  46.1042210  55.3446510  17.0965990
  52.3071710  59.3079350  27.6209030  51.4790340  59.3772440  27.1459160
  52.9022190  59.8933660  27.1524860  49.8287160  59.9164130  21.1498090
  49.2099580  59.5783680  20.5024390  49.8111610  59.2723890  21.8577280
  49.9613820  66.1408000  29.2544880  49.4844380  66.9480190  29.0617490
  49.2775610  65.4886330  29.4071090  48.0051860  59.1550940  18.1570840
  48.4445140  58.3173370  18.0108660  48.7180280  59.7880340  18.2434980
  46.1147240  64.0947010  22.1252080  46.5543150  64.8371340  21.7107470
  46.0534130  64.3373580  23.0491040  51.5869000  50.4093750  16.4711880
  51.2741660  50.5020580  17.3710950  52.3481470  50.9874780  16.4209310
  38.1051140  57.7753550  20.9289220  37.9848740  58.5015640  20.3170490
  37.7952030  57.0056460  20.4517130  53.5413030  65.9019940  34.3236270
  54.0172750  66.3802830  35.0025350  54.1620190  65.8337430  33.5981770
  52.9446280  63.0932790  31.4836280  53.0709340  62.8544670  30.5653460
  52.9867660  62.2617330  31.9558360  46.8063020  66.7960790  30.0531090
  47.3207690  66.7068800  30.8553520  45.9632100  67.1420490  30.3459000
  48.7817420  67.0816130  19.4815090  48.6218560  66.7919070  20.3796920
  48.6164130  66.3056260  18.9460320  41.2605800  66.8614660  21.2586710
  41.0848280  65.9450200  21.0454510  40.4061540  67.2201950  21.4984510
  48.4843550  64.5903690  18.0413090  47.7908710  64.5880980  17.3815370
  49.2266410  64.1663010  17.6107260  48.0493480  66.2166400  22.1161580
  48.5050430  65.4355780  22.4300200  48.3886000  66.9273220  22.6602760
  52.7970290  55.1465250  32.4486020  52.1814560  55.6544920  31.9201480
  52.4766710  54.2463580  32.3911960  43.6873620  50.7399320  19.1918720
  43.0627800  50.7359190  19.9172030  43.6003740  49.8730280  18.7954690
  40.3629020  56.2422190  22.0394140  40.1369940  56.0259360  22.9440760
  39.5821550  56.6750650  21.6940110  35.4226050  55.4170020  16.1020990
  35.3400720  56.3600780  16.2435980  35.0709110  55.2744930  15.2233340
  43.2844330  55.1521130  18.1598100  43.4057150  55.1107610  19.1083920
  42.8992840  56.0145280  18.0044830  42.2965830  57.4622270  17.5581400
  41.7282730  57.0140520  16.9317310  43.0054830  57.8215050  17.0246550
  39.8413310  61.4580460  19.8307810  39.0675570  60.9178080  19.6706530
  40.5707940  60.9387070  19.4925570  50.6001290  60.4545820  25.6234200
  51.3200410  60.9501110  25.2330310  50.3983110  59.7763710  24.9788070
  46.0611230  51.8483780  19.7663590  45.2475840  51.3496950  19.6908900
  45.8673180  52.6882030  19.3499940  48.7759620  56.2203430  18.0625750
  49.6639240  56.5320660  17.8877090  48.7464710  55.3475680  17.6706330
  44.7720210  62.3927120  18.7413920  45.1135910  63.1369350  18.2457240
  43.9432920  62.7058240  19.1038750  51.0473890  57.5315270  17.5305610
  50.9637610  57.9629490  16.6802050  51.7668080  57.9913620  17.9632430
  52.1248030  59.9882790  30.6075580  51.3996220  60.5811570  30.4104970
  52.6523490  59.9806330  29.8088950  52.0761140  64.3857530  20.2587740
  51.4337300  63.7313150  20.5331460  51.6891800  64.7912620  19.4828410
  47.6547620  61.7142960  24.1059430  48.0071440  61.1171090  23.4460800
  46.7709950  61.3887190  24.2767680  35.8803300  58.0913470  17.0046920
  36.7498150  58.3738270  17.2882840  35.3893620  58.9049340  16.8895730
  43.0438110  59.4786680  21.1255200  43.5000890  60.2891930  21.3515390
  42.6926320  59.1609820  21.9573690  45.3470720  64.9893020  28.3547500
  45.9912940  65.1952400  29.0320920  45.7100160  64.2281420  27.9018350
  38.9449890  49.8224330  21.5977720  38.8164520  49.8142230  22.5462640
  38.1211910  50.1607420  21.2468730  46.6202800  62.9925370  27.0724950
  47.2625030  62.2918530  27.1857120  47.1452150  63.7723810  26.8921840
  50.4658520  63.2773990  16.7964090  50.2396100  62.5604430  17.3888730
  50.0754720  63.0286430  15.9585840  48.3940420  63.7920270  30.2761010
  48.7296660  64.3786960  30.9538930  47.4740760  63.6612980  30.5058800
  36.2474550  67.3040850  17.5708550  36.6072190  67.9030190  16.9165820
  36.1066890  67.8500740  18.3443580  50.0474770  61.1945930  18.4578250
  49.7596470  61.6558620  19.2456130  50.8426940  60.7343700  18.7262470
  36.2316410  65.5695710  32.0450950  36.3407530  64.6290450  31.9046340
  35.5796970  65.8350460  31.3964680  42.2643170  64.6872050  18.3882220
  42.2553270  65.4201740  17.7726730  41.3441530  64.4403630  18.4809180
  37.8649810  59.9086940  19.1328980  37.2577760  60.6485840  19.1424280
  38.3399160  59.9986300  18.3067180  45.2502770  64.7500290  17.0507410
  45.3514750  64.5464280  16.1209390  44.3504510  64.4958570  17.2555190
  42.7728660  55.3080650  21.0331310  42.0644810  55.7766990  21.4744920
  43.0573140  54.6502660  21.6676500  43.8920880  67.2686610  21.7455080
  44.1462380  67.2308000  20.8234450  42.9433360  67.1419940  21.7383330
  40.9763680  53.6165730  18.4082020  41.8254210  54.0535880  18.3422210
  40.6094950  53.9285990  19.2354080  39.8755100  59.8698090  16.8817550
  40.6418370  59.7579450  17.4442980  39.9529790  59.1736060  16.2294320
  38.5701860  57.3023160  17.5650440  38.6505450  56.3550670  17.6767840
  39.4621610  57.6330040  17.6711100  51.8999040  65.3587340  24.9967850
  52.0246460  66.1818510  25.4691660  52.7664600  65.1478070  24.6492000
  36.2562050  63.5192120  20.5426490  35.3301830  63.7613260  20.5331900
  36.7218480  64.3466380  20.4211240  38.3774850  66.6364620  33.8570560
  39.1787580  66.9576670  34.2705960  37.8626670  66.2760200  34.5790470
  42.4818880  66.6248860  16.4910550  43.2747490  66.9137690  16.0392340
  41.9623230  66.1941030  15.8123030  47.2139480  62.7444490  33.8045970
  46.6077640  62.7676090  33.0641720  46.9093590  62.0127530  34.3413220
  48.6439850  66.4724780  32.4155380  49.5961600  66.3882800  32.3655620
  48.4968070  67.1366490  33.0889170  51.5349050  65.8518990  17.9147290
  51.2490560  65.4384130  17.1001470  51.3368600  66.7806700  17.7947810
  42.9996280  61.8452270  16.3552900  42.8946920  61.2304620  17.0814280
  42.8320500  61.3218160  15.5715910  46.2399010  60.9072300  16.9594890
  45.6909110  61.3541600  17.6037630  46.8618270  60.4021550  17.4832560
  50.2933950  62.2614400  32.8917150  51.0343420  62.5990160  32.3884610
  49.5306630  62.4306460  32.3386920  41.9074130  59.8663220  18.8560190
  42.3290550  59.7003090  19.6991580  42.0324970  59.0563450  18.3615330
  44.4201770  58.8900830  16.1037290  44.9407430  58.1749850  15.7378440
  45.0670170  59.5286700  16.4037800  40.8033030  55.9396450  15.8018350
  40.6022090  55.0763810  16.1631690  40.6325080  55.8529810  14.8639950
  41.5802260  66.5702720  30.5126020  41.0423350  67.2948780  30.1934720
  41.8336220  66.0933060  29.7223360  48.2821340  50.7504680  18.3305230
  48.5623630  49.9072580  18.6864650  47.5087070  50.9827790  18.8443980
  39.6015830  53.0397070  15.7896230  39.9041730  53.0464500  14.8815380
  40.3410420  52.6894930  16.2863890  44.4364470  67.8053930  30.7712670
  44.3623170  68.7089070  31.0785040  43.5343310  67.4865830  30.7434740
  42.8200760  51.9831690  16.7752430  42.4722760  51.3055680  16.1954880
  43.0213530  51.5221200  17.5895820  44.9849800  66.9712440  18.3939030
  45.8800590  67.3097410  18.4157790  45.0167430  66.2491850  17.7663310
  38.6245960  62.3439490  16.6226030  39.0620830  62.8869160  17.2783610
  39.1093690  61.5186440  16.6322370  35.8391760  65.1328520  24.0746290
  36.1694770  64.2649580  23.8424930  36.2682760  65.3387040  24.9051250
  36.3281970  65.9999110  26.8127920  35.8912960  66.1799910  27.6452070
  36.8959650  66.7573730  26.6709640  51.9644150  65.5016110  31.1005230
  51.3646140  65.5608670  30.3569150  52.0938050  64.5621090  31.2302080
  53.2045600  63.2433930  16.4374940  52.3738560  63.3110580  16.9082170
  53.3817430  64.1338050  16.1341800  52.6602060  59.9881410  18.9409140
  53.4220970  60.5578060  19.0468830  52.6756430  59.4208610  19.7117450
  36.1606400  58.5119340  23.1716800  35.5055240  58.2430980  22.5276500
  36.9984350  58.4023820  22.7218780  53.6662030  60.8431510  23.7851070
  54.0370860  60.0598830  23.3787040  54.3063960  61.5320610  23.6068370
  50.6495790  62.2268090  29.1981390  49.8355630  62.6565250  29.4607180
  51.0569990  62.8386500  28.5850440  52.7121230  60.2815780  16.0981660
  52.9870070  61.1894660  15.9700880  52.5231970  60.2178310  17.0343650
  49.1096840  53.3060630  17.3935290  49.5281720  53.1191610  16.5531950
  48.8032900  52.4539680  17.7038220  52.6086570  58.2184770  21.0911090
  52.2330170  57.4512700  20.6592380  51.8789690  58.6007470  21.5786020
  51.9986190  57.3656290  30.7250610  51.7672280  57.1369040  29.8248560
  52.2590740  58.2855840  30.6795500  35.3744480  55.7218270  19.1142130
  34.4708560  55.9848470  18.9393790  35.8585100  55.9929440  18.3342090
  52.0627250  56.5282130  27.9137880  51.1129960  56.4945670  28.0282870
  52.2440260  57.4382240  27.6787650  37.9171690  54.7783810  17.0236510
  38.6263390  54.3567030  16.5383790  37.2011630  54.8459040  16.3919860
  37.5645850  50.8323140  16.0639160  38.2873980  51.3732080  16.3820380
  37.8370370  50.5586560  15.1880700  53.6914930  52.1684480  16.1054560
  54.6164240  52.0365660  15.8972850  53.6690720  52.2477300  17.0591010
  53.7653420  52.9395140  18.7311270  52.9704920  52.8740260  19.2604180
  53.9696700  53.8745780  18.7196620  50.7071840  66.9786690  22.7249660
  51.3030910  66.6571260  22.0484080  50.9649990  66.5058510  23.5162930
  42.3140440  64.9664190  28.4750010  42.0731800  65.2338750  27.5880530
  43.2543080  65.1369920  28.5300870  53.5744600  66.9858570  29.2760650
  53.0802880  67.3827440  28.5587780  52.9657890  66.3607780  29.6697930
  38.4522440  66.3566850  29.9938070  37.8582760  66.2251550  30.7328110
  38.4446280  65.5204990  29.5280170  51.2584050  67.6281990  26.5547390
  50.7987020  68.3797800  26.1805410  50.6296510  66.9088460  26.4962190
  38.0834670  63.7225230  28.9446110  37.3568730  63.1030520  28.8772060
  38.1443820  64.1165840  28.0744190  44.4275270  66.8278720  26.5564500
  44.7153080  66.5733020  25.6797510  44.9398490  66.2756080  27.1470070
  36.3664670  67.0399620  22.1542870  36.1986710  66.4070300  22.8524760
  35.4999180  67.2459020  21.8037060  36.9892690  50.8716400  19.6574730
  37.7472050  50.9845280  19.0838760  36.5269860  51.7085600  19.6118160
  51.1766080  50.0519680  19.1600390  51.3716710  50.9503130  19.4267820
  50.3895950  49.8206760  19.6533340  37.9727370  65.7332850  19.5993010
  37.4474990  66.1140880  18.8954970  37.8971950  66.3583620  20.3202720
  39.3617840  51.3980450  18.1976700  39.8910600  50.6110250  18.0684650
  39.9946160  52.0771640  18.4312230  41.5555680  51.1355590  21.2522090
  40.9258420  50.4342900  21.4192220  41.0160820  51.8959720  21.0355250
  44.4947630  67.7494820  33.9232700  45.4214940  67.5139090  33.9668660
  44.4798060  68.5766820  33.4418730  52.7292690  67.2920390  20.9206950
  52.9044880  66.6058130  20.2767870  52.0314260  67.8167440  20.5283620
  40.5720340  67.6815230  18.4742260  41.3039160  67.3974510  17.9266150
  40.8314010  67.4428510  19.3641640  39.7335130  63.7979960  18.4788590
  39.1044010  64.2665060  19.0274420  39.8482960  62.9529180  18.9134780
  51.0625190  66.9764680  33.7473740  51.8550510  66.4813910  33.5399700
  51.3558340  67.6554820  34.3549350  47.1884850  57.8485620   4.6289790
  47.1078900  56.9340230   4.3581500  46.7749270  58.3452690   3.9229500
  45.3202890  59.6264640   6.5099060  44.5444990  59.1465080   6.7997630
  45.9715820  58.9470290   6.3355220  39.3368720  59.9384450   7.3874820
  38.5053600  59.6833160   7.7871330  39.9449700  60.0095220   8.1232740
  49.3410320  64.0324830   5.2898190  48.8791850  63.2612070   5.6185360
  50.1535870  64.0590900   5.7950640  39.3169980  63.9724540   7.5832840
  39.6198020  63.0822280   7.4043060  40.0613570  64.5294760   7.3555090
  35.7093680  57.4991990   7.0556910  36.2809790  56.7314190   7.0560550
  35.7095220  57.7980750   6.1463520  45.5673630  66.3182840   4.9102180
  44.9485070  66.7740340   4.3396620  46.4225410  66.4734300   4.5091880
  44.7611880  62.3021830   6.5169220  44.6920160  61.3611770   6.3558350
  45.5231740  62.3923240   7.0891790  36.9518550  52.9076350   8.8425840
  36.7721390  52.0102100   9.1228600  36.5498630  53.4548220   9.5172790
  45.7917050  55.1092210   6.7438150  46.1681870  54.2364090   6.6311820
  45.6936560  55.4450910   5.8528590  39.9222060  53.4817840   2.2055590
  40.0288810  54.3821570   2.5124350  39.0114420  53.4335810   1.9150240
  49.5741170  52.6042650   3.6766490  50.3950790  52.1139220   3.7191970
  49.6075250  53.1940310   4.4298330  37.5705220  55.4036850   7.4508180
  38.2515330  55.6675220   8.0695580  37.2553270  54.5637720   7.7846190
  41.7629790  56.4504210   6.5380770  42.2708010  56.9485180   7.1785790
  42.2943030  55.6739410   6.3620130  53.8640720  54.6209400  10.2410120
  53.1592890  55.0091110   9.7225230  54.1298640  55.3159690  10.8431050
  40.0465890  51.0902770  10.8044190  40.0484330  51.6075160   9.9990090
  39.2170200  50.6132950  10.7814120  46.4336980  61.2022080   2.3034090
  45.8154250  61.6671530   1.7396810  46.9460230  61.8949560   2.7203600
  41.2968740  60.7297950   8.9817690  40.9638120  61.3566870   9.6238760
  41.4735420  61.2559830   8.2019360  49.8102650  54.5443030   6.4494030
  49.1058220  54.8327920   7.0297140  50.1714810  55.3543140   6.0893590
  39.7281220  52.8012730   8.8114640  40.0698030  53.6454780   8.5168510
  38.7897030  52.9496470   8.9279980  40.5087840  62.6978750  10.7966870
  41.1261840  63.3729830  10.5151320  39.6480960  63.1066730  10.7054370
  51.4265430  64.1618160   8.7121510  50.7428950  64.8317270   8.7038180
  51.9659720  64.3598810   7.9466370  52.8789570  53.9897820   6.8403240
  51.9314480  54.0236800   6.9718670  53.2039560  54.8036770   7.2252600
  43.4109110  50.2895000   5.1359230  43.7184090  49.7341890   4.4194730
  42.4809810  50.4239460   4.9532220  48.9624170  66.0062290   7.4266690
  48.9751330  65.6024580   6.5588950  48.4099390  66.7809580   7.3228120
  50.2569590  62.7278510   2.5156860  50.1465920  61.7852840   2.6406280
  50.2537840  63.0894150   3.4019620  48.3609610  60.9092130   8.7549300
  48.7778400  60.6952240   7.9202760  49.0849430  61.1664920   9.3257920
  45.7989870  58.3543830   1.8719350  44.8719150  58.2881210   2.1007820
  45.9514690  59.2923960   1.7574590  52.3071710  59.3079350   8.8465540
  51.4790340  59.3772440   8.3715670  52.9022190  59.8933660   8.3781370
  49.8287160  59.9164130   2.3754600  49.2099580  59.5783680   1.7280900
  49.8111610  59.2723890   3.0833790  49.2713720  56.0948670   9.7920410
  48.8584900  56.9202380  10.0460400  48.5389670  55.5093710   9.5996770
  41.4046510  58.8808570   4.6539080  41.0003510  58.1685820   4.1584980
  41.4909630  58.5361810   5.5427120  41.8728210  62.5676130   6.8178290
  41.5756500  61.9621600   6.1386070  42.8228030  62.6053440   6.7067650
  40.1175130  55.6551780   8.4338120  40.6689720  55.7647120   7.6591370
  40.6318640  56.0289380   9.1493350  49.9613820  66.1408000  10.4801390
  49.4844380  66.9480190  10.2874000  49.2775610  65.4886330  10.6327600
  40.9646640  62.3057820  13.4686090  40.0675170  62.5297790  13.7159490
  40.9899510  62.4292760  12.5197490  39.7917860  59.1771140  12.0443460
  39.6525630  60.0493940  12.4130860  38.9099220  58.8343950  11.8991400
  46.1147240  64.0947010   3.3508590  46.5543150  64.8371340   2.9363980
  46.0534130  64.3373580   4.2747550  41.5898210  65.1192840  14.2528610
  41.5613640  65.5235790  13.3857040  41.4263180  64.1903200  14.0900210
  38.1051140  57.7753550   2.1545730  37.9848740  58.5015640   1.5427000
  37.7952030  57.0056460   1.6773640  53.5413030  65.9019940  15.5492780
  54.0172750  66.3802830  16.2281860  54.1620190  65.8337430  14.8238280
  35.7436510  60.9468690   7.9614370  35.8216930  61.0817460   7.0170090
  36.3578190  60.2384580   8.1542490  36.9884140  62.6468880   4.3720550
  36.5812220  62.7883470   3.5174150  37.8797150  62.3629040   4.1691760
  52.9446280  63.0932790  12.7092790  53.0709340  62.8544670  11.7909970
  52.9867660  62.2617330  13.1814870  46.8063020  66.7960790  11.2787600
  47.3207690  66.7068800  12.0810030  45.9632100  67.1420490  11.5715510
  41.2605800  66.8614660   2.4843220  41.0848280  65.9450200   2.2711020
  40.4061540  67.2201950   2.7241020  48.0493480  66.2166400   3.3418090
  48.5050430  65.4355780   3.6556710  48.3886000  66.9273220   3.8859270
  52.7970290  55.1465250  13.6742530  52.1814560  55.6544920  13.1457990
  52.4766710  54.2463580  13.6168470  35.7996030  61.9882860  10.5008830
  35.9627070  61.5188220   9.6828200  36.2648480  61.4806420  11.1657670
  40.5714800  51.1188620   5.5369400  40.1282950  51.8998160   5.2053920
  41.1299790  51.4418510   6.2440340  44.8584610  53.9857140  11.1404720
  44.3963980  54.1940160  11.9524660  44.4562720  53.1716490  10.8375390
  49.8589120  55.2066090  12.2701380  49.0082710  54.9071840  12.5910450
  49.6990910  55.4508100  11.3585200  46.9538830  56.7067840  14.3700170
  47.2792240  55.8731590  14.0302400  47.7419160  57.2296360  14.5178500
  42.6090700  51.6635950   7.3959000  42.9063030  52.5698780   7.3151020
  43.1576260  51.1754730   6.7818570  40.3629020  56.2422190   3.2650650
  40.1369940  56.0259360   4.1697270  39.5821550  56.6750650   2.9196620
  42.8028230  57.1407770  13.9310920  42.7071830  56.2002500  13.7811320
  43.6460210  57.3622840  13.5358990  46.1991650  54.8849100   3.8944580
  46.5921220  55.2021300   3.0813270  46.5608500  54.0060980   4.0089100
  37.9338770  53.5521440  12.0844700  37.5402160  54.3996650  12.2917480
  37.2457170  52.9147810  12.2753340  44.5083820  53.6356410  15.1541440
  43.8182140  53.4428610  15.7887530  45.2516120  53.9191050  15.6865740
  35.2355820  51.4749900   6.1174780  34.9468870  52.0452760   6.8299760
  35.9801580  50.9954350   6.4806010  46.7846790  57.4754850   7.9895360
  46.0527910  57.9841660   8.3385460  46.3871130  56.6584830   7.6884140
  43.2224180  54.1509050   6.3947850  43.2260240  53.7099000   5.5452390
  44.1175300  54.4726380   6.5019670  39.0726560  54.0335540   5.3542060
  38.7326610  54.5110770   6.1109110  38.3103880  53.5800660   4.9943160
  47.2472700  52.9288530   7.4018300  47.2645440  53.3797180   8.2460150
  46.9988280  52.0294170   7.6151740  50.6743450  50.3420710  13.2404680
  50.9989220  49.6110370  13.7662660  50.7099960  50.0234350  12.3385670
  37.3735010  61.3634290  12.6604640  36.9889800  60.7227960  13.2587600
  37.6847200  62.0670410  13.2299370  43.5232150  58.2110830   8.1413260
  43.8902280  57.7369400   8.8874600  43.3337210  59.0852400   8.4821600
  36.3872640  52.9554520   4.2706730  36.1019560  52.5910190   5.1085350
  36.3251500  52.2234980   3.6569870  41.3131520  57.2519470  10.4597470
  41.0088590  58.1311450  10.6847830  42.2677980  57.3119260  10.4954910
  50.6001290  60.4545820   6.8490710  51.3200410  60.9501110   6.4586820
  50.3983110  59.7763710   6.2044580  45.9820090  60.5254880  12.7359710
  45.9157400  59.6050550  12.4817300  45.3525230  60.6230320  13.4504350
  39.8850710  61.1260840   4.6943130  40.4029380  60.3229100   4.6400020
  39.4334730  61.0639980   5.5359960  37.3695250  58.0922210  11.6068830
  37.0110190  58.7576060  12.1942170  37.0749810  57.2605760  11.9781450
  40.5708370  58.5506450  14.4908380  40.2708510  58.6963630  13.5936200
  41.3419610  57.9911740  14.3981770  45.9136820  63.3475450  12.4863510
  45.9281360  62.4156410  12.2682420  45.2061920  63.4335210  13.1253280
  52.1248030  59.9882790  11.8332090  51.3996220  60.5811570  11.6361480
  52.6523490  59.9806330  11.0345460  47.6547620  61.7142960   5.3315940
  48.0071440  61.1171090   4.6717310  46.7709950  61.3887190   5.5024190
  43.7410900  62.4740650   2.7386350  44.4282030  63.0209860   3.1193940
  42.9543320  63.0181380   2.7735960  43.0438110  59.4786680   2.3511710
  43.5000890  60.2891930   2.5771900  42.6926320  59.1609820   3.1830200
  45.3470720  64.9893020   9.5804010  45.9912940  65.1952400  10.2577430
  45.7100160  64.2281420   9.1274860  38.9449890  49.8224330   2.8234230
  38.8164520  49.8142230   3.7719150  38.1211910  50.1607420   2.4725240
  46.6202800  62.9925370   8.2981460  47.2625030  62.2918530   8.4113630
  47.1452150  63.7723810   8.1178350  48.3940420  63.7920270  11.5017520
  48.7296660  64.3786960  12.1795440  47.4740760  63.6612980  11.7315310
  35.9443820  51.5815450  12.2840930  35.2302340  51.7812370  12.8893540
  36.3638860  50.8055020  12.6555730  36.2316410  65.5695710  13.2707460
  36.3407530  64.6290450  13.1302850  35.5796970  65.8350460  12.6221190
  44.2229000  63.8411600  14.6705580  43.9025870  63.1220840  15.2151270
  43.5487360  64.5166670  14.7441640  47.4382600  54.0737760  10.0342380
  47.8063420  53.2532970  10.3621950  46.5780800  54.1339650  10.4498030
  42.7728660  55.3080650   2.2587820  42.0644810  55.7766990   2.7001430
  43.0573140  54.6502660   2.8933010  44.3984590  56.7277350  10.2580350
  44.8969840  57.2023170  10.9232200  44.5407540  55.8040870  10.4650380
  46.8044090  52.0331310   3.6983610  46.6811870  52.0517440   2.7493120
  47.7528650  52.0810250   3.8182010  43.8920880  67.2686610   2.9711590
  44.1462380  67.2308000   2.0490960  42.9433360  67.1419940   2.9639840
  51.6051450  52.9445310  11.1008740  51.1025050  53.6850710  11.4402550
  52.4208110  53.3329310  10.7845530  49.8973460  58.1878490   4.5470100
  48.9563600  58.2028720   4.7217790  50.2117530  57.4014450   4.9930400
  51.8999040  65.3587340   6.2224360  52.0246460  66.1818510   6.6948170
  52.7664600  65.1478070   5.8748510  39.3716570  67.4518550   5.8941490
  40.1079050  66.9034010   6.1650060  39.7557490  68.3174560   5.7547480
  36.2562050  63.5192120   1.7683000  35.3301830  63.7613260   1.7588410
  36.7218480  64.3466380   1.6467750  38.3774850  66.6364620  15.0827070
  39.1787580  66.9576670  15.4962470  37.8626670  66.2760200  15.8046980
  47.2139480  62.7444490  15.0302480  46.6077640  62.7676090  14.2898230
  46.9093590  62.0127530  15.5669730  48.6439850  66.4724780  13.6411890
  49.5961600  66.3882800  13.5912130  48.4968070  67.1366490  14.3145680
  36.0972660  59.1238080  14.0263120  36.6011680  58.5445360  14.5979350
  35.3580080  59.4078310  14.5639490  43.1510600  60.5309070  13.5598640
  42.3856270  61.0994070  13.4753310  43.3326560  60.2385280  12.6666870
  50.2933950  62.2614400  14.1173660  51.0343420  62.5990160  13.6141120
  49.5306630  62.4306460  13.5643430  38.1295740  57.2667670  14.9213190
  38.1701080  56.9681540  15.8298420  38.9841240  57.6675280  14.7620710
  40.0701550  55.8459770  12.8887680  39.5398010  55.3550720  12.2611020
  40.7389620  56.2743970  12.3545610  48.9679610  60.3129230  12.6528870
  49.3820630  60.4674310  13.5019290  48.0330610  60.4384450  12.8154650
  49.4401780  57.6525390  14.6568020  50.0222550  56.8977710  14.5688500
  49.6163550  58.1832830  13.8799500  40.5573850  52.8122140  12.9684970
  40.4630720  52.1942890  12.2435840  39.9771240  53.5388430  12.7414880
  43.3235290  51.3695380  10.0012360  42.8752590  51.3919640   9.1557910
  42.6900490  50.9714400  10.5982660  43.7294840  60.2649710  10.6224800
  44.1482950  61.1082440  10.4501040  42.8103470  60.4021750  10.3931580
  46.0658740  57.9965890  12.0062640  46.1854950  57.4007030  12.7457480
  46.9252740  58.0335580  11.5863940  48.4046640  58.5503080  10.5825150
  47.8781860  59.0745700   9.9790290  48.7477980  59.1830470  11.2134880
  41.5802260  66.5702720  11.7382530  41.0423350  67.2948780  11.4191230
  41.8336220  66.0933060  10.9479870  42.8327510  54.5387240  13.2638460
  43.4227200  54.2303090  13.9516280  42.0147750  54.0666990  13.4198360
  47.6520940  54.1553050  13.4971480  46.9636460  53.4934590  13.4321470
  48.3726960  53.7091320  13.9419940  44.4364470  67.8053930  11.9969180
  44.3623170  68.7089070  12.3041550  43.5343310  67.4865830  11.9691250
  35.8391760  65.1328520   5.3002800  36.1694770  64.2649580   5.0681440
  36.2682760  65.3387040   6.1307760  40.4353680  63.4637530   2.9604770
  40.1349220  63.3402500   3.8608680  40.3291170  62.6046120   2.5520500
  36.3281970  65.9999110   8.0384430  35.8912960  66.1799910   8.8708580
  36.8959650  66.7573730   7.8966150  51.9644150  65.5016110  12.3261740
  51.3646140  65.5608670  11.5825660  52.0938050  64.5621090  12.4558590
  36.1606400  58.5119340   4.3973310  35.5055240  58.2430980   3.7533010
  36.9984350  58.4023820   3.9475290  53.6662030  60.8431510   5.0107580
  54.0370860  60.0598830   4.6043550  54.3063960  61.5320610   4.8324880
  50.6495790  62.2268090  10.4237900  49.8355630  62.6565250  10.6863690
  51.0569990  62.8386500   9.8106950  52.6086570  58.2184770   2.3167600
  52.2330170  57.4512700   1.8848890  51.8789690  58.6007470   2.8042530
  37.1982330  58.8971910   8.9376650  37.5655370  58.8099310   9.8172670
  36.6293150  58.1338460   8.8383510  51.9986190  57.3656290  11.9507120
  51.7672280  57.1369040  11.0505070  52.2590740  58.2855840  11.9052010
  36.7498330  55.8081000  12.8435070  35.8554380  55.7747760  13.1828780
  37.2895880  56.0067790  13.6086320  50.4374260  52.5912720  14.7286820
  51.3144440  52.5996120  15.1120820  50.4495100  51.8543560  14.1179170
  51.8837530  56.4442260   5.6174840  52.4075010  55.9504910   4.9865010
  52.4696950  56.5792620   6.3622410  52.0627250  56.5282130   9.1394390
  51.1129960  56.4945670   9.2539380  52.2440260  57.4382240   8.9044160
  37.2538040  50.0829330   7.1918290  37.9014230  49.5326710   6.7513450
  37.6739880  50.3372480   8.0134100  52.8024660  54.3376560   4.0904930
  52.6923940  54.1832600   5.0287200  53.5632250  53.8097500   3.8480340
  51.1490380  50.2770690  10.5487930  51.7862600  50.8904830  10.9147120
  51.2965270  50.3131350   9.6037160  50.7071840  66.9786690   3.9506170
  51.3030910  66.6571260   3.2740590  50.9649990  66.5058510   4.7419440
  37.0070040  50.2385000   9.9343610  36.6584860  50.6948820  10.7001790
  36.6757740  49.3442130  10.0166040  38.6134410  63.4104600  14.0996800
  38.5704040  63.0397510  14.9811260  38.7445420  64.3482170  14.2398620
  42.3140440  64.9664190   9.7006520  42.0731800  65.2338750   8.8137040
  43.2543080  65.1369920   9.7557380  44.5194860  51.4296880  13.4563030
  44.4583750  52.0218710  14.2058440  45.4595240  51.3222840  13.3113290
  47.1569420  51.0866940  13.0955320  47.7709830  51.4046230  12.4336400
  47.7018980  50.6015530  13.7151180  53.5744600  66.9858570  10.5017160
  53.0802880  67.3827440   9.7844290  52.9657890  66.3607780  10.8954440
  37.6790680  49.7661200  13.2094380  38.2273670  49.5849250  12.4460490
  37.7445990  48.9755310  13.7450690  38.4522440  66.3566850  11.2194580
  37.8582760  66.2251550  11.9584620  38.4446280  65.5204990  10.7536680
  47.8977460  49.6499080   9.4224610  47.0237300  49.9834190   9.2197540
  47.7888210  49.1772260  10.2476480  48.8049440  51.8569950  10.8066330
  48.4762800  51.0421710  10.4268060  49.7531740  51.8139760  10.6832020
  51.2584050  67.6281990   7.7803900  50.7987020  68.3797800   7.4061920
  50.6296510  66.9088460   7.7218700  38.0834670  63.7225230  10.1702620
  37.3568730  63.1030520  10.1028570  38.1443820  64.1165840   9.3000700
  41.6879770  65.9370230   6.9552030  42.2044790  65.3257590   6.4300290
  42.3377150  66.4399010   7.4463040  44.4275270  66.8278720   7.7821010
  44.7153080  66.5733020   6.9054020  44.9398490  66.2756080   8.3726580
  45.6452280  50.5668920   8.3617520  44.8624070  51.0414420   8.6414280
  45.3515210  49.6623750   8.2530700  50.1973350  51.2692020   6.4066610
  50.6381440  51.2137120   5.5588210  49.9280940  52.1850030   6.4776790
  52.0611920  50.9007260   4.4175430  52.0000320  49.9568480   4.2706450
  52.8403950  51.0087350   4.9628890  36.3664670  67.0399620   3.3799380
  36.1986710  66.4070300   4.0781270  35.4999180  67.2459020   3.0293570
  43.5306500  52.9855670   3.8733550  42.7181010  52.6112560   3.5329430
  44.0348140  52.2300750   4.1754740  48.0331480  49.6498120   5.1116620
  48.6360850  50.2218330   5.5865140  47.2924470  50.2137560   4.8890520
  41.5555680  51.1355590   2.4778600  40.9258420  50.4342900   2.6448730
  41.0160820  51.8959720   2.2611760  44.4947630  67.7494820  15.1489210
  45.4214940  67.5139090  15.1925170  44.4798060  68.5766820  14.6675240
  52.7292690  67.2920390   2.1463460  52.9044880  66.6058130   1.5024380
  52.0314260  67.8167440   1.7540130  41.6811240  50.4139570  14.9131090
  41.3995510  50.9173170  14.1491910  42.0630940  49.6161320  14.5473220
  48.2826700  49.8293150  15.4911560  48.1692150  50.1487760  16.3863080
  49.0996440  50.2305660  15.1948840  51.0625190  66.9764680  14.9730250
  51.8550510  66.4813910  14.7656210  51.3558340  67.6554820  15.5805860
  47.1884850  39.0742130  98.5007240  47.1078900  38.1596740  98.2298950
  46.7749270  39.5709200  97.7946950  45.3202890  40.8521150 100.3816510
  44.5444990  40.3721590 100.6715080  45.9715820  40.1726800 100.2072670
  39.3368720  41.1640960 101.2592270  38.5053600  40.9089670 101.6588780
  39.9449700  41.2351730 101.9950190  49.3410320  45.2581340  99.1615640
  48.8791850  44.4868580  99.4902810  50.1535870  45.2847410  99.6668090
  39.3169980  45.1981050 101.4550290  39.6198020  44.3078790 101.2760510
  40.0613570  45.7551270 101.2272540  37.7460670  36.1242850  95.0434660
  36.8577370  36.4658820  94.9414540  38.0301860  35.9243170  94.1515490
  35.7093680  38.7248500 100.9274360  36.2809790  37.9570700 100.9278000
  35.7095220  39.0237260 100.0180970  45.5673630  47.5439350  98.7819630
  44.9485070  47.9996850  98.2114070  46.4225410  47.6990810  98.3809330
  44.7611880  43.5278340 100.3886670  44.6920160  42.5868280 100.2275800
  45.5231740  43.6179750 100.9609240  36.9518550  34.1332860 102.7143290
  36.7721390  33.2358610 102.9946050  36.5498630  34.6804730 103.3890240
  45.7917050  36.3348720 100.6155600  46.1681870  35.4620600 100.5029270
  45.6936560  36.6707420  99.7246040  39.9222060  34.7074350  96.0773040
  40.0288810  35.6078080  96.3841800  39.0114420  34.6592320  95.7867690
  49.5741170  33.8299160  97.5483940  50.3950790  33.3395730  97.5909420
  49.6075250  34.4196820  98.3015780  37.5705220  36.6293360 101.3225630
  38.2515330  36.8931730 101.9413030  37.2553270  35.7894230 101.6563640
  41.7629790  37.6760720 100.4098220  42.2708010  38.1741690 101.0503240
  42.2943030  36.8995920 100.2337580  53.8640720  35.8465910 104.1127570
  53.1592890  36.2347620 103.5942680  54.1298640  36.5416200 104.7148500
  40.0465890  32.3159280 104.6761640  40.0484330  32.8331670 103.8707540
  39.2170200  31.8389460 104.6531570  46.4336980  42.4278590  96.1751540
  45.8154250  42.8928040  95.6114260  46.9460230  43.1206070  96.5921050
  41.2968740  41.9554460 102.8535140  40.9638120  42.5823380 103.4956210
  41.4735420  42.4816340 102.0736810  49.8102650  35.7699540 100.3211480
  49.1058220  36.0584430 100.9014590  50.1714810  36.5799650  99.9611040
  39.7281220  34.0269240 102.6832090  40.0698030  34.8711290 102.3885960
  38.7897030  34.1752980 102.7997430  40.5087840  43.9235260 104.6684320
  41.1261840  44.5986340 104.3868770  39.6480960  44.3323240 104.5771820
  35.8020180  43.1135120  93.5491170  35.4248160  43.6022220  92.8176070
  36.0593250  43.7860400  94.1797700  51.4265430  45.3874670 102.5838960
  50.7428950  46.0573780 102.5755630  51.9659720  45.5855320 101.8183820
  52.8789570  35.2154330 100.7120690  51.9314480  35.2493310 100.8436120
  53.2039560  36.0293280 101.0970050  43.4109110  31.5151510  99.0076680
  43.7184090  30.9598400  98.2912180  42.4809810  31.6495970  98.8249670
  48.9624170  47.2318800 101.2984140  48.9751330  46.8281090 100.4306400
  48.4099390  48.0066090 101.1945570  50.2569590  43.9535020  96.3874310
  50.1465920  43.0109350  96.5123730  50.2537840  44.3150660  97.2737070
  48.3609610  42.1348640 102.6266750  48.7778400  41.9208750 101.7920210
  49.0849430  42.3921430 103.1975370  45.7989870  39.5800340  95.7436800
  44.8719150  39.5137720  95.9725270  45.9514690  40.5180470  95.6292040
  45.7858950  35.8517340  92.7403960  44.8462620  36.0131300  92.8256420
  46.1042210  36.5703020  92.1939950  52.3071710  40.5335860 102.7182990
  51.4790340  40.6028950 102.2433120  52.9022190  41.1190170 102.2498820
  49.8287160  41.1420640  96.2472050  49.2099580  40.8040190  95.5998350
  49.8111610  40.4980400  96.9551240  49.2713720  37.3205180 103.6637860
  48.8584900  38.1458890 103.9177850  48.5389670  36.7350220 103.4714220
  41.4046510  40.1065080  98.5256530  41.0003510  39.3942330  98.0302430
  41.4909630  39.7618320  99.4144570  41.8728210  43.7932640 100.6895740
  41.5756500  43.1878110 100.0103520  42.8228030  43.8309950 100.5785100
  40.1175130  36.8808290 102.3055570  40.6689720  36.9903630 101.5308820
  40.6318640  37.2545890 103.0210800  49.9613820  47.3664510 104.3518840
  49.4844380  48.1736700 104.1591450  49.2775610  46.7142840 104.5045050
  48.0051860  40.3807450  93.2544800  48.4445140  39.5429880  93.1082620
  48.7180280  41.0136850  93.3408940  46.1147240  45.3203520  97.2226040
  46.5543150  46.0627850  96.8081430  46.0534130  45.5630090  98.1465000
  51.5869000  31.6350260  91.5685840  51.2741660  31.7277090  92.4684910
  52.3481470  32.2131290  91.5183270  38.1051140  39.0010060  96.0263180
  37.9848740  39.7272150  95.4144450  37.7952030  38.2312970  95.5491090
  35.7436510  42.1725200 101.8331820  35.8216930  42.3073970 100.8887540
  36.3578190  41.4641090 102.0259940  36.9884140  43.8725390  98.2438000
  36.5812220  44.0139980  97.3891600  37.8797150  43.5885550  98.0409210
  48.7817420  48.3072640  94.5789050  48.6218560  48.0175580  95.4770880
  48.6164130  47.5312770  94.0434280  41.2605800  48.0871170  96.3560670
  41.0848280  47.1706710  96.1428470  40.4061540  48.4458460  96.5958470
  48.4843550  45.8160200  93.1387050  47.7908710  45.8137490  92.4789330
  49.2266410  45.3919520  92.7081220  48.0493480  47.4422910  97.2135540
  48.5050430  46.6612290  97.5274160  48.3886000  48.1529730  97.7576720
  40.5714800  32.3445130  99.4086850  40.1282950  33.1254670  99.0771370
  41.1299790  32.6675020 100.1157790  43.6873620  31.9655830  94.2892680
  43.0627800  31.9615700  95.0145990  43.6003740  31.0986790  93.8928650
  42.6090700  32.8892460 101.2676450  42.9063030  33.7955290 101.1868470
  43.1576260  32.4011240 100.6536020  40.3629020  37.4678700  97.1368100
  40.1369940  37.2515870  98.0414720  39.5821550  37.9007160  96.7914070
  47.5926780  37.4742070  95.7358750  46.9935670  38.1977870  95.5522370
  48.1406390  37.4118850  94.9535200  46.1991650  36.1105610  97.7662030
  46.5921220  36.4277810  96.9530720  46.5608500  35.2317490  97.8806550
  35.2355820  32.7006410  99.9892230  34.9468870  33.2709270 100.7017210
  35.9801580  32.2210860 100.3523460  35.4226050  36.6426530  91.1994950
  35.3400720  37.5857290  91.3409940  35.0709110  36.5001440  90.3207300
  46.7846790  38.7011360 101.8612810  46.0527910  39.2098170 102.2102910
  46.3871130  37.8841340 101.5601590  43.2224180  35.3765560 100.2665300
  43.2260240  34.9355510  99.4169840  44.1175300  35.6982890 100.3737120
  39.0726560  35.2592050  99.2259510  38.7326610  35.7367280  99.9826560
  38.3103880  34.8057170  98.8660610  43.2844330  36.3777640  93.2572060
  43.4057150  36.3364120  94.2057880  42.8992840  37.2401790  93.1018790
  47.2472700  34.1545040 101.2735750  47.2645440  34.6053690 102.1177600
  46.9988280  33.2550680 101.4869190  42.2965830  38.6878780  92.6555360
  41.7282730  38.2397030  92.0291270  43.0054830  39.0471560  92.1220510
  43.5232150  39.4367340 102.0130710  43.8902280  38.9625910 102.7592050
  43.3337210  40.3108910 102.3539050  36.3872640  34.1811030  98.1424180
  36.1019560  33.8166700  98.9802800  36.3251500  33.4491490  97.5287320
  41.3131520  38.4775980 104.3314920  41.0088590  39.3567960 104.5565280
  42.2677980  38.5375770 104.3672360  39.8413310  42.6836970  94.9281770
  39.0675570  42.1434590  94.7680490  40.5707940  42.1643580  94.5899530
  50.6001290  41.6802330 100.7208160  51.3200410  42.1757620 100.3304270
  50.3983110  41.0020220 100.0762030  46.0611230  33.0740290  94.8637550
  45.2475840  32.5753460  94.7882860  45.8673180  33.9138540  94.4473900
  48.7759620  37.4459940  93.1599710  49.6639240  37.7577170  92.9851050
  48.7464710  36.5732190  92.7680290  39.8850710  42.3517350  98.5660580
  40.4029380  41.5485610  98.5117470  39.4334730  42.2896490  99.4077410
  44.7720210  43.6183630  93.8387880  45.1135910  44.3625860  93.3431200
  43.9432920  43.9314750  94.2012710  51.0473890  38.7571780  92.6279570
  50.9637610  39.1886000  91.7776010  51.7668080  39.2170130  93.0606390
  52.0761140  45.6114040  95.3561700  51.4337300  44.9569660  95.6305420
  51.6891800  46.0169130  94.5802370  47.6547620  42.9399470  99.2033390
  48.0071440  42.3427600  98.5434760  46.7709950  42.6143700  99.3741640
  43.7410900  43.6997160  96.6103800  44.4282030  44.2466370  96.9911390
  42.9543320  44.2437890  96.6453410  35.8803300  39.3169980  92.1020880
  36.7498150  39.5994780  92.3856800  35.3893620  40.1305850  91.9869690
  43.0438110  40.7043190  96.2229160  43.5000890  41.5148440  96.4489350
  42.6926320  40.3866330  97.0547650  45.3470720  46.2149530 103.4521460
  45.9912940  46.4208910 104.1294880  45.7100160  45.4537930 102.9992310
  38.9449890  31.0480840  96.6951680  38.8164520  31.0398740  97.6436600
  38.1211910  31.3863930  96.3442690  46.6202800  44.2181880 102.1698910
  47.2625030  43.5175040 102.2831080  47.1452150  44.9980320 101.9895800
  50.4658520  44.5030500  91.8938050  50.2396100  43.7860940  92.4862690
  50.0754720  44.2542940  91.0559800  36.2474550  48.5297360  92.6682510
  36.6072190  49.1286700  92.0139780  36.1066890  49.0757250  93.4417540
  50.0474770  42.4202440  93.5552210  49.7596470  42.8815130  94.3430090
  50.8426940  41.9600210  93.8236430  42.2643170  45.9128560  93.4856180
  42.2553270  46.6458250  92.8700690  41.3441530  45.6660140  93.5783140
  37.8649810  41.1343450  94.2302940  37.2577760  41.8742350  94.2398240
  38.3399160  41.2242810  93.4041140  47.4382600  35.2994270 103.9059830
  47.8063420  34.4789480 104.2339400  46.5780800  35.3596160 104.3215480
  50.8044630  34.2551210  94.7147390  50.1757790  34.3596880  94.0005620
  50.3096550  34.4747990  95.5041270  45.2502770  45.9756800  92.1481370
  45.3514750  45.7720790  91.2183350  44.3504510  45.7215080  92.3529150
  42.7728660  36.5337160  96.1305270  42.0644810  37.0023500  96.5718880
  43.0573140  35.8759170  96.7650460  44.3984590  37.9533860 104.1297800
  44.8969840  38.4279680 104.7949650  44.5407540  37.0297380 104.3367830
  46.8044090  33.2587820  97.5701060  46.6811870  33.2773950  96.6210570
  47.7528650  33.3066760  97.6899460  43.8920880  48.4943120  96.8429040
  44.1462380  48.4564510  95.9208410  42.9433360  48.3676450  96.8357290
  40.9763680  34.8422240  93.5055980  41.8254210  35.2792390  93.4396170
  40.6094950  35.1542500  94.3328040  49.8973460  39.4135000  98.4187550
  48.9563600  39.4285230  98.5935240  50.2117530  38.6270960  98.8647850
  39.8755100  41.0954600  91.9791510  40.6418370  40.9835960  92.5416940
  39.9529790  40.3992570  91.3268280  38.5701860  38.5279670  92.6624400
  38.6505450  37.5807180  92.7741800  39.4621610  38.8586550  92.7685060
  51.8999040  46.5843850 100.0941810  52.0246460  47.4075020 100.5665620
  52.7664600  46.3734580  99.7465960  39.3716570  48.6775060  99.7658940
  40.1079050  48.1290520 100.0367510  39.7557490  49.5431070  99.6264930
  36.2562050  44.7448630  95.6400450  35.3301830  44.9869770  95.6305860
  36.7218480  45.5722890  95.5185200  42.4818880  47.8505370  91.5884510
  43.2747490  48.1394200  91.1366300  41.9623230  47.4197540  90.9096990
  51.5349050  47.0775500  93.0121250  51.2490560  46.6640640  92.1975430
  51.3368600  48.0063210  92.8921770  42.9996280  43.0708780  91.4526860
  42.8946920  42.4561130  92.1788240  42.8320500  42.5474670  90.6689870
  46.2399010  42.1328810  92.0568850  45.6909110  42.5798110  92.7011590
  46.8618270  41.6278060  92.5806520  41.9074130  41.0919730  93.9534150
  42.3290550  40.9259600  94.7965540  42.0324970  40.2819960  93.4589290
  44.4201770  40.1157340  91.2011250  44.9407430  39.4006360  90.8352400
  45.0670170  40.7543210  91.5011760  43.3235290  32.5951890 103.8729810
  42.8752590  32.6176150 103.0275360  42.6900490  32.1970910 104.4700110
  43.7294840  41.4906220 104.4942250  44.1482950  42.3338950 104.3218490
  42.8103470  41.6278260 104.2649030  40.8033030  37.1652960  90.8992310
  40.6022090  36.3020320  91.2605650  40.6325080  37.0786320  89.9613910
  48.2821340  31.9761190  93.4279190  48.5623630  31.1329090  93.7838610
  47.5087070  32.2084300  93.9417940  39.6015830  34.2653580  90.8870190
  39.9041730  34.2721010  89.9789340  40.3410420  33.9151440  91.3837850
  42.8200760  33.2088200  91.8726390  42.4722760  32.5312190  91.2928840
  43.0213530  32.7477710  92.6869780  44.9849800  48.1968950  93.4912990
  45.8800590  48.5353920  93.5131750  45.0167430  47.4748360  92.8637270
  38.6245960  43.5696000  91.7199990  39.0620830  44.1125670  92.3757570
  39.1093690  42.7442950  91.7296330  35.8391760  46.3585030  99.1720250
  36.1694770  45.4906090  98.9398890  36.2682760  46.5643550 100.0025210
  40.4353680  44.6894040  96.8322220  40.1349220  44.5659010  97.7326130
  40.3291170  43.8302630  96.4237950  36.3281970  47.2255620 101.9101880
  35.8912960  47.4056420 102.7426030  36.8959650  47.9830240 101.7683600
  53.2045600  44.4690440  91.5348900  52.3738560  44.5367090  92.0056130
  53.3817430  45.3594560  91.2315760  52.6602060  41.2137920  94.0383100
  53.4220970  41.7834570  94.1442790  52.6756430  40.6465120  94.8091410
  36.1606400  39.7375850  98.2690760  35.5055240  39.4687490  97.6250460
  36.9984350  39.6280330  97.8192740  53.6662030  42.0688020  98.8825030
  54.0370860  41.2855340  98.4761000  54.3063960  42.7577120  98.7042330
  50.6495790  43.4524600 104.2955350  49.8355630  43.8821760 104.5581140
  51.0569990  44.0643010 103.6824400  52.7121230  41.5072290  91.1955620
  52.9870070  42.4151170  91.0674840  52.5231970  41.4434820  92.1317610
  49.1096840  34.5317140  92.4909250  49.5281720  34.3448120  91.6505910
  48.8032900  33.6796190  92.8012180  52.6086570  39.4441280  96.1885050
  52.2330170  38.6769210  95.7566340  51.8789690  39.8263980  96.6759980
  37.1982330  40.1228420 102.8094100  37.5655370  40.0355820 103.6890120
  36.6293150  39.3594970 102.7100960  35.3744480  36.9474780  94.2116090
  34.4708560  37.2104980  94.0367750  35.8585100  37.2185950  93.4316050
  51.8837530  37.6698770  99.4892290  52.4075010  37.1761420  98.8582460
  52.4696950  37.8049130 100.2339860  52.0627250  37.7538640 103.0111840
  51.1129960  37.7202180 103.1256830  52.2440260  38.6638750 102.7761610
  37.9171690  36.0040320  92.1210470  38.6263390  35.5823540  91.6357750
  37.2011630  36.0715550  91.4893820  37.5645850  32.0579650  91.1613120
  38.2873980  32.5988590  91.4794340  37.8370370  31.7843070  90.2854660
  51.3737500  36.9272120  95.4284700  51.8696620  36.6942990  96.2133580
  51.1753570  36.0883960  95.0122340  37.2538040  31.3085840 101.0635740
  37.9014230  30.7583220 100.6230900  37.6739880  31.5628990 101.8851550
  52.8024660  35.5633070  97.9622380  52.6923940  35.4089110  98.9004650
  53.5632250  35.0354010  97.7197790  51.1490380  31.5027200 104.4205380
  51.7862600  32.1161340 104.7864570  51.2965270  31.5387860 103.4754610
  53.6914930  33.3940990  91.2028520  54.6164240  33.2622170  90.9946810
  53.6690720  33.4733810  92.1564970  53.7653420  34.1651650  93.8285230
  52.9704920  34.0996770  94.3578140  53.9696700  35.1002290  93.8170580
  50.7071840  48.2043200  97.8223620  51.3030910  47.8827770  97.1458040
  50.9649990  47.7315020  98.6136890  37.0070040  31.4641510 103.8061060
  36.6584860  31.9205330 104.5719240  36.6757740  30.5698640 103.8883490
  42.3140440  46.1920700 103.5723970  42.0731800  46.4595260 102.6854490
  43.2543080  46.3626430 103.6274830  53.5744600  48.2115080 104.3734610
  53.0802880  48.6083950 103.6561740  52.9657890  47.5864290 104.7671890
  47.8977460  30.8755590 103.2942060  47.0237300  31.2090700 103.0914990
  47.7888210  30.4028770 104.1193930  48.8049440  33.0826460 104.6783780
  48.4762800  32.2678220 104.2985510  49.7531740  33.0396270 104.5549470
  51.2584050  48.8538500 101.6521350  50.7987020  49.6054310 101.2779370
  50.6296510  48.1344970 101.5936150  38.0834670  44.9481740 104.0420070
  37.3568730  44.3287030 103.9746020  38.1443820  45.3422350 103.1718150
  41.6879770  47.1626740 100.8269480  42.2044790  46.5514100 100.3017740
  42.3377150  47.6655520 101.3180490  44.4275270  48.0535230 101.6538460
  44.7153080  47.7989530 100.7771470  44.9398490  47.5012590 102.2444030
  45.6452280  31.7925430 102.2334970  44.8624070  32.2670930 102.5131730
  45.3515210  30.8880260 102.1248150  50.1973350  32.4948530 100.2784060
  50.6381440  32.4393630  99.4305660  49.9280940  33.4106540 100.3494240
  52.0611920  32.1263770  98.2892880  52.0000320  31.1824990  98.1423900
  52.8403950  32.2343860  98.8346340  36.3664670  48.2656130  97.2516830
  36.1986710  47.6326810  97.9498720  35.4999180  48.4715530  96.9011020
  36.9892690  32.0972910  94.7548690  37.7472050  32.2101790  94.1812720
  36.5269860  32.9342110  94.7092120  43.5306500  34.2112180  97.7451000
  42.7181010  33.8369070  97.4046880  44.0348140  33.4557260  98.0472190
  48.0331480  30.8754630  98.9834070  48.6360850  31.4474840  99.4582590
  47.2924470  31.4394070  98.7607970  51.1766080  31.2776190  94.2574350
  51.3716710  32.1759640  94.5241780  50.3895950  31.0463270  94.7507300
  37.9727370  46.9589360  94.6966970  37.4474990  47.3397390  93.9928930
  37.8971950  47.5840130  95.4176680  39.3617840  32.6236960  93.2950660
  39.8910600  31.8366760  93.1658610  39.9946160  33.3028150  93.5286190
  41.5555680  32.3612100  96.3496050  40.9258420  31.6599410  96.5166180
  41.0160820  33.1216230  96.1329210  52.7292690  48.5176900  96.0180910
  52.9044880  47.8314640  95.3741830  52.0314260  49.0423950  95.6257580
  40.5720340  48.9071740  93.5716220  41.3039160  48.6231020  93.0240110
  40.8314010  48.6685020  94.4615600  39.7335130  45.0236470  93.5762550
  39.1044010  45.4921570  94.1248380  39.8482960  44.1785690  94.0108740
  37.7460670  36.1242850  76.2691170  36.8577370  36.4658820  76.1671050
  38.0301860  35.9243170  75.3772000  36.9518550  34.1332860  83.9399800
  36.7721390  33.2358610  84.2202560  36.5498630  34.6804730  84.6146750
  45.7917050  36.3348720  81.8412110  46.1681870  35.4620600  81.7285780
  45.6936560  36.6707420  80.9502550  39.9222060  34.7074350  77.3029550
  40.0288810  35.6078080  77.6098310  39.0114420  34.6592320  77.0124200
  49.5741170  33.8299160  78.7740450  50.3950790  33.3395730  78.8165930
  49.6075250  34.4196820  79.5272290  37.5705220  36.6293360  82.5482140
  38.2515330  36.8931730  83.1669540  37.2553270  35.7894230  82.8820150
  53.8640720  35.8465910  85.3384080  53.1592890  36.2347620  84.8199190
  54.1298640  36.5416200  85.9405010  40.0465890  32.3159280  85.9018150
  40.0484330  32.8331670  85.0964050  39.2170200  31.8389460  85.8788080
  49.8102650  35.7699540  81.5467990  49.1058220  36.0584430  82.1271100
  50.1714810  36.5799650  81.1867550  39.7281220  34.0269240  83.9088600
  40.0698030  34.8711290  83.6142470  38.7897030  34.1752980  84.0253940
  40.5087840  43.9235260  85.8940830  41.1261840  44.5986340  85.6125280
  39.6480960  44.3323240  85.8028330  52.8789570  35.2154330  81.9377200
  51.9314480  35.2493310  82.0692630  53.2039560  36.0293280  82.3226560
  43.4109110  31.5151510  80.2333190  43.7184090  30.9598400  79.5168690
  42.4809810  31.6495970  80.0506180  52.3071710  40.5335860  83.9439500
  51.4790340  40.6028950  83.4689630  52.9022190  41.1190170  83.4755330
  40.1175130  36.8808290  83.5312080  40.6689720  36.9903630  82.7565330
  40.6318640  37.2545890  84.2467310  40.9646640  43.5314330  88.5660050
  40.0675170  43.7554300  88.8133450  40.9899510  43.6549270  87.6171450
  39.7917860  40.4027650  87.1417420  39.6525630  41.2750450  87.5104820
  38.9099220  40.0600460  86.9965360  41.5898210  46.3449350  89.3502570
  41.5613640  46.7492300  88.4831000  41.4263180  45.4159710  89.1874170
  53.5413030  47.1276450  90.6466740  54.0172750  47.6059340  91.3255820
  54.1620190  47.0593940  89.9212240  52.9446280  44.3189300  87.8066750
  53.0709340  44.0801180  86.8883930  52.9867660  43.4873840  88.2788830
  46.8063020  48.0217300  86.3761560  47.3207690  47.9325310  87.1783990
  45.9632100  48.3677000  86.6689470  52.7970290  36.3721760  88.7716490
  52.1814560  36.8801430  88.2431950  52.4766710  35.4720090  88.7142430
  35.7996030  43.2139370  85.5982790  35.9627070  42.7444730  84.7802160
  36.2648480  42.7062930  86.2631630  40.5714800  32.3445130  80.6343360
  40.1282950  33.1254670  80.3027880  41.1299790  32.6675020  81.3414300
  44.8584610  35.2113650  86.2378680  44.3963980  35.4196670  87.0498620
  44.4562720  34.3973000  85.9349350  49.8589120  36.4322600  87.3675340
  49.0082710  36.1328350  87.6884410  49.6990910  36.6764610  86.4559160
  46.9538830  37.9324350  89.4674130  47.2792240  37.0988100  89.1276360
  47.7419160  38.4552870  89.6152460  43.6873620  31.9655830  75.5149190
  43.0627800  31.9615700  76.2402500  43.6003740  31.0986790  75.1185160
  42.6090700  32.8892460  82.4932960  42.9063030  33.7955290  82.4124980
  43.1576260  32.4011240  81.8792530  42.8028230  38.3664280  89.0284880
  42.7071830  37.4259010  88.8785280  43.6460210  38.5879350  88.6332950
  37.9338770  34.7777950  87.1818660  37.5402160  35.6253160  87.3891440
  37.2457170  34.1404320  87.3727300  44.5083820  34.8612920  90.2515400
  43.8182140  34.6685120  90.8861490  45.2516120  35.1447560  90.7839700
  35.2355820  32.7006410  81.2148740  34.9468870  33.2709270  81.9273720
  35.9801580  32.2210860  81.5779970  35.4226050  36.6426530  72.4251460
  35.3400720  37.5857290  72.5666450  35.0709110  36.5001440  71.5463810
  43.2224180  35.3765560  81.4921810  43.2260240  34.9355510  80.6426350
  44.1175300  35.6982890  81.5993630  39.0726560  35.2592050  80.4516020
  38.7326610  35.7367280  81.2083070  38.3103880  34.8057170  80.0917120
  47.2472700  34.1545040  82.4992260  47.2645440  34.6053690  83.3434110
  46.9988280  33.2550680  82.7125700  50.6743450  31.5677220  88.3378640
  50.9989220  30.8366880  88.8636620  50.7099960  31.2490860  87.4359630
  37.3735010  42.5890800  87.7578600  36.9889800  41.9484470  88.3561560
  37.6847200  43.2926920  88.3273330  36.3872640  34.1811030  79.3680690
  36.1019560  33.8166700  80.2059310  36.3251500  33.4491490  78.7543830
  41.3131520  38.4775980  85.5571430  41.0088590  39.3567960  85.7821790
  42.2677980  38.5375770  85.5928870  45.9820090  41.7511390  87.8333670
  45.9157400  40.8307060  87.5791260  45.3525230  41.8486830  88.5478310
  37.3695250  39.3178720  86.7042790  37.0110190  39.9832570  87.2916130
  37.0749810  38.4862270  87.0755410  40.5708370  39.7762960  89.5882340
  40.2708510  39.9220140  88.6910160  41.3419610  39.2168250  89.4955730
  45.9136820  44.5731960  87.5837470  45.9281360  43.6412920  87.3656380
  45.2061920  44.6591720  88.2227240  52.1248030  41.2139300  86.9306050
  51.3996220  41.8068080  86.7335440  52.6523490  41.2062840  86.1319420
  47.6547620  42.9399470  80.4289900  48.0071440  42.3427600  79.7691270
  46.7709950  42.6143700  80.5998150  35.8803300  39.3169980  73.3277390
  36.7498150  39.5994780  73.6113310  35.3893620  40.1305850  73.2126200
  45.3470720  46.2149530  84.6777970  45.9912940  46.4208910  85.3551390
  45.7100160  45.4537930  84.2248820  38.9449890  31.0480840  77.9208190
  38.8164520  31.0398740  78.8693110  38.1211910  31.3863930  77.5699200
  46.6202800  44.2181880  83.3955420  47.2625030  43.5175040  83.5087590
  47.1452150  44.9980320  83.2152310  48.3940420  45.0176780  86.5991480
  48.7296660  45.6043470  87.2769400  47.4740760  44.8869490  86.8289270
  35.9443820  32.8071960  87.3814890  35.2302340  33.0068880  87.9867500
  36.3638860  32.0311530  87.7529690  36.2316410  46.7952220  88.3681420
  36.3407530  45.8546960  88.2276810  35.5796970  47.0606970  87.7195150
  44.2229000  45.0668110  89.7679540  43.9025870  44.3477350  90.3125230
  43.5487360  45.7423180  89.8415600  37.8649810  41.1343450  75.4559450
  37.2577760  41.8742350  75.4654750  38.3399160  41.2242810  74.6297650
  47.4382600  35.2994270  85.1316340  47.8063420  34.4789480  85.4595910
  46.5780800  35.3596160  85.5471990  50.8044630  34.2551210  75.9403900
  50.1757790  34.3596880  75.2262130  50.3096550  34.4747990  76.7297780
  44.3984590  37.9533860  85.3554310  44.8969840  38.4279680  86.0206160
  44.5407540  37.0297380  85.5624340  46.8044090  33.2587820  78.7957570
  46.6811870  33.2773950  77.8467080  47.7528650  33.3066760  78.9155970
  40.9763680  34.8422240  74.7312490  41.8254210  35.2792390  74.6652680
  40.6094950  35.1542500  75.5584550  51.6051450  34.1701820  86.1982700
  51.1025050  34.9107220  86.5376510  52.4208110  34.5585820  85.8819490
  49.8973460  39.4135000  79.6444060  48.9563600  39.4285230  79.8191750
  50.2117530  38.6270960  80.0904360  38.5701860  38.5279670  73.8880910
  38.6505450  37.5807180  73.9998310  39.4621610  38.8586550  73.9941570
  38.3774850  47.8621130  90.1801030  39.1787580  48.1833180  90.5936430
  37.8626670  47.5016710  90.9020940  47.2139480  43.9701000  90.1276440
  46.6077640  43.9932600  89.3872190  46.9093590  43.2384040  90.6643690
  48.6439850  47.6981290  88.7385850  49.5961600  47.6139310  88.6886090
  48.4968070  48.3623000  89.4119640  36.0972660  40.3494590  89.1237080
  36.6011680  39.7701870  89.6953310  35.3580080  40.6334820  89.6613450
  43.1510600  41.7565580  88.6572600  42.3856270  42.3250580  88.5727270
  43.3326560  41.4641790  87.7640830  50.2933950  43.4870910  89.2147620
  51.0343420  43.8246670  88.7115080  49.5306630  43.6562970  88.6617390
  38.1295740  38.4924180  90.0187150  38.1701080  38.1938050  90.9272380
  38.9841240  38.8931790  89.8594670  40.0701550  37.0716280  87.9861640
  39.5398010  36.5807230  87.3584980  40.7389620  37.5000480  87.4519570
  48.9679610  41.5385740  87.7502830  49.3820630  41.6930820  88.5993250
  48.0330610  41.6640960  87.9128610  49.4401780  38.8781900  89.7541980
  50.0222550  38.1234220  89.6662460  49.6163550  39.4089340  88.9773460
  40.5573850  34.0378650  88.0658930  40.4630720  33.4199400  87.3409800
  39.9771240  34.7644940  87.8388840  43.3235290  32.5951890  85.0986320
  42.8752590  32.6176150  84.2531870  42.6900490  32.1970910  85.6956620
  43.7294840  41.4906220  85.7198760  44.1482950  42.3338950  85.5475000
  42.8103470  41.6278260  85.4905540  46.0658740  39.2222400  87.1036600
  46.1854950  38.6263540  87.8431440  46.9252740  39.2592090  86.6837900
  40.8033030  37.1652960  72.1248820  40.6022090  36.3020320  72.4862160
  40.6325080  37.0786320  71.1870420  41.5802260  47.7959230  86.8356490
  41.0423350  48.5205290  86.5165190  41.8336220  47.3189570  86.0453830
  42.8327510  35.7643750  88.3612420  43.4227200  35.4559600  89.0490240
  42.0147750  35.2923500  88.5172320  47.6520940  35.3809560  88.5945440
  46.9636460  34.7191100  88.5295430  48.3726960  34.9347830  89.0393900
  48.2821340  31.9761190  74.6535700  48.5623630  31.1329090  75.0095120
  47.5087070  32.2084300  75.1674450  39.6015830  34.2653580  72.1126700
  39.9041730  34.2721010  71.2045850  40.3410420  33.9151440  72.6094360
  42.8200760  33.2088200  73.0982900  42.4722760  32.5312190  72.5185350
  43.0213530  32.7477710  73.9126290  51.9644150  46.7272620  87.4235700
  51.3646140  46.7865180  86.6799620  52.0938050  45.7877600  87.5532550
  50.6495790  43.4524600  85.5211860  49.8355630  43.8821760  85.7837650
  51.0569990  44.0643010  84.9080910  37.1982330  40.1228420  84.0350610
  37.5655370  40.0355820  84.9146630  36.6293150  39.3594970  83.9357470
  51.9986190  38.5912800  87.0481080  51.7672280  38.3625550  86.1479030
  52.2590740  39.5112350  87.0025970  36.7498330  37.0337510  87.9409030
  35.8554380  37.0004270  88.2802740  37.2895880  37.2324300  88.7060280
  50.4374260  33.8169230  89.8260780  51.3144440  33.8252630  90.2094780
  50.4495100  33.0800070  89.2153130  35.3744480  36.9474780  75.4372600
  34.4708560  37.2104980  75.2624260  35.8585100  37.2185950  74.6572560
  51.8837530  37.6698770  80.7148800  52.4075010  37.1761420  80.0838970
  52.4696950  37.8049130  81.4596370  52.0627250  37.7538640  84.2368350
  51.1129960  37.7202180  84.3513340  52.2440260  38.6638750  84.0018120
  37.9171690  36.0040320  73.3466980  38.6263390  35.5823540  72.8614260
  37.2011630  36.0715550  72.7150330  37.5645850  32.0579650  72.3869630
  38.2873980  32.5988590  72.7050850  37.8370370  31.7843070  71.5111170
  51.3737500  36.9272120  76.6541210  51.8696620  36.6942990  77.4390090
  51.1753570  36.0883960  76.2378850  37.2538040  31.3085840  82.2892250
  37.9014230  30.7583220  81.8487410  37.6739880  31.5628990  83.1108060
  51.1490380  31.5027200  85.6461890  51.7862600  32.1161340  86.0121080
  51.2965270  31.5387860  84.7011120  37.0070040  31.4641510  85.0317570
  36.6584860  31.9205330  85.7975750  36.6757740  30.5698640  85.1140000
  38.6134410  44.6361110  89.1970760  38.5704040  44.2654020  90.0785220
  38.7445420  45.5738680  89.3372580  42.3140440  46.1920700  84.7980480
  42.0731800  46.4595260  83.9111000  43.2543080  46.3626430  84.8531340
  44.5194860  32.6553390  88.5536990  44.4583750  33.2475220  89.3032400
  45.4595240  32.5479350  88.4087250  47.1569420  32.3123450  88.1929280
  47.7709830  32.6302740  87.5310360  47.7018980  31.8272040  88.8125140
  37.6790680  30.9917710  88.3068340  38.2273670  30.8105760  87.5434450
  37.7445990  30.2011820  88.8424650  38.4522440  47.5823360  86.3168540
  37.8582760  47.4508060  87.0558580  38.4446280  46.7461500  85.8510640
  47.8977460  30.8755590  84.5198570  47.0237300  31.2090700  84.3171500
  47.7888210  30.4028770  85.3450440  48.8049440  33.0826460  85.9040290
  48.4762800  32.2678220  85.5242020  49.7531740  33.0396270  85.7805980
  45.6452280  31.7925430  83.4591480  44.8624070  32.2670930  83.7388240
  45.3515210  30.8880260  83.3504660  50.1973350  32.4948530  81.5040570
  50.6381440  32.4393630  80.6562170  49.9280940  33.4106540  81.5750750
  52.0611920  32.1263770  79.5149390  52.0000320  31.1824990  79.3680410
  52.8403950  32.2343860  80.0602850  36.9892690  32.0972910  75.9805200
  37.7472050  32.2101790  75.4069230  36.5269860  32.9342110  75.9348630
  43.5306500  34.2112180  78.9707510  42.7181010  33.8369070  78.6303390
  44.0348140  33.4557260  79.2728700  48.0331480  30.8754630  80.2090580
  48.6360850  31.4474840  80.6839100  47.2924470  31.4394070  79.9864480
  51.1766080  31.2776190  75.4830860  51.3716710  32.1759640  75.7498290
  50.3895950  31.0463270  75.9763810  39.3617840  32.6236960  74.5207170
  39.8910600  31.8366760  74.3915120  39.9946160  33.3028150  74.7542700
  41.5555680  32.3612100  77.5752560  40.9258420  31.6599410  77.7422690
  41.0160820  33.1216230  77.3585720  44.4947630  48.9751330  90.2463170
  45.4214940  48.7395600  90.2899130  44.4798060  49.8023330  89.7649200
  41.6811240  31.6396080  90.0105050  41.3995510  32.1429680  89.2465870
  42.0630940  30.8417830  89.6447180  48.2826700  31.0549660  90.5885520
  48.1692150  31.3744270  91.4837040  49.0996440  31.4562170  90.2922800
  51.0625190  48.2021190  90.0704210  51.8550510  47.7070420  89.8630170
  51.3558340  48.8811330  90.6779820  45.3202890  40.8521150  62.8329530
  44.5444990  40.3721590  63.1228100  45.9715820  40.1726800  62.6585690
  39.3368720  41.1640960  63.7105290  38.5053600  40.9089670  64.1101800
  39.9449700  41.2351730  64.4463210  39.3169980  45.1981050  63.9063310
  39.6198020  44.3078790  63.7273530  40.0613570  45.7551270  63.6785560
  44.7611880  43.5278340  62.8399690  44.6920160  42.5868280  62.6788820
  45.5231740  43.6179750  63.4122260  36.9518550  34.1332860  65.1656310
  36.7721390  33.2358610  65.4459070  36.5498630  34.6804730  65.8403260
  45.7917050  36.3348720  63.0668620  46.1681870  35.4620600  62.9542290
  45.6936560  36.6707420  62.1759060  41.7629790  37.6760720  62.8611240
  42.2708010  38.1741690  63.5016260  42.2943030  36.8995920  62.6850600
  40.0465890  32.3159280  67.1274660  40.0484330  32.8331670  66.3220560
  39.2170200  31.8389460  67.1044590  39.7281220  34.0269240  65.1345110
  40.0698030  34.8711290  64.8398980  38.7897030  34.1752980  65.2510450
  48.9624170  47.2318800  63.7497160  48.9751330  46.8281090  62.8819420
  48.4099390  48.0066090  63.6458590  45.7989870  39.5800340  58.1949820
  44.8719150  39.5137720  58.4238290  45.9514690  40.5180470  58.0805060
  41.4046510  40.1065080  60.9769550  41.0003510  39.3942330  60.4815450
  41.4909630  39.7618320  61.8657590  41.8728210  43.7932640  63.1408760
  41.5756500  43.1878110  62.4616540  42.8228030  43.8309950  63.0298120
  40.1175130  36.8808290  64.7568590  40.6689720  36.9903630  63.9821840
  40.6318640  37.2545890  65.4723820  39.7917860  40.4027650  68.3673930
  39.6525630  41.2750450  68.7361330  38.9099220  40.0600460  68.2221870
  36.9884140  43.8725390  60.6951020  36.5812220  44.0139980  59.8404620
  37.8797150  43.5885550  60.4922230  46.8063020  48.0217300  67.6018070
  47.3207690  47.9325310  68.4040500  45.9632100  48.3677000  67.8945980
  42.8028230  38.3664280  70.2541390  42.7071830  37.4259010  70.1041790
  43.6460210  38.5879350  69.8589460  37.9338770  34.7777950  68.4075170
  37.5402160  35.6253160  68.6147950  37.2457170  34.1404320  68.5983810
  43.5232150  39.4367340  64.4643730  43.8902280  38.9625910  65.2105070
  43.3337210  40.3108910  64.8052070  41.3131520  38.4775980  66.7827940
  41.0088590  39.3567960  67.0078300  42.2677980  38.5375770  66.8185380
  39.8413310  42.6836970  57.3794790  39.0675570  42.1434590  57.2193510
  40.5707940  42.1643580  57.0412550  39.8850710  42.3517350  61.0173600
  40.4029380  41.5485610  60.9630490  39.4334730  42.2896490  61.8590430
  37.3695250  39.3178720  67.9299300  37.0110190  39.9832570  68.5172640
  37.0749810  38.4862270  68.3011920  40.5708370  39.7762960  70.8138850
  40.2708510  39.9220140  69.9166670  41.3419610  39.2168250  70.7212240
  45.9136820  44.5731960  68.8093980  45.9281360  43.6412920  68.5912890
  45.2061920  44.6591720  69.4483750  45.3470720  46.2149530  65.9034480
  45.9912940  46.4208910  66.5807900  45.7100160  45.4537930  65.4505330
  46.6202800  44.2181880  64.6211930  47.2625030  43.5175040  64.7344100
  47.1452150  44.9980320  64.4408820  48.3940420  45.0176780  67.8247990
  48.7296660  45.6043470  68.5025910  47.4740760  44.8869490  68.0545780
  35.9443820  32.8071960  68.6071400  35.2302340  33.0068880  69.2124010
  36.3638860  32.0311530  68.9786200  44.3984590  37.9533860  66.5810820
  44.8969840  38.4279680  67.2462670  44.5407540  37.0297380  66.7880850
  36.2562050  44.7448630  58.0913470  35.3301830  44.9869770  58.0818880
  36.7218480  45.5722890  57.9698220  36.0972660  40.3494590  70.3493590
  36.6011680  39.7701870  70.9209820  35.3580080  40.6334820  70.8869960
  38.1295740  38.4924180  71.2443660  38.1701080  38.1938050  72.1528890
  38.9841240  38.8931790  71.0851180  40.0701550  37.0716280  69.2118150
  39.5398010  36.5807230  68.5841490  40.7389620  37.5000480  68.6776080
  40.5573850  34.0378650  69.2915440  40.4630720  33.4199400  68.5666310
  39.9771240  34.7644940  69.0645350  42.8327510  35.7643750  69.5868930
  43.4227200  35.4559600  70.2746750  42.0147750  35.2923500  69.7428830
  40.4353680  44.6894040  59.2835240  40.1349220  44.5659010  60.1839150
  40.3291170  43.8302630  58.8750970  36.7498330  37.0337510  69.1665540
  35.8554380  37.0004270  69.5059250  37.2895880  37.2324300  69.9316790
  37.2538040  31.3085840  63.5148760  37.9014230  30.7583220  63.0743920
  37.6739880  31.5628990  64.3364570  37.0070040  31.4641510  66.2574080
  36.6584860  31.9205330  67.0232260  36.6757740  30.5698640  66.3396510
  42.3140440  46.1920700  66.0236990  42.0731800  46.4595260  65.1367510
  43.2543080  46.3626430  66.0787850  44.5194860  32.6553390  69.7793500
  44.4583750  33.2475220  70.5288910  45.4595240  32.5479350  69.6343760
  37.6790680  30.9917710  69.5324850  38.2273670  30.8105760  68.7690960
  37.7445990  30.2011820  70.0681160  41.6879770  47.1626740  63.2782500
  42.2044790  46.5514100  62.7530760  42.3377150  47.6655520  63.7693510
  37.9727370  46.9589360  57.1479990  37.4474990  47.3397390  56.4441950
  37.8971950  47.5840130  57.8689700  41.6811240  31.6396080  71.2361560
  41.3995510  32.1429680  70.4722380  42.0630940  30.8417830  70.8703690
  39.7335130  45.0236470  56.0275570  39.1044010  45.4921570  56.5761400
  39.8482960  44.1785690  56.4621760  46.4336980  42.4278590  21.0777580
  45.8154250  42.8928040  20.5140300  46.9460230  43.1206070  21.4947090
  35.8020180  43.1135120  18.4517210  35.4248160  43.6022220  17.7202110
  36.0593250  43.7860400  19.0823740  45.7858950  35.8517340  17.6430000
  44.8462620  36.0131300  17.7282460  46.1042210  36.5703020  17.0965990
  49.8287160  41.1420640  21.1498090  49.2099580  40.8040190  20.5024390
  49.8111610  40.4980400  21.8577280  48.0051860  40.3807450  18.1570840
  48.4445140  39.5429880  18.0108660  48.7180280  41.0136850  18.2434980
  51.5869000  31.6350260  16.4711880  51.2741660  31.7277090  17.3710950
  52.3481470  32.2131290  16.4209310  38.1051140  39.0010060  20.9289220
  37.9848740  39.7272150  20.3170490  37.7952030  38.2312970  20.4517130
  48.7817420  48.3072640  19.4815090  48.6218560  48.0175580  20.3796920
  48.6164130  47.5312770  18.9460320  48.4843550  45.8160200  18.0413090
  47.7908710  45.8137490  17.3815370  49.2266410  45.3919520  17.6107260
  43.6873620  31.9655830  19.1918720  43.0627800  31.9615700  19.9172030
  43.6003740  31.0986790  18.7954690  47.5926780  37.4742070  20.6384790
  46.9935670  38.1977870  20.4548410  48.1406390  37.4118850  19.8561240
  35.4226050  36.6426530  16.1020990  35.3400720  37.5857290  16.2435980
  35.0709110  36.5001440  15.2233340  43.2844330  36.3777640  18.1598100
  43.4057150  36.3364120  19.1083920  42.8992840  37.2401790  18.0044830
  42.2965830  38.6878780  17.5581400  41.7282730  38.2397030  16.9317310
  43.0054830  39.0471560  17.0246550  46.0611230  33.0740290  19.7663590
  45.2475840  32.5753460  19.6908900  45.8673180  33.9138540  19.3499940
  48.7759620  37.4459940  18.0625750  49.6639240  37.7577170  17.8877090
  48.7464710  36.5732190  17.6706330  51.0473890  38.7571780  17.5305610
  50.9637610  39.1886000  16.6802050  51.7668080  39.2170130  17.9632430
  52.0761140  45.6114040  20.2587740  51.4337300  44.9569660  20.5331460
  51.6891800  46.0169130  19.4828410  35.8803300  39.3169980  17.0046920
  36.7498150  39.5994780  17.2882840  35.3893620  40.1305850  16.8895730
  50.4658520  44.5030500  16.7964090  50.2396100  43.7860940  17.3888730
  50.0754720  44.2542940  15.9585840  36.2474550  48.5297360  17.5708550
  36.6072190  49.1286700  16.9165820  36.1066890  49.0757250  18.3443580
  50.0474770  42.4202440  18.4578250  49.7596470  42.8815130  19.2456130
  50.8426940  41.9600210  18.7262470  37.8649810  41.1343450  19.1328980
  37.2577760  41.8742350  19.1424280  38.3399160  41.2242810  18.3067180
  50.8044630  34.2551210  19.6173430  50.1757790  34.3596880  18.9031660
  50.3096550  34.4747990  20.4067310  45.2502770  45.9756800  17.0507410
  45.3514750  45.7720790  16.1209390  44.3504510  45.7215080  17.2555190
  49.8973460  39.4135000  23.3213590  48.9563600  39.4285230  23.4961280
  50.2117530  38.6270960  23.7673890  39.8755100  41.0954600  16.8817550
  40.6418370  40.9835960  17.4442980  39.9529790  40.3992570  16.2294320
  38.5701860  38.5279670  17.5650440  38.6505450  37.5807180  17.6767840
  39.4621610  38.8586550  17.6711100  42.4818880  47.8505370  16.4910550
  43.2747490  48.1394200  16.0392340  41.9623230  47.4197540  15.8123030
  51.5349050  47.0775500  17.9147290  51.2490560  46.6640640  17.1001470
  51.3368600  48.0063210  17.7947810  42.9996280  43.0708780  16.3552900
  42.8946920  42.4561130  17.0814280  42.8320500  42.5474670  15.5715910
  46.2399010  42.1328810  16.9594890  45.6909110  42.5798110  17.6037630
  46.8618270  41.6278060  17.4832560  41.9074130  41.0919730  18.8560190
  42.3290550  40.9259600  19.6991580  42.0324970  40.2819960  18.3615330
  44.4201770  40.1157340  16.1037290  44.9407430  39.4006360  15.7378440
  45.0670170  40.7543210  16.4037800  48.2821340  31.9761190  18.3305230
  48.5623630  31.1329090  18.6864650  47.5087070  32.2084300  18.8443980
  44.9849800  48.1968950  18.3939030  45.8800590  48.5353920  18.4157790
  45.0167430  47.4748360  17.7663310  38.6245960  43.5696000  16.6226030
  39.0620830  44.1125670  17.2783610  39.1093690  42.7442950  16.6322370
  53.2045600  44.4690440  16.4374940  52.3738560  44.5367090  16.9082170
  53.3817430  45.3594560  16.1341800  52.6602060  41.2137920  18.9409140
  53.4220970  41.7834570  19.0468830  52.6756430  40.6465120  19.7117450
  52.7121230  41.5072290  16.0981660  52.9870070  42.4151170  15.9700880
  52.5231970  41.4434820  17.0343650  49.1096840  34.5317140  17.3935290
  49.5281720  34.3448120  16.5531950  48.8032900  33.6796190  17.7038220
  52.6086570  39.4441280  21.0911090  52.2330170  38.6769210  20.6592380
  51.8789690  39.8263980  21.5786020  51.8837530  37.6698770  24.3918330
  52.4075010  37.1761420  23.7608500  52.4696950  37.8049130  25.1365900
  51.3737500  36.9272120  20.3310740  51.8696620  36.6942990  21.1159620
  51.1753570  36.0883960  19.9148380  53.6914930  33.3940990  16.1054560
  54.6164240  33.2622170  15.8972850  53.6690720  33.4733810  17.0591010
  53.7653420  34.1651650  18.7311270  52.9704920  34.0996770  19.2604180
  53.9696700  35.1002290  18.7196620  51.1766080  31.2776190  19.1600390
  51.3716710  32.1759640  19.4267820  50.3895950  31.0463270  19.6533340
  37.9727370  46.9589360  19.5993010  37.4474990  47.3397390  18.8954970
  37.8971950  47.5840130  20.3202720  52.7292690  48.5176900  20.9206950
  52.9044880  47.8314640  20.2767870  52.0314260  49.0423950  20.5283620
  40.5720340  48.9071740  18.4742260  41.3039160  48.6231020  17.9266150
  40.8314010  48.6685020  19.3641640  39.7335130  45.0236470  18.4788590
  39.1044010  45.4921570  19.0274420  39.8482960  44.1785690  18.9134780
  47.1884850  39.0742130   4.6289790  47.1078900  38.1596740   4.3581500
  46.7749270  39.5709200   3.9229500  45.3202890  40.8521150   6.5099060
  44.5444990  40.3721590   6.7997630  45.9715820  40.1726800   6.3355220
  39.3368720  41.1640960   7.3874820  38.5053600  40.9089670   7.7871330
  39.9449700  41.2351730   8.1232740  49.3410320  45.2581340   5.2898190
  48.8791850  44.4868580   5.6185360  50.1535870  45.2847410   5.7950640
  39.3169980  45.1981050   7.5832840  39.6198020  44.3078790   7.4043060
  40.0613570  45.7551270   7.3555090  35.7093680  38.7248500   7.0556910
  36.2809790  37.9570700   7.0560550  35.7095220  39.0237260   6.1463520
  45.5673630  47.5439350   4.9102180  44.9485070  47.9996850   4.3396620
  46.4225410  47.6990810   4.5091880  44.7611880  43.5278340   6.5169220
  44.6920160  42.5868280   6.3558350  45.5231740  43.6179750   7.0891790
  36.9518550  34.1332860   8.8425840  36.7721390  33.2358610   9.1228600
  36.5498630  34.6804730   9.5172790  45.7917050  36.3348720   6.7438150
  46.1681870  35.4620600   6.6311820  45.6936560  36.6707420   5.8528590
  39.9222060  34.7074350   2.2055590  40.0288810  35.6078080   2.5124350
  39.0114420  34.6592320   1.9150240  49.5741170  33.8299160   3.6766490
  50.3950790  33.3395730   3.7191970  49.6075250  34.4196820   4.4298330
  37.5705220  36.6293360   7.4508180  38.2515330  36.8931730   8.0695580
  37.2553270  35.7894230   7.7846190  41.7629790  37.6760720   6.5380770
  42.2708010  38.1741690   7.1785790  42.2943030  36.8995920   6.3620130
  53.8640720  35.8465910  10.2410120  53.1592890  36.2347620   9.7225230
  54.1298640  36.5416200  10.8431050  40.0465890  32.3159280  10.8044190
  40.0484330  32.8331670   9.9990090  39.2170200  31.8389460  10.7814120
  46.4336980  42.4278590   2.3034090  45.8154250  42.8928040   1.7396810
  46.9460230  43.1206070   2.7203600  41.2968740  41.9554460   8.9817690
  40.9638120  42.5823380   9.6238760  41.4735420  42.4816340   8.2019360
  49.8102650  35.7699540   6.4494030  49.1058220  36.0584430   7.0297140
  50.1714810  36.5799650   6.0893590  39.7281220  34.0269240   8.8114640
  40.0698030  34.8711290   8.5168510  38.7897030  34.1752980   8.9279980
  40.5087840  43.9235260  10.7966870  41.1261840  44.5986340  10.5151320
  39.6480960  44.3323240  10.7054370  51.4265430  45.3874670   8.7121510
  50.7428950  46.0573780   8.7038180  51.9659720  45.5855320   7.9466370
  52.8789570  35.2154330   6.8403240  51.9314480  35.2493310   6.9718670
  53.2039560  36.0293280   7.2252600  43.4109110  31.5151510   5.1359230
  43.7184090  30.9598400   4.4194730  42.4809810  31.6495970   4.9532220
  48.9624170  47.2318800   7.4266690  48.9751330  46.8281090   6.5588950
  48.4099390  48.0066090   7.3228120  50.2569590  43.9535020   2.5156860
  50.1465920  43.0109350   2.6406280  50.2537840  44.3150660   3.4019620
  48.3609610  42.1348640   8.7549300  48.7778400  41.9208750   7.9202760
  49.0849430  42.3921430   9.3257920  45.7989870  39.5800340   1.8719350
  44.8719150  39.5137720   2.1007820  45.9514690  40.5180470   1.7574590
  52.3071710  40.5335860   8.8465540  51.4790340  40.6028950   8.3715670
  52.9022190  41.1190170   8.3781370  49.8287160  41.1420640   2.3754600
  49.2099580  40.8040190   1.7280900  49.8111610  40.4980400   3.0833790
  49.2713720  37.3205180   9.7920410  48.8584900  38.1458890  10.0460400
  48.5389670  36.7350220   9.5996770  41.4046510  40.1065080   4.6539080
  41.0003510  39.3942330   4.1584980  41.4909630  39.7618320   5.5427120
  41.8728210  43.7932640   6.8178290  41.5756500  43.1878110   6.1386070
  42.8228030  43.8309950   6.7067650  40.1175130  36.8808290   8.4338120
  40.6689720  36.9903630   7.6591370  40.6318640  37.2545890   9.1493350
  49.9613820  47.3664510  10.4801390  49.4844380  48.1736700  10.2874000
  49.2775610  46.7142840  10.6327600  40.9646640  43.5314330  13.4686090
  40.0675170  43.7554300  13.7159490  40.9899510  43.6549270  12.5197490
  39.7917860  40.4027650  12.0443460  39.6525630  41.2750450  12.4130860
  38.9099220  40.0600460  11.8991400  46.1147240  45.3203520   3.3508590
  46.5543150  46.0627850   2.9363980  46.0534130  45.5630090   4.2747550
  41.5898210  46.3449350  14.2528610  41.5613640  46.7492300  13.3857040
  41.4263180  45.4159710  14.0900210  38.1051140  39.0010060   2.1545730
  37.9848740  39.7272150   1.5427000  37.7952030  38.2312970   1.6773640
  53.5413030  47.1276450  15.5492780  54.0172750  47.6059340  16.2281860
  54.1620190  47.0593940  14.8238280  35.7436510  42.1725200   7.9614370
  35.8216930  42.3073970   7.0170090  36.3578190  41.4641090   8.1542490
  36.9884140  43.8725390   4.3720550  36.5812220  44.0139980   3.5174150
  37.8797150  43.5885550   4.1691760  52.9446280  44.3189300  12.7092790
  53.0709340  44.0801180  11.7909970  52.9867660  43.4873840  13.1814870
  46.8063020  48.0217300  11.2787600  47.3207690  47.9325310  12.0810030
  45.9632100  48.3677000  11.5715510  41.2605800  48.0871170   2.4843220
  41.0848280  47.1706710   2.2711020  40.4061540  48.4458460   2.7241020
  48.0493480  47.4422910   3.3418090  48.5050430  46.6612290   3.6556710
  48.3886000  48.1529730   3.8859270  52.7970290  36.3721760  13.6742530
  52.1814560  36.8801430  13.1457990  52.4766710  35.4720090  13.6168470
  35.7996030  43.2139370  10.5008830  35.9627070  42.7444730   9.6828200
  36.2648480  42.7062930  11.1657670  40.5714800  32.3445130   5.5369400
  40.1282950  33.1254670   5.2053920  41.1299790  32.6675020   6.2440340
  44.8584610  35.2113650  11.1404720  44.3963980  35.4196670  11.9524660
  44.4562720  34.3973000  10.8375390  49.8589120  36.4322600  12.2701380
  49.0082710  36.1328350  12.5910450  49.6990910  36.6764610  11.3585200
  46.9538830  37.9324350  14.3700170  47.2792240  37.0988100  14.0302400
  47.7419160  38.4552870  14.5178500  42.6090700  32.8892460   7.3959000
  42.9063030  33.7955290   7.3151020  43.1576260  32.4011240   6.7818570
  40.3629020  37.4678700   3.2650650  40.1369940  37.2515870   4.1697270
  39.5821550  37.9007160   2.9196620  42.8028230  38.3664280  13.9310920
  42.7071830  37.4259010  13.7811320  43.6460210  38.5879350  13.5358990
  46.1991650  36.1105610   3.8944580  46.5921220  36.4277810   3.0813270
  46.5608500  35.2317490   4.0089100  44.5083820  34.8612920  15.1541440
  43.8182140  34.6685120  15.7887530  45.2516120  35.1447560  15.6865740
  35.2355820  32.7006410   6.1174780  34.9468870  33.2709270   6.8299760
  35.9801580  32.2210860   6.4806010  46.7846790  38.7011360   7.9895360
  46.0527910  39.2098170   8.3385460  46.3871130  37.8841340   7.6884140
  43.2224180  35.3765560   6.3947850  43.2260240  34.9355510   5.5452390
  44.1175300  35.6982890   6.5019670  39.0726560  35.2592050   5.3542060
  38.7326610  35.7367280   6.1109110  38.3103880  34.8057170   4.9943160
  47.2472700  34.1545040   7.4018300  47.2645440  34.6053690   8.2460150
  46.9988280  33.2550680   7.6151740  50.6743450  31.5677220  13.2404680
  50.9989220  30.8366880  13.7662660  50.7099960  31.2490860  12.3385670
  37.3735010  42.5890800  12.6604640  36.9889800  41.9484470  13.2587600
  37.6847200  43.2926920  13.2299370  43.5232150  39.4367340   8.1413260
  43.8902280  38.9625910   8.8874600  43.3337210  40.3108910   8.4821600
  36.3872640  34.1811030   4.2706730  36.1019560  33.8166700   5.1085350
  36.3251500  33.4491490   3.6569870  41.3131520  38.4775980  10.4597470
  41.0088590  39.3567960  10.6847830  42.2677980  38.5375770  10.4954910
  50.6001290  41.6802330   6.8490710  51.3200410  42.1757620   6.4586820
  50.3983110  41.0020220   6.2044580  45.9820090  41.7511390  12.7359710
  45.9157400  40.8307060  12.4817300  45.3525230  41.8486830  13.4504350
  39.8850710  42.3517350   4.6943130  40.4029380  41.5485610   4.6400020
  39.4334730  42.2896490   5.5359960  37.3695250  39.3178720  11.6068830
  37.0110190  39.9832570  12.1942170  37.0749810  38.4862270  11.9781450
  40.5708370  39.7762960  14.4908380  40.2708510  39.9220140  13.5936200
  41.3419610  39.2168250  14.3981770  45.9136820  44.5731960  12.4863510
  45.9281360  43.6412920  12.2682420  45.2061920  44.6591720  13.1253280
  52.1248030  41.2139300  11.8332090  51.3996220  41.8068080  11.6361480
  52.6523490  41.2062840  11.0345460  47.6547620  42.9399470   5.3315940
  48.0071440  42.3427600   4.6717310  46.7709950  42.6143700   5.5024190
  43.7410900  43.6997160   2.7386350  44.4282030  44.2466370   3.1193940
  42.9543320  44.2437890   2.7735960  43.0438110  40.7043190   2.3511710
  43.5000890  41.5148440   2.5771900  42.6926320  40.3866330   3.1830200
  45.3470720  46.2149530   9.5804010  45.9912940  46.4208910  10.2577430
  45.7100160  45.4537930   9.1274860  38.9449890  31.0480840   2.8234230
  38.8164520  31.0398740   3.7719150  38.1211910  31.3863930   2.4725240
  46.6202800  44.2181880   8.2981460  47.2625030  43.5175040   8.4113630
  47.1452150  44.9980320   8.1178350  48.3940420  45.0176780  11.5017520
  48.7296660  45.6043470  12.1795440  47.4740760  44.8869490  11.7315310
  36.2316410  46.7952220  13.2707460  36.3407530  45.8546960  13.1302850
  35.5796970  47.0606970  12.6221190  44.2229000  45.0668110  14.6705580
  43.9025870  44.3477350  15.2151270  43.5487360  45.7423180  14.7441640
  47.4382600  35.2994270  10.0342380  47.8063420  34.4789480  10.3621950
  46.5780800  35.3596160  10.4498030  42.7728660  36.5337160   2.2587820
  42.0644810  37.0023500   2.7001430  43.0573140  35.8759170   2.8933010
  44.3984590  37.9533860  10.2580350  44.8969840  38.4279680  10.9232200
  44.5407540  37.0297380  10.4650380  46.8044090  33.2587820   3.6983610
  46.6811870  33.2773950   2.7493120  47.7528650  33.3066760   3.8182010
  43.8920880  48.4943120   2.9711590  44.1462380  48.4564510   2.0490960
  42.9433360  48.3676450   2.9639840  51.6051450  34.1701820  11.1008740
  51.1025050  34.9107220  11.4402550  52.4208110  34.5585820  10.7845530
  49.8973460  39.4135000   4.5470100  48.9563600  39.4285230   4.7217790
  50.2117530  38.6270960   4.9930400  51.8999040  46.5843850   6.2224360
  52.0246460  47.4075020   6.6948170  52.7664600  46.3734580   5.8748510
  39.3716570  48.6775060   5.8941490  40.1079050  48.1290520   6.1650060
  39.7557490  49.5431070   5.7547480  36.2562050  44.7448630   1.7683000
  35.3301830  44.9869770   1.7588410  36.7218480  45.5722890   1.6467750
  38.3774850  47.8621130  15.0827070  39.1787580  48.1833180  15.4962470
  37.8626670  47.5016710  15.8046980  47.2139480  43.9701000  15.0302480
  46.6077640  43.9932600  14.2898230  46.9093590  43.2384040  15.5669730
  48.6439850  47.6981290  13.6411890  49.5961600  47.6139310  13.5912130
  48.4968070  48.3623000  14.3145680  36.0972660  40.3494590  14.0263120
  36.6011680  39.7701870  14.5979350  35.3580080  40.6334820  14.5639490
  43.1510600  41.7565580  13.5598640  42.3856270  42.3250580  13.4753310
  43.3326560  41.4641790  12.6666870  50.2933950  43.4870910  14.1173660
  51.0343420  43.8246670  13.6141120  49.5306630  43.6562970  13.5643430
  48.9679610  41.5385740  12.6528870  49.3820630  41.6930820  13.5019290
  48.0330610  41.6640960  12.8154650  49.4401780  38.8781900  14.6568020
  50.0222550  38.1234220  14.5688500  49.6163550  39.4089340  13.8799500
  43.3235290  32.5951890  10.0012360  42.8752590  32.6176150   9.1557910
  42.6900490  32.1970910  10.5982660  43.7294840  41.4906220  10.6224800
  44.1482950  42.3338950  10.4501040  42.8103470  41.6278260  10.3931580
  46.0658740  39.2222400  12.0062640  46.1854950  38.6263540  12.7457480
  46.9252740  39.2592090  11.5863940  48.4046640  39.7759590  10.5825150
  47.8781860  40.3002210   9.9790290  48.7477980  40.4086980  11.2134880
  41.5802260  47.7959230  11.7382530  41.0423350  48.5205290  11.4191230
  41.8336220  47.3189570  10.9479870  47.6520940  35.3809560  13.4971480
  46.9636460  34.7191100  13.4321470  48.3726960  34.9347830  13.9419940
  44.4364470  49.0310440  11.9969180  44.3623170  49.9345580  12.3041550
  43.5343310  48.7122340  11.9691250  35.8391760  46.3585030   5.3002800
  36.1694770  45.4906090   5.0681440  36.2682760  46.5643550   6.1307760
  40.4353680  44.6894040   2.9604770  40.1349220  44.5659010   3.8608680
  40.3291170  43.8302630   2.5520500  36.3281970  47.2255620   8.0384430
  35.8912960  47.4056420   8.8708580  36.8959650  47.9830240   7.8966150
  51.9644150  46.7272620  12.3261740  51.3646140  46.7865180  11.5825660
  52.0938050  45.7877600  12.4558590  36.1606400  39.7375850   4.3973310
  35.5055240  39.4687490   3.7533010  36.9984350  39.6280330   3.9475290
  53.6662030  42.0688020   5.0107580  54.0370860  41.2855340   4.6043550
  54.3063960  42.7577120   4.8324880  50.6495790  43.4524600  10.4237900
  49.8355630  43.8821760  10.6863690  51.0569990  44.0643010   9.8106950
  52.6086570  39.4441280   2.3167600  52.2330170  38.6769210   1.8848890
  51.8789690  39.8263980   2.8042530  37.1982330  40.1228420   8.9376650
  37.5655370  40.0355820   9.8172670  36.6293150  39.3594970   8.8383510
  51.9986190  38.5912800  11.9507120  51.7672280  38.3625550  11.0505070
  52.2590740  39.5112350  11.9052010  50.4374260  33.8169230  14.7286820
  51.3144440  33.8252630  15.1120820  50.4495100  33.0800070  14.1179170
  51.8837530  37.6698770   5.6174840  52.4075010  37.1761420   4.9865010
  52.4696950  37.8049130   6.3622410  52.0627250  37.7538640   9.1394390
  51.1129960  37.7202180   9.2539380  52.2440260  38.6638750   8.9044160
  37.2538040  31.3085840   7.1918290  37.9014230  30.7583220   6.7513450
  37.6739880  31.5628990   8.0134100  52.8024660  35.5633070   4.0904930
  52.6923940  35.4089110   5.0287200  53.5632250  35.0354010   3.8480340
  51.1490380  31.5027200  10.5487930  51.7862600  32.1161340  10.9147120
  51.2965270  31.5387860   9.6037160  50.7071840  48.2043200   3.9506170
  51.3030910  47.8827770   3.2740590  50.9649990  47.7315020   4.7419440
  37.0070040  31.4641510   9.9343610  36.6584860  31.9205330  10.7001790
  36.6757740  30.5698640  10.0166040  38.6134410  44.6361110  14.0996800
  38.5704040  44.2654020  14.9811260  38.7445420  45.5738680  14.2398620
  42.3140440  46.1920700   9.7006520  42.0731800  46.4595260   8.8137040
  43.2543080  46.3626430   9.7557380  44.5194860  32.6553390  13.4563030
  44.4583750  33.2475220  14.2058440  45.4595240  32.5479350  13.3113290
  47.1569420  32.3123450  13.0955320  47.7709830  32.6302740  12.4336400
  47.7018980  31.8272040  13.7151180  53.5744600  48.2115080  10.5017160
  53.0802880  48.6083950   9.7844290  52.9657890  47.5864290  10.8954440
  38.4522440  47.5823360  11.2194580  37.8582760  47.4508060  11.9584620
  38.4446280  46.7461500  10.7536680  47.8977460  30.8755590   9.4224610
  47.0237300  31.2090700   9.2197540  47.7888210  30.4028770  10.2476480
  48.8049440  33.0826460  10.8066330  48.4762800  32.2678220  10.4268060
  49.7531740  33.0396270  10.6832020  51.2584050  48.8538500   7.7803900
  50.7987020  49.6054310   7.4061920  50.6296510  48.1344970   7.7218700
  38.0834670  44.9481740  10.1702620  37.3568730  44.3287030  10.1028570
  38.1443820  45.3422350   9.3000700  41.6879770  47.1626740   6.9552030
  42.2044790  46.5514100   6.4300290  42.3377150  47.6655520   7.4463040
  44.4275270  48.0535230   7.7821010  44.7153080  47.7989530   6.9054020
  44.9398490  47.5012590   8.3726580  45.6452280  31.7925430   8.3617520
  44.8624070  32.2670930   8.6414280  45.3515210  30.8880260   8.2530700
  50.1973350  32.4948530   6.4066610  50.6381440  32.4393630   5.5588210
  49.9280940  33.4106540   6.4776790  52.0611920  32.1263770   4.4175430
  52.0000320  31.1824990   4.2706450  52.8403950  32.2343860   4.9628890
  36.3664670  48.2656130   3.3799380  36.1986710  47.6326810   4.0781270
  35.4999180  48.4715530   3.0293570  43.5306500  34.2112180   3.8733550
  42.7181010  33.8369070   3.5329430  44.0348140  33.4557260   4.1754740
  48.0331480  30.8754630   5.1116620  48.6360850  31.4474840   5.5865140
  47.2924470  31.4394070   4.8890520  41.5555680  32.3612100   2.4778600
  40.9258420  31.6599410   2.6448730  41.0160820  33.1216230   2.2611760
  44.4947630  48.9751330  15.1489210  45.4214940  48.7395600  15.1925170
  44.4798060  49.8023330  14.6675240  52.7292690  48.5176900   2.1463460
  52.9044880  47.8314640   1.5024380  52.0314260  49.0423950   1.7540130
  48.2826700  31.0549660  15.4911560  48.1692150  31.3744270  16.3863080
  49.0996440  31.4562170  15.1948840  51.0625190  48.2021190  14.9730250
  51.8550510  47.7070420  14.7656210  51.3558340  48.8811330  15.5805860
  47.1884850  20.2998640  98.5007240  47.1078900  19.3853250  98.2298950
  46.7749270  20.7965710  97.7946950  45.3202890  22.0777660 100.3816510
  44.5444990  21.5978100 100.6715080  45.9715820  21.3983310 100.2072670
  39.3368720  22.3897470 101.2592270  38.5053600  22.1346180 101.6588780
  39.9449700  22.4608240 101.9950190  49.3410320  26.4837850  99.1615640
  48.8791850  25.7125090  99.4902810  50.1535870  26.5103920  99.6668090
  39.3169980  26.4237560 101.4550290  39.6198020  25.5335300 101.2760510
  40.0613570  26.9807780 101.2272540  37.7460670  17.3499360  95.0434660
  36.8577370  17.6915330  94.9414540  38.0301860  17.1499680  94.1515490
  35.7093680  19.9505010 100.9274360  36.2809790  19.1827210 100.9278000
  35.7095220  20.2493770 100.0180970  45.5673630  28.7695860  98.7819630
  44.9485070  29.2253360  98.2114070  46.4225410  28.9247320  98.3809330
  44.7611880  24.7534850 100.3886670  44.6920160  23.8124790 100.2275800
  45.5231740  24.8436260 100.9609240  36.9518550  15.3589370 102.7143290
  36.7721390  14.4615120 102.9946050  36.5498630  15.9061240 103.3890240
  45.7917050  17.5605230 100.6155600  46.1681870  16.6877110 100.5029270
  45.6936560  17.8963930  99.7246040  39.9222060  15.9330860  96.0773040
  40.0288810  16.8334590  96.3841800  39.0114420  15.8848830  95.7867690
  49.5741170  15.0555670  97.5483940  50.3950790  14.5652240  97.5909420
  49.6075250  15.6453330  98.3015780  37.5705220  17.8549870 101.3225630
  38.2515330  18.1188240 101.9413030  37.2553270  17.0150740 101.6563640
  41.7629790  18.9017230 100.4098220  42.2708010  19.3998200 101.0503240
  42.2943030  18.1252430 100.2337580  53.8640720  17.0722420 104.1127570
  53.1592890  17.4604130 103.5942680  54.1298640  17.7672710 104.7148500
  40.0465890  13.5415790 104.6761640  40.0484330  14.0588180 103.8707540
  39.2170200  13.0645970 104.6531570  46.4336980  23.6535100  96.1751540
  45.8154250  24.1184550  95.6114260  46.9460230  24.3462580  96.5921050
  41.2968740  23.1810970 102.8535140  40.9638120  23.8079890 103.4956210
  41.4735420  23.7072850 102.0736810  49.8102650  16.9956050 100.3211480
  49.1058220  17.2840940 100.9014590  50.1714810  17.8056160  99.9611040
  39.7281220  15.2525750 102.6832090  40.0698030  16.0967800 102.3885960
  38.7897030  15.4009490 102.7997430  40.5087840  25.1491770 104.6684320
  41.1261840  25.8242850 104.3868770  39.6480960  25.5579750 104.5771820
  35.8020180  24.3391630  93.5491170  35.4248160  24.8278730  92.8176070
  36.0593250  25.0116910  94.1797700  51.4265430  26.6131180 102.5838960
  50.7428950  27.2830290 102.5755630  51.9659720  26.8111830 101.8183820
  52.8789570  16.4410840 100.7120690  51.9314480  16.4749820 100.8436120
  53.2039560  17.2549790 101.0970050  43.4109110  12.7408020  99.0076680
  43.7184090  12.1854910  98.2912180  42.4809810  12.8752480  98.8249670
  48.9624170  28.4575310 101.2984140  48.9751330  28.0537600 100.4306400
  48.4099390  29.2322600 101.1945570  50.2569590  25.1791530  96.3874310
  50.1465920  24.2365860  96.5123730  50.2537840  25.5407170  97.2737070
  48.3609610  23.3605150 102.6266750  48.7778400  23.1465260 101.7920210
  49.0849430  23.6177940 103.1975370  45.7989870  20.8056850  95.7436800
  44.8719150  20.7394230  95.9725270  45.9514690  21.7436980  95.6292040
  45.7858950  17.0773850  92.7403960  44.8462620  17.2387810  92.8256420
  46.1042210  17.7959530  92.1939950  52.3071710  21.7592370 102.7182990
  51.4790340  21.8285460 102.2433120  52.9022190  22.3446680 102.2498820
  49.8287160  22.3677150  96.2472050  49.2099580  22.0296700  95.5998350
  49.8111610  21.7236910  96.9551240  49.2713720  18.5461690 103.6637860
  48.8584900  19.3715400 103.9177850  48.5389670  17.9606730 103.4714220
  41.4046510  21.3321590  98.5256530  41.0003510  20.6198840  98.0302430
  41.4909630  20.9874830  99.4144570  41.8728210  25.0189150 100.6895740
  41.5756500  24.4134620 100.0103520  42.8228030  25.0566460 100.5785100
  40.1175130  18.1064800 102.3055570  40.6689720  18.2160140 101.5308820
  40.6318640  18.4802400 103.0210800  49.9613820  28.5921020 104.3518840
  49.4844380  29.3993210 104.1591450  49.2775610  27.9399350 104.5045050
  48.0051860  21.6063960  93.2544800  48.4445140  20.7686390  93.1082620
  48.7180280  22.2393360  93.3408940  46.1147240  26.5460030  97.2226040
  46.5543150  27.2884360  96.8081430  46.0534130  26.7886600  98.1465000
  51.5869000  12.8606770  91.5685840  51.2741660  12.9533600  92.4684910
  52.3481470  13.4387800  91.5183270  38.1051140  20.2266570  96.0263180
  37.9848740  20.9528660  95.4144450  37.7952030  19.4569480  95.5491090
  35.7436510  23.3981710 101.8331820  35.8216930  23.5330480 100.8887540
  36.3578190  22.6897600 102.0259940  36.9884140  25.0981900  98.2438000
  36.5812220  25.2396490  97.3891600  37.8797150  24.8142060  98.0409210
  48.7817420  29.5329150  94.5789050  48.6218560  29.2432090  95.4770880
  48.6164130  28.7569280  94.0434280  41.2605800  29.3127680  96.3560670
  41.0848280  28.3963220  96.1428470  40.4061540  29.6714970  96.5958470
  48.4843550  27.0416710  93.1387050  47.7908710  27.0394000  92.4789330
  49.2266410  26.6176030  92.7081220  48.0493480  28.6679420  97.2135540
  48.5050430  27.8868800  97.5274160  48.3886000  29.3786240  97.7576720
  40.5714800  13.5701640  99.4086850  40.1282950  14.3511180  99.0771370
  41.1299790  13.8931530 100.1157790  43.6873620  13.1912340  94.2892680
  43.0627800  13.1872210  95.0145990  43.6003740  12.3243300  93.8928650
  42.6090700  14.1148970 101.2676450  42.9063030  15.0211800 101.1868470
  43.1576260  13.6267750 100.6536020  40.3629020  18.6935210  97.1368100
  40.1369940  18.4772380  98.0414720  39.5821550  19.1263670  96.7914070
  47.5926780  18.6998580  95.7358750  46.9935670  19.4234380  95.5522370
  48.1406390  18.6375360  94.9535200  46.1991650  17.3362120  97.7662030
  46.5921220  17.6534320  96.9530720  46.5608500  16.4574000  97.8806550
  35.2355820  13.9262920  99.9892230  34.9468870  14.4965780 100.7017210
  35.9801580  13.4467370 100.3523460  35.4226050  17.8683040  91.1994950
  35.3400720  18.8113800  91.3409940  35.0709110  17.7257950  90.3207300
  46.7846790  19.9267870 101.8612810  46.0527910  20.4354680 102.2102910
  46.3871130  19.1097850 101.5601590  43.2224180  16.6022070 100.2665300
  43.2260240  16.1612020  99.4169840  44.1175300  16.9239400 100.3737120
  39.0726560  16.4848560  99.2259510  38.7326610  16.9623790  99.9826560
  38.3103880  16.0313680  98.8660610  43.2844330  17.6034150  93.2572060
  43.4057150  17.5620630  94.2057880  42.8992840  18.4658300  93.1018790
  47.2472700  15.3801550 101.2735750  47.2645440  15.8310200 102.1177600
  46.9988280  14.4807190 101.4869190  42.2965830  19.9135290  92.6555360
  41.7282730  19.4653540  92.0291270  43.0054830  20.2728070  92.1220510
  43.5232150  20.6623850 102.0130710  43.8902280  20.1882420 102.7592050
  43.3337210  21.5365420 102.3539050  36.3872640  15.4067540  98.1424180
  36.1019560  15.0423210  98.9802800  36.3251500  14.6748000  97.5287320
  41.3131520  19.7032490 104.3314920  41.0088590  20.5824470 104.5565280
  42.2677980  19.7632280 104.3672360  39.8413310  23.9093480  94.9281770
  39.0675570  23.3691100  94.7680490  40.5707940  23.3900090  94.5899530
  50.6001290  22.9058840 100.7208160  51.3200410  23.4014130 100.3304270
  50.3983110  22.2276730 100.0762030  46.0611230  14.2996800  94.8637550
  45.2475840  13.8009970  94.7882860  45.8673180  15.1395050  94.4473900
  48.7759620  18.6716450  93.1599710  49.6639240  18.9833680  92.9851050
  48.7464710  17.7988700  92.7680290  39.8850710  23.5773860  98.5660580
  40.4029380  22.7742120  98.5117470  39.4334730  23.5153000  99.4077410
  44.7720210  24.8440140  93.8387880  45.1135910  25.5882370  93.3431200
  43.9432920  25.1571260  94.2012710  51.0473890  19.9828290  92.6279570
  50.9637610  20.4142510  91.7776010  51.7668080  20.4426640  93.0606390
  52.0761140  26.8370550  95.3561700  51.4337300  26.1826170  95.6305420
  51.6891800  27.2425640  94.5802370  47.6547620  24.1655980  99.2033390
  48.0071440  23.5684110  98.5434760  46.7709950  23.8400210  99.3741640
  43.7410900  24.9253670  96.6103800  44.4282030  25.4722880  96.9911390
  42.9543320  25.4694400  96.6453410  35.8803300  20.5426490  92.1020880
  36.7498150  20.8251290  92.3856800  35.3893620  21.3562360  91.9869690
  43.0438110  21.9299700  96.2229160  43.5000890  22.7404950  96.4489350
  42.6926320  21.6122840  97.0547650  45.3470720  27.4406040 103.4521460
  45.9912940  27.6465420 104.1294880  45.7100160  26.6794440 102.9992310
  38.9449890  12.2737350  96.6951680  38.8164520  12.2655250  97.6436600
  38.1211910  12.6120440  96.3442690  46.6202800  25.4438390 102.1698910
  47.2625030  24.7431550 102.2831080  47.1452150  26.2236830 101.9895800
  50.4658520  25.7287010  91.8938050  50.2396100  25.0117450  92.4862690
  50.0754720  25.4799450  91.0559800  36.2474550  29.7553870  92.6682510
  36.6072190  30.3543210  92.0139780  36.1066890  30.3013760  93.4417540
  50.0474770  23.6458950  93.5552210  49.7596470  24.1071640  94.3430090
  50.8426940  23.1856720  93.8236430  42.2643170  27.1385070  93.4856180
  42.2553270  27.8714760  92.8700690  41.3441530  26.8916650  93.5783140
  37.8649810  22.3599960  94.2302940  37.2577760  23.0998860  94.2398240
  38.3399160  22.4499320  93.4041140  47.4382600  16.5250780 103.9059830
  47.8063420  15.7045990 104.2339400  46.5780800  16.5852670 104.3215480
  50.8044630  15.4807720  94.7147390  50.1757790  15.5853390  94.0005620
  50.3096550  15.7004500  95.5041270  45.2502770  27.2013310  92.1481370
  45.3514750  26.9977300  91.2183350  44.3504510  26.9471590  92.3529150
  42.7728660  17.7593670  96.1305270  42.0644810  18.2280010  96.5718880
  43.0573140  17.1015680  96.7650460  44.3984590  19.1790370 104.1297800
  44.8969840  19.6536190 104.7949650  44.5407540  18.2553890 104.3367830
  46.8044090  14.4844330  97.5701060  46.6811870  14.5030460  96.6210570
  47.7528650  14.5323270  97.6899460  43.8920880  29.7199630  96.8429040
  44.1462380  29.6821020  95.9208410  42.9433360  29.5932960  96.8357290
  40.9763680  16.0678750  93.5055980  41.8254210  16.5048900  93.4396170
  40.6094950  16.3799010  94.3328040  49.8973460  20.6391510  98.4187550
  48.9563600  20.6541740  98.5935240  50.2117530  19.8527470  98.8647850
  39.8755100  22.3211110  91.9791510  40.6418370  22.2092470  92.5416940
  39.9529790  21.6249080  91.3268280  38.5701860  19.7536180  92.6624400
  38.6505450  18.8063690  92.7741800  39.4621610  20.0843060  92.7685060
  51.8999040  27.8100360 100.0941810  52.0246460  28.6331530 100.5665620
  52.7664600  27.5991090  99.7465960  39.3716570  29.9031570  99.7658940
  40.1079050  29.3547030 100.0367510  39.7557490  30.7687580  99.6264930
  36.2562050  25.9705140  95.6400450  35.3301830  26.2126280  95.6305860
  36.7218480  26.7979400  95.5185200  42.4818880  29.0761880  91.5884510
  43.2747490  29.3650710  91.1366300  41.9623230  28.6454050  90.9096990
  51.5349050  28.3032010  93.0121250  51.2490560  27.8897150  92.1975430
  51.3368600  29.2319720  92.8921770  42.9996280  24.2965290  91.4526860
  42.8946920  23.6817640  92.1788240  42.8320500  23.7731180  90.6689870
  46.2399010  23.3585320  92.0568850  45.6909110  23.8054620  92.7011590
  46.8618270  22.8534570  92.5806520  41.9074130  22.3176240  93.9534150
  42.3290550  22.1516110  94.7965540  42.0324970  21.5076470  93.4589290
  44.4201770  21.3413850  91.2011250  44.9407430  20.6262870  90.8352400
  45.0670170  21.9799720  91.5011760  43.3235290  13.8208400 103.8729810
  42.8752590  13.8432660 103.0275360  42.6900490  13.4227420 104.4700110
  43.7294840  22.7162730 104.4942250  44.1482950  23.5595460 104.3218490
  42.8103470  22.8534770 104.2649030  40.8033030  18.3909470  90.8992310
  40.6022090  17.5276830  91.2605650  40.6325080  18.3042830  89.9613910
  48.2821340  13.2017700  93.4279190  48.5623630  12.3585600  93.7838610
  47.5087070  13.4340810  93.9417940  39.6015830  15.4910090  90.8870190
  39.9041730  15.4977520  89.9789340  40.3410420  15.1407950  91.3837850
  42.8200760  14.4344710  91.8726390  42.4722760  13.7568700  91.2928840
  43.0213530  13.9734220  92.6869780  44.9849800  29.4225460  93.4912990
  45.8800590  29.7610430  93.5131750  45.0167430  28.7004870  92.8637270
  38.6245960  24.7952510  91.7199990  39.0620830  25.3382180  92.3757570
  39.1093690  23.9699460  91.7296330  35.8391760  27.5841540  99.1720250
  36.1694770  26.7162600  98.9398890  36.2682760  27.7900060 100.0025210
  40.4353680  25.9150550  96.8322220  40.1349220  25.7915520  97.7326130
  40.3291170  25.0559140  96.4237950  36.3281970  28.4512130 101.9101880
  35.8912960  28.6312930 102.7426030  36.8959650  29.2086750 101.7683600
  53.2045600  25.6946950  91.5348900  52.3738560  25.7623600  92.0056130
  53.3817430  26.5851070  91.2315760  52.6602060  22.4394430  94.0383100
  53.4220970  23.0091080  94.1442790  52.6756430  21.8721630  94.8091410
  36.1606400  20.9632360  98.2690760  35.5055240  20.6944000  97.6250460
  36.9984350  20.8536840  97.8192740  53.6662030  23.2944530  98.8825030
  54.0370860  22.5111850  98.4761000  54.3063960  23.9833630  98.7042330
  50.6495790  24.6781110 104.2955350  49.8355630  25.1078270 104.5581140
  51.0569990  25.2899520 103.6824400  52.7121230  22.7328800  91.1955620
  52.9870070  23.6407680  91.0674840  52.5231970  22.6691330  92.1317610
  49.1096840  15.7573650  92.4909250  49.5281720  15.5704630  91.6505910
  48.8032900  14.9052700  92.8012180  52.6086570  20.6697790  96.1885050
  52.2330170  19.9025720  95.7566340  51.8789690  21.0520490  96.6759980
  37.1982330  21.3484930 102.8094100  37.5655370  21.2612330 103.6890120
  36.6293150  20.5851480 102.7100960  35.3744480  18.1731290  94.2116090
  34.4708560  18.4361490  94.0367750  35.8585100  18.4442460  93.4316050
  51.8837530  18.8955280  99.4892290  52.4075010  18.4017930  98.8582460
  52.4696950  19.0305640 100.2339860  52.0627250  18.9795150 103.0111840
  51.1129960  18.9458690 103.1256830  52.2440260  19.8895260 102.7761610
  37.9171690  17.2296830  92.1210470  38.6263390  16.8080050  91.6357750
  37.2011630  17.2972060  91.4893820  37.5645850  13.2836160  91.1613120
  38.2873980  13.8245100  91.4794340  37.8370370  13.0099580  90.2854660
  51.3737500  18.1528630  95.4284700  51.8696620  17.9199500  96.2133580
  51.1753570  17.3140470  95.0122340  37.2538040  12.5342350 101.0635740
  37.9014230  11.9839730 100.6230900  37.6739880  12.7885500 101.8851550
  52.8024660  16.7889580  97.9622380  52.6923940  16.6345620  98.9004650
  53.5632250  16.2610520  97.7197790  51.1490380  12.7283710 104.4205380
  51.7862600  13.3417850 104.7864570  51.2965270  12.7644370 103.4754610
  53.6914930  14.6197500  91.2028520  54.6164240  14.4878680  90.9946810
  53.6690720  14.6990320  92.1564970  53.7653420  15.3908160  93.8285230
  52.9704920  15.3253280  94.3578140  53.9696700  16.3258800  93.8170580
  50.7071840  29.4299710  97.8223620  51.3030910  29.1084280  97.1458040
  50.9649990  28.9571530  98.6136890  37.0070040  12.6898020 103.8061060
  36.6584860  13.1461840 104.5719240  36.6757740  11.7955150 103.8883490
  42.3140440  27.4177210 103.5723970  42.0731800  27.6851770 102.6854490
  43.2543080  27.5882940 103.6274830  53.5744600  29.4371590 104.3734610
  53.0802880  29.8340460 103.6561740  52.9657890  28.8120800 104.7671890
  47.8977460  12.1012100 103.2942060  47.0237300  12.4347210 103.0914990
  47.7888210  11.6285280 104.1193930  48.8049440  14.3082970 104.6783780
  48.4762800  13.4934730 104.2985510  49.7531740  14.2652780 104.5549470
  51.2584050  30.0795010 101.6521350  50.7987020  30.8310820 101.2779370
  50.6296510  29.3601480 101.5936150  38.0834670  26.1738250 104.0420070
  37.3568730  25.5543540 103.9746020  38.1443820  26.5678860 103.1718150
  41.6879770  28.3883250 100.8269480  42.2044790  27.7770610 100.3017740
  42.3377150  28.8912030 101.3180490  44.4275270  29.2791740 101.6538460
  44.7153080  29.0246040 100.7771470  44.9398490  28.7269100 102.2444030
  45.6452280  13.0181940 102.2334970  44.8624070  13.4927440 102.5131730
  45.3515210  12.1136770 102.1248150  50.1973350  13.7205040 100.2784060
  50.6381440  13.6650140  99.4305660  49.9280940  14.6363050 100.3494240
  52.0611920  13.3520280  98.2892880  52.0000320  12.4081500  98.1423900
  52.8403950  13.4600370  98.8346340  36.3664670  29.4912640  97.2516830
  36.1986710  28.8583320  97.9498720  35.4999180  29.6972040  96.9011020
  36.9892690  13.3229420  94.7548690  37.7472050  13.4358300  94.1812720
  36.5269860  14.1598620  94.7092120  43.5306500  15.4368690  97.7451000
  42.7181010  15.0625580  97.4046880  44.0348140  14.6813770  98.0472190
  48.0331480  12.1011140  98.9834070  48.6360850  12.6731350  99.4582590
  47.2924470  12.6650580  98.7607970  51.1766080  12.5032700  94.2574350
  51.3716710  13.4016150  94.5241780  50.3895950  12.2719780  94.7507300
  37.9727370  28.1845870  94.6966970  37.4474990  28.5653900  93.9928930
  37.8971950  28.8096640  95.4176680  39.3617840  13.8493470  93.2950660
  39.8910600  13.0623270  93.1658610  39.9946160  14.5284660  93.5286190
  41.5555680  13.5868610  96.3496050  40.9258420  12.8855920  96.5166180
  41.0160820  14.3472740  96.1329210  52.7292690  29.7433410  96.0180910
  52.9044880  29.0571150  95.3741830  52.0314260  30.2680460  95.6257580
  40.5720340  30.1328250  93.5716220  41.3039160  29.8487530  93.0240110
  40.8314010  29.8941530  94.4615600  39.7335130  26.2492980  93.5762550
  39.1044010  26.7178080  94.1248380  39.8482960  25.4042200  94.0108740
  47.1884850  20.2998640  79.7263750  47.1078900  19.3853250  79.4555460
  46.7749270  20.7965710  79.0203460  45.3202890  22.0777660  81.6073020
  44.5444990  21.5978100  81.8971590  45.9715820  21.3983310  81.4329180
  39.3368720  22.3897470  82.4848780  38.5053600  22.1346180  82.8845290
  39.9449700  22.4608240  83.2206700  49.3410320  26.4837850  80.3872150
  48.8791850  25.7125090  80.7159320  50.1535870  26.5103920  80.8924600
  39.3169980  26.4237560  82.6806800  39.6198020  25.5335300  82.5017020
  40.0613570  26.9807780  82.4529050  37.7460670  17.3499360  76.2691170
  36.8577370  17.6915330  76.1671050  38.0301860  17.1499680  75.3772000
  35.7093680  19.9505010  82.1530870  36.2809790  19.1827210  82.1534510
  35.7095220  20.2493770  81.2437480  45.5673630  28.7695860  80.0076140
  44.9485070  29.2253360  79.4370580  46.4225410  28.9247320  79.6065840
  44.7611880  24.7534850  81.6143180  44.6920160  23.8124790  81.4532310
  45.5231740  24.8436260  82.1865750  36.9518550  15.3589370  83.9399800
  36.7721390  14.4615120  84.2202560  36.5498630  15.9061240  84.6146750
  45.7917050  17.5605230  81.8412110  46.1681870  16.6877110  81.7285780
  45.6936560  17.8963930  80.9502550  39.9222060  15.9330860  77.3029550
  40.0288810  16.8334590  77.6098310  39.0114420  15.8848830  77.0124200
  49.5741170  15.0555670  78.7740450  50.3950790  14.5652240  78.8165930
  49.6075250  15.6453330  79.5272290  37.5705220  17.8549870  82.5482140
  38.2515330  18.1188240  83.1669540  37.2553270  17.0150740  82.8820150
  41.7629790  18.9017230  81.6354730  42.2708010  19.3998200  82.2759750
  42.2943030  18.1252430  81.4594090  53.8640720  17.0722420  85.3384080
  53.1592890  17.4604130  84.8199190  54.1298640  17.7672710  85.9405010
  40.0465890  13.5415790  85.9018150  40.0484330  14.0588180  85.0964050
  39.2170200  13.0645970  85.8788080  46.4336980  23.6535100  77.4008050
  45.8154250  24.1184550  76.8370770  46.9460230  24.3462580  77.8177560
  41.2968740  23.1810970  84.0791650  40.9638120  23.8079890  84.7212720
  41.4735420  23.7072850  83.2993320  49.8102650  16.9956050  81.5467990
  49.1058220  17.2840940  82.1271100  50.1714810  17.8056160  81.1867550
  39.7281220  15.2525750  83.9088600  40.0698030  16.0967800  83.6142470
  38.7897030  15.4009490  84.0253940  40.5087840  25.1491770  85.8940830
  41.1261840  25.8242850  85.6125280  39.6480960  25.5579750  85.8028330
  35.8020180  24.3391630  74.7747680  35.4248160  24.8278730  74.0432580
  36.0593250  25.0116910  75.4054210  51.4265430  26.6131180  83.8095470
  50.7428950  27.2830290  83.8012140  51.9659720  26.8111830  83.0440330
  52.8789570  16.4410840  81.9377200  51.9314480  16.4749820  82.0692630
  53.2039560  17.2549790  82.3226560  43.4109110  12.7408020  80.2333190
  43.7184090  12.1854910  79.5168690  42.4809810  12.8752480  80.0506180
  48.9624170  28.4575310  82.5240650  48.9751330  28.0537600  81.6562910
  48.4099390  29.2322600  82.4202080  50.2569590  25.1791530  77.6130820
  50.1465920  24.2365860  77.7380240  50.2537840  25.5407170  78.4993580
  48.3609610  23.3605150  83.8523260  48.7778400  23.1465260  83.0176720
  49.0849430  23.6177940  84.4231880  45.7989870  20.8056850  76.9693310
  44.8719150  20.7394230  77.1981780  45.9514690  21.7436980  76.8548550
  45.7858950  17.0773850  73.9660470  44.8462620  17.2387810  74.0512930
  46.1042210  17.7959530  73.4196460  52.3071710  21.7592370  83.9439500
  51.4790340  21.8285460  83.4689630  52.9022190  22.3446680  83.4755330
  49.8287160  22.3677150  77.4728560  49.2099580  22.0296700  76.8254860
  49.8111610  21.7236910  78.1807750  49.2713720  18.5461690  84.8894370
  48.8584900  19.3715400  85.1434360  48.5389670  17.9606730  84.6970730
  41.4046510  21.3321590  79.7513040  41.0003510  20.6198840  79.2558940
  41.4909630  20.9874830  80.6401080  41.8728210  25.0189150  81.9152250
  41.5756500  24.4134620  81.2360030  42.8228030  25.0566460  81.8041610
  40.1175130  18.1064800  83.5312080  40.6689720  18.2160140  82.7565330
  40.6318640  18.4802400  84.2467310  49.9613820  28.5921020  85.5775350
  49.4844380  29.3993210  85.3847960  49.2775610  27.9399350  85.7301560
  40.9646640  24.7570840  88.5660050  40.0675170  24.9810810  88.8133450
  40.9899510  24.8805780  87.6171450  48.0051860  21.6063960  74.4801310
  48.4445140  20.7686390  74.3339130  48.7180280  22.2393360  74.5665450
  39.7917860  21.6284160  87.1417420  39.6525630  22.5006960  87.5104820
  38.9099220  21.2856970  86.9965360  46.1147240  26.5460030  78.4482550
  46.5543150  27.2884360  78.0337940  46.0534130  26.7886600  79.3721510
  41.5898210  27.5705860  89.3502570  41.5613640  27.9748810  88.4831000
  41.4263180  26.6416220  89.1874170  51.5869000  12.8606770  72.7942350
  51.2741660  12.9533600  73.6941420  52.3481470  13.4387800  72.7439780
  38.1051140  20.2266570  77.2519690  37.9848740  20.9528660  76.6400960
  37.7952030  19.4569480  76.7747600  53.5413030  28.3532960  90.6466740
  54.0172750  28.8315850  91.3255820  54.1620190  28.2850450  89.9212240
  35.7436510  23.3981710  83.0588330  35.8216930  23.5330480  82.1144050
  36.3578190  22.6897600  83.2516450  36.9884140  25.0981900  79.4694510
  36.5812220  25.2396490  78.6148110  37.8797150  24.8142060  79.2665720
  52.9446280  25.5445810  87.8066750  53.0709340  25.3057690  86.8883930
  52.9867660  24.7130350  88.2788830  46.8063020  29.2473810  86.3761560
  47.3207690  29.1581820  87.1783990  45.9632100  29.5933510  86.6689470
  48.7817420  29.5329150  75.8045560  48.6218560  29.2432090  76.7027390
  48.6164130  28.7569280  75.2690790  41.2605800  29.3127680  77.5817180
  41.0848280  28.3963220  77.3684980  40.4061540  29.6714970  77.8214980
  48.4843550  27.0416710  74.3643560  47.7908710  27.0394000  73.7045840
  49.2266410  26.6176030  73.9337730  48.0493480  28.6679420  78.4392050
  48.5050430  27.8868800  78.7530670  48.3886000  29.3786240  78.9833230
  52.7970290  17.5978270  88.7716490  52.1814560  18.1057940  88.2431950
  52.4766710  16.6976600  88.7142430  35.7996030  24.4395880  85.5982790
  35.9627070  23.9701240  84.7802160  36.2648480  23.9319440  86.2631630
  40.5714800  13.5701640  80.6343360  40.1282950  14.3511180  80.3027880
  41.1299790  13.8931530  81.3414300  44.8584610  16.4370160  86.2378680
  44.3963980  16.6453180  87.0498620  44.4562720  15.6229510  85.9349350
  49.8589120  17.6579110  87.3675340  49.0082710  17.3584860  87.6884410
  49.6990910  17.9021120  86.4559160  46.9538830  19.1580860  89.4674130
  47.2792240  18.3244610  89.1276360  47.7419160  19.6809380  89.6152460
  43.6873620  13.1912340  75.5149190  43.0627800  13.1872210  76.2402500
  43.6003740  12.3243300  75.1185160  42.6090700  14.1148970  82.4932960
  42.9063030  15.0211800  82.4124980  43.1576260  13.6267750  81.8792530
  40.3629020  18.6935210  78.3624610  40.1369940  18.4772380  79.2671230
  39.5821550  19.1263670  78.0170580  47.5926780  18.6998580  76.9615260
  46.9935670  19.4234380  76.7778880  48.1406390  18.6375360  76.1791710
  42.8028230  19.5920790  89.0284880  42.7071830  18.6515520  88.8785280
  43.6460210  19.8135860  88.6332950  46.1991650  17.3362120  78.9918540
  46.5921220  17.6534320  78.1787230  46.5608500  16.4574000  79.1063060
  37.9338770  16.0034460  87.1818660  37.5402160  16.8509670  87.3891440
  37.2457170  15.3660830  87.3727300  44.5083820  16.0869430  90.2515400
  43.8182140  15.8941630  90.8861490  45.2516120  16.3704070  90.7839700
  35.2355820  13.9262920  81.2148740  34.9468870  14.4965780  81.9273720
  35.9801580  13.4467370  81.5779970  35.4226050  17.8683040  72.4251460
  35.3400720  18.8113800  72.5666450  35.0709110  17.7257950  71.5463810
  46.7846790  19.9267870  83.0869320  46.0527910  20.4354680  83.4359420
  46.3871130  19.1097850  82.7858100  43.2224180  16.6022070  81.4921810
  43.2260240  16.1612020  80.6426350  44.1175300  16.9239400  81.5993630
  39.0726560  16.4848560  80.4516020  38.7326610  16.9623790  81.2083070
  38.3103880  16.0313680  80.0917120  43.2844330  17.6034150  74.4828570
  43.4057150  17.5620630  75.4314390  42.8992840  18.4658300  74.3275300
  47.2472700  15.3801550  82.4992260  47.2645440  15.8310200  83.3434110
  46.9988280  14.4807190  82.7125700  42.2965830  19.9135290  73.8811870
  41.7282730  19.4653540  73.2547780  43.0054830  20.2728070  73.3477020
  50.6743450  12.7933730  88.3378640  50.9989220  12.0623390  88.8636620
  50.7099960  12.4747370  87.4359630  37.3735010  23.8147310  87.7578600
  36.9889800  23.1740980  88.3561560  37.6847200  24.5183430  88.3273330
  43.5232150  20.6623850  83.2387220  43.8902280  20.1882420  83.9848560
  43.3337210  21.5365420  83.5795560  36.3872640  15.4067540  79.3680690
  36.1019560  15.0423210  80.2059310  36.3251500  14.6748000  78.7543830
  41.3131520  19.7032490  85.5571430  41.0088590  20.5824470  85.7821790
  42.2677980  19.7632280  85.5928870  39.8413310  23.9093480  76.1538280
  39.0675570  23.3691100  75.9937000  40.5707940  23.3900090  75.8156040
  50.6001290  22.9058840  81.9464670  51.3200410  23.4014130  81.5560780
  50.3983110  22.2276730  81.3018540  46.0611230  14.2996800  76.0894060
  45.2475840  13.8009970  76.0139370  45.8673180  15.1395050  75.6730410
  45.9820090  22.9767900  87.8333670  45.9157400  22.0563570  87.5791260
  45.3525230  23.0743340  88.5478310  48.7759620  18.6716450  74.3856220
  49.6639240  18.9833680  74.2107560  48.7464710  17.7988700  73.9936800
  39.8850710  23.5773860  79.7917090  40.4029380  22.7742120  79.7373980
  39.4334730  23.5153000  80.6333920  44.7720210  24.8440140  75.0644390
  45.1135910  25.5882370  74.5687710  43.9432920  25.1571260  75.4269220
  37.3695250  20.5435230  86.7042790  37.0110190  21.2089080  87.2916130
  37.0749810  19.7118780  87.0755410  40.5708370  21.0019470  89.5882340
  40.2708510  21.1476650  88.6910160  41.3419610  20.4424760  89.4955730
  45.9136820  25.7988470  87.5837470  45.9281360  24.8669430  87.3656380
  45.2061920  25.8848230  88.2227240  51.0473890  19.9828290  73.8536080
  50.9637610  20.4142510  73.0032520  51.7668080  20.4426640  74.2862900
  52.1248030  22.4395810  86.9306050  51.3996220  23.0324590  86.7335440
  52.6523490  22.4319350  86.1319420  52.0761140  26.8370550  76.5818210
  51.4337300  26.1826170  76.8561930  51.6891800  27.2425640  75.8058880
  47.6547620  24.1655980  80.4289900  48.0071440  23.5684110  79.7691270
  46.7709950  23.8400210  80.5998150  43.7410900  24.9253670  77.8360310
  44.4282030  25.4722880  78.2167900  42.9543320  25.4694400  77.8709920
  35.8803300  20.5426490  73.3277390  36.7498150  20.8251290  73.6113310
  35.3893620  21.3562360  73.2126200  43.0438110  21.9299700  77.4485670
  43.5000890  22.7404950  77.6745860  42.6926320  21.6122840  78.2804160
  45.3470720  27.4406040  84.6777970  45.9912940  27.6465420  85.3551390
  45.7100160  26.6794440  84.2248820  38.9449890  12.2737350  77.9208190
  38.8164520  12.2655250  78.8693110  38.1211910  12.6120440  77.5699200
  46.6202800  25.4438390  83.3955420  47.2625030  24.7431550  83.5087590
  47.1452150  26.2236830  83.2152310  50.4658520  25.7287010  73.1194560
  50.2396100  25.0117450  73.7119200  50.0754720  25.4799450  72.2816310
  48.3940420  26.2433290  86.5991480  48.7296660  26.8299980  87.2769400
  47.4740760  26.1126000  86.8289270  36.2474550  29.7553870  73.8939020
  36.6072190  30.3543210  73.2396290  36.1066890  30.3013760  74.6674050
  35.9443820  14.0328470  87.3814890  35.2302340  14.2325390  87.9867500
  36.3638860  13.2568040  87.7529690  50.0474770  23.6458950  74.7808720
  49.7596470  24.1071640  75.5686600  50.8426940  23.1856720  75.0492940
  36.2316410  28.0208730  88.3681420  36.3407530  27.0803470  88.2276810
  35.5796970  28.2863480  87.7195150  44.2229000  26.2924620  89.7679540
  43.9025870  25.5733860  90.3125230  43.5487360  26.9679690  89.8415600
  42.2643170  27.1385070  74.7112690  42.2553270  27.8714760  74.0957200
  41.3441530  26.8916650  74.8039650  37.8649810  22.3599960  75.4559450
  37.2577760  23.0998860  75.4654750  38.3399160  22.4499320  74.6297650
  47.4382600  16.5250780  85.1316340  47.8063420  15.7045990  85.4595910
  46.5780800  16.5852670  85.5471990  50.8044630  15.4807720  75.9403900
  50.1757790  15.5853390  75.2262130  50.3096550  15.7004500  76.7297780
  45.2502770  27.2013310  73.3737880  45.3514750  26.9977300  72.4439860
  44.3504510  26.9471590  73.5785660  42.7728660  17.7593670  77.3561780
  42.0644810  18.2280010  77.7975390  43.0573140  17.1015680  77.9906970
  44.3984590  19.1790370  85.3554310  44.8969840  19.6536190  86.0206160
  44.5407540  18.2553890  85.5624340  46.8044090  14.4844330  78.7957570
  46.6811870  14.5030460  77.8467080  47.7528650  14.5323270  78.9155970
  43.8920880  29.7199630  78.0685550  44.1462380  29.6821020  77.1464920
  42.9433360  29.5932960  78.0613800  40.9763680  16.0678750  74.7312490
  41.8254210  16.5048900  74.6652680  40.6094950  16.3799010  75.5584550
  51.6051450  15.3958330  86.1982700  51.1025050  16.1363730  86.5376510
  52.4208110  15.7842330  85.8819490  49.8973460  20.6391510  79.6444060
  48.9563600  20.6541740  79.8191750  50.2117530  19.8527470  80.0904360
  39.8755100  22.3211110  73.2048020  40.6418370  22.2092470  73.7673450
  39.9529790  21.6249080  72.5524790  38.5701860  19.7536180  73.8880910
  38.6505450  18.8063690  73.9998310  39.4621610  20.0843060  73.9941570
  51.8999040  27.8100360  81.3198320  52.0246460  28.6331530  81.7922130
  52.7664600  27.5991090  80.9722470  39.3716570  29.9031570  80.9915450
  40.1079050  29.3547030  81.2624020  39.7557490  30.7687580  80.8521440
  36.2562050  25.9705140  76.8656960  35.3301830  26.2126280  76.8562370
  36.7218480  26.7979400  76.7441710  38.3774850  29.0877640  90.1801030
  39.1787580  29.4089690  90.5936430  37.8626670  28.7273220  90.9020940
  42.4818880  29.0761880  72.8141020  43.2747490  29.3650710  72.3622810
  41.9623230  28.6454050  72.1353500  47.2139480  25.1957510  90.1276440
  46.6077640  25.2189110  89.3872190  46.9093590  24.4640550  90.6643690
  48.6439850  28.9237800  88.7385850  49.5961600  28.8395820  88.6886090
  48.4968070  29.5879510  89.4119640  51.5349050  28.3032010  74.2377760
  51.2490560  27.8897150  73.4231940  51.3368600  29.2319720  74.1178280
  36.0972660  21.5751100  89.1237080  36.6011680  20.9958380  89.6953310
  35.3580080  21.8591330  89.6613450  42.9996280  24.2965290  72.6783370
  42.8946920  23.6817640  73.4044750  42.8320500  23.7731180  71.8946380
  43.1510600  22.9822090  88.6572600  42.3856270  23.5507090  88.5727270
  43.3326560  22.6898300  87.7640830  46.2399010  23.3585320  73.2825360
  45.6909110  23.8054620  73.9268100  46.8618270  22.8534570  73.8063030
  50.2933950  24.7127420  89.2147620  51.0343420  25.0503180  88.7115080
  49.5306630  24.8819480  88.6617390  38.1295740  19.7180690  90.0187150
  38.1701080  19.4194560  90.9272380  38.9841240  20.1188300  89.8594670
  41.9074130  22.3176240  75.1790660  42.3290550  22.1516110  76.0222050
  42.0324970  21.5076470  74.6845800  40.0701550  18.2972790  87.9861640
  39.5398010  17.8063740  87.3584980  40.7389620  18.7256990  87.4519570
  44.4201770  21.3413850  72.4267760  44.9407430  20.6262870  72.0608910
  45.0670170  21.9799720  72.7268270  48.9679610  22.7642250  87.7502830
  49.3820630  22.9187330  88.5993250  48.0330610  22.8897470  87.9128610
  49.4401780  20.1038410  89.7541980  50.0222550  19.3490730  89.6662460
  49.6163550  20.6345850  88.9773460  40.5573850  15.2635160  88.0658930
  40.4630720  14.6455910  87.3409800  39.9771240  15.9901450  87.8388840
  43.3235290  13.8208400  85.0986320  42.8752590  13.8432660  84.2531870
  42.6900490  13.4227420  85.6956620  43.7294840  22.7162730  85.7198760
  44.1482950  23.5595460  85.5475000  42.8103470  22.8534770  85.4905540
  46.0658740  20.4478910  87.1036600  46.1854950  19.8520050  87.8431440
  46.9252740  20.4848600  86.6837900  48.4046640  21.0016100  85.6799110
  47.8781860  21.5258720  85.0764250  48.7477980  21.6343490  86.3108840
  40.8033030  18.3909470  72.1248820  40.6022090  17.5276830  72.4862160
  40.6325080  18.3042830  71.1870420  41.5802260  29.0215740  86.8356490
  41.0423350  29.7461800  86.5165190  41.8336220  28.5446080  86.0453830
  42.8327510  16.9900260  88.3612420  43.4227200  16.6816110  89.0490240
  42.0147750  16.5180010  88.5172320  47.6520940  16.6066070  88.5945440
  46.9636460  15.9447610  88.5295430  48.3726960  16.1604340  89.0393900
  48.2821340  13.2017700  74.6535700  48.5623630  12.3585600  75.0095120
  47.5087070  13.4340810  75.1674450  39.6015830  15.4910090  72.1126700
  39.9041730  15.4977520  71.2045850  40.3410420  15.1407950  72.6094360
  44.4364470  30.2566950  87.0943140  44.3623170  31.1602090  87.4015510
  43.5343310  29.9378850  87.0665210  42.8200760  14.4344710  73.0982900
  42.4722760  13.7568700  72.5185350  43.0213530  13.9734220  73.9126290
  44.9849800  29.4225460  74.7169500  45.8800590  29.7610430  74.7388260
  45.0167430  28.7004870  74.0893780  38.6245960  24.7952510  72.9456500
  39.0620830  25.3382180  73.6014080  39.1093690  23.9699460  72.9552840
  35.8391760  27.5841540  80.3976760  36.1694770  26.7162600  80.1655400
  36.2682760  27.7900060  81.2281720  40.4353680  25.9150550  78.0578730
  40.1349220  25.7915520  78.9582640  40.3291170  25.0559140  77.6494460
  36.3281970  28.4512130  83.1358390  35.8912960  28.6312930  83.9682540
  36.8959650  29.2086750  82.9940110  51.9644150  27.9529130  87.4235700
  51.3646140  28.0121690  86.6799620  52.0938050  27.0134110  87.5532550
  53.2045600  25.6946950  72.7605410  52.3738560  25.7623600  73.2312640
  53.3817430  26.5851070  72.4572270  52.6602060  22.4394430  75.2639610
  53.4220970  23.0091080  75.3699300  52.6756430  21.8721630  76.0347920
  36.1606400  20.9632360  79.4947270  35.5055240  20.6944000  78.8506970
  36.9984350  20.8536840  79.0449250  53.6662030  23.2944530  80.1081540
  54.0370860  22.5111850  79.7017510  54.3063960  23.9833630  79.9298840
  50.6495790  24.6781110  85.5211860  49.8355630  25.1078270  85.7837650
  51.0569990  25.2899520  84.9080910  52.7121230  22.7328800  72.4212130
  52.9870070  23.6407680  72.2931350  52.5231970  22.6691330  73.3574120
  49.1096840  15.7573650  73.7165760  49.5281720  15.5704630  72.8762420
  48.8032900  14.9052700  74.0268690  52.6086570  20.6697790  77.4141560
  52.2330170  19.9025720  76.9822850  51.8789690  21.0520490  77.9016490
  37.1982330  21.3484930  84.0350610  37.5655370  21.2612330  84.9146630
  36.6293150  20.5851480  83.9357470  51.9986190  19.8169310  87.0481080
  51.7672280  19.5882060  86.1479030  52.2590740  20.7368860  87.0025970
  36.7498330  18.2594020  87.9409030  35.8554380  18.2260780  88.2802740
  37.2895880  18.4580810  88.7060280  50.4374260  15.0425740  89.8260780
  51.3144440  15.0509140  90.2094780  50.4495100  14.3056580  89.2153130
  35.3744480  18.1731290  75.4372600  34.4708560  18.4361490  75.2624260
  35.8585100  18.4442460  74.6572560  51.8837530  18.8955280  80.7148800
  52.4075010  18.4017930  80.0838970  52.4696950  19.0305640  81.4596370
  52.0627250  18.9795150  84.2368350  51.1129960  18.9458690  84.3513340
  52.2440260  19.8895260  84.0018120  37.9171690  17.2296830  73.3466980
  38.6263390  16.8080050  72.8614260  37.2011630  17.2972060  72.7150330
  37.5645850  13.2836160  72.3869630  38.2873980  13.8245100  72.7050850
  37.8370370  13.0099580  71.5111170  51.3737500  18.1528630  76.6541210
  51.8696620  17.9199500  77.4390090  51.1753570  17.3140470  76.2378850
  37.2538040  12.5342350  82.2892250  37.9014230  11.9839730  81.8487410
  37.6739880  12.7885500  83.1108060  52.8024660  16.7889580  79.1878890
  52.6923940  16.6345620  80.1261160  53.5632250  16.2610520  78.9454300
  51.1490380  12.7283710  85.6461890  51.7862600  13.3417850  86.0121080
  51.2965270  12.7644370  84.7011120  53.6914930  14.6197500  72.4285030
  54.6164240  14.4878680  72.2203320  53.6690720  14.6990320  73.3821480
  53.7653420  15.3908160  75.0541740  52.9704920  15.3253280  75.5834650
  53.9696700  16.3258800  75.0427090  50.7071840  29.4299710  79.0480130
  51.3030910  29.1084280  78.3714550  50.9649990  28.9571530  79.8393400
  37.0070040  12.6898020  85.0317570  36.6584860  13.1461840  85.7975750
  36.6757740  11.7955150  85.1140000  38.6134410  25.8617620  89.1970760
  38.5704040  25.4910530  90.0785220  38.7445420  26.7995190  89.3372580
  42.3140440  27.4177210  84.7980480  42.0731800  27.6851770  83.9111000
  43.2543080  27.5882940  84.8531340  44.5194860  13.8809900  88.5536990
  44.4583750  14.4731730  89.3032400  45.4595240  13.7735860  88.4087250
  47.1569420  13.5379960  88.1929280  47.7709830  13.8559250  87.5310360
  47.7018980  13.0528550  88.8125140  53.5744600  29.4371590  85.5991120
  53.0802880  29.8340460  84.8818250  52.9657890  28.8120800  85.9928400
  37.6790680  12.2174220  88.3068340  38.2273670  12.0362270  87.5434450
  37.7445990  11.4268330  88.8424650  38.4522440  28.8079870  86.3168540
  37.8582760  28.6764570  87.0558580  38.4446280  27.9718010  85.8510640
  47.8977460  12.1012100  84.5198570  47.0237300  12.4347210  84.3171500
  47.7888210  11.6285280  85.3450440  48.8049440  14.3082970  85.9040290
  48.4762800  13.4934730  85.5242020  49.7531740  14.2652780  85.7805980
  51.2584050  30.0795010  82.8777860  50.7987020  30.8310820  82.5035880
  50.6296510  29.3601480  82.8192660  38.0834670  26.1738250  85.2676580
  37.3568730  25.5543540  85.2002530  38.1443820  26.5678860  84.3974660
  41.6879770  28.3883250  82.0525990  42.2044790  27.7770610  81.5274250
  42.3377150  28.8912030  82.5437000  44.4275270  29.2791740  82.8794970
  44.7153080  29.0246040  82.0027980  44.9398490  28.7269100  83.4700540
  45.6452280  13.0181940  83.4591480  44.8624070  13.4927440  83.7388240
  45.3515210  12.1136770  83.3504660  50.1973350  13.7205040  81.5040570
  50.6381440  13.6650140  80.6562170  49.9280940  14.6363050  81.5750750
  52.0611920  13.3520280  79.5149390  52.0000320  12.4081500  79.3680410
  52.8403950  13.4600370  80.0602850  36.3664670  29.4912640  78.4773340
  36.1986710  28.8583320  79.1755230  35.4999180  29.6972040  78.1267530
  36.9892690  13.3229420  75.9805200  37.7472050  13.4358300  75.4069230
  36.5269860  14.1598620  75.9348630  43.5306500  15.4368690  78.9707510
  42.7181010  15.0625580  78.6303390  44.0348140  14.6813770  79.2728700
  48.0331480  12.1011140  80.2090580  48.6360850  12.6731350  80.6839100
  47.2924470  12.6650580  79.9864480  51.1766080  12.5032700  75.4830860
  51.3716710  13.4016150  75.7498290  50.3895950  12.2719780  75.9763810
  37.9727370  28.1845870  75.9223480  37.4474990  28.5653900  75.2185440
  37.8971950  28.8096640  76.6433190  39.3617840  13.8493470  74.5207170
  39.8910600  13.0623270  74.3915120  39.9946160  14.5284660  74.7542700
  41.5555680  13.5868610  77.5752560  40.9258420  12.8855920  77.7422690
  41.0160820  14.3472740  77.3585720  44.4947630  30.2007840  90.2463170
  45.4214940  29.9652110  90.2899130  44.4798060  31.0279840  89.7649200
  52.7292690  29.7433410  77.2437420  52.9044880  29.0571150  76.5998340
  52.0314260  30.2680460  76.8514090  41.6811240  12.8652590  90.0105050
  41.3995510  13.3686190  89.2465870  42.0630940  12.0674340  89.6447180
  40.5720340  30.1328250  74.7972730  41.3039160  29.8487530  74.2496620
  40.8314010  29.8941530  75.6872110  39.7335130  26.2492980  74.8019060
  39.1044010  26.7178080  75.3504890  39.8482960  25.4042200  75.2365250
  48.2826700  12.2806170  90.5885520  48.1692150  12.6000780  91.4837040
  49.0996440  12.6818680  90.2922800  51.0625190  29.4277700  90.0704210
  51.8550510  28.9326930  89.8630170  51.3558340  30.1067840  90.6779820
  37.7460670  17.3499360  57.4947680  36.8577370  17.6915330  57.3927560
  38.0301860  17.1499680  56.6028510  35.7093680  19.9505010  63.3787380
  36.2809790  19.1827210  63.3791020  35.7095220  20.2493770  62.4693990
  36.9518550  15.3589370  65.1656310  36.7721390  14.4615120  65.4459070
  36.5498630  15.9061240  65.8403260  45.7917050  17.5605230  63.0668620
  46.1681870  16.6877110  62.9542290  45.6936560  17.8963930  62.1759060
  39.9222060  15.9330860  58.5286060  40.0288810  16.8334590  58.8354820
  39.0114420  15.8848830  58.2380710  49.5741170  15.0555670  59.9996960
  50.3950790  14.5652240  60.0422440  49.6075250  15.6453330  60.7528800
  37.5705220  17.8549870  63.7738650  38.2515330  18.1188240  64.3926050
  37.2553270  17.0150740  64.1076660  41.7629790  18.9017230  62.8611240
  42.2708010  19.3998200  63.5016260  42.2943030  18.1252430  62.6850600
  53.8640720  17.0722420  66.5640590  53.1592890  17.4604130  66.0455700
  54.1298640  17.7672710  67.1661520  40.0465890  13.5415790  67.1274660
  40.0484330  14.0588180  66.3220560  39.2170200  13.0645970  67.1044590
  49.8102650  16.9956050  62.7724500  49.1058220  17.2840940  63.3527610
  50.1714810  17.8056160  62.4124060  39.7281220  15.2525750  65.1345110
  40.0698030  16.0967800  64.8398980  38.7897030  15.4009490  65.2510450
  52.8789570  16.4410840  63.1633710  51.9314480  16.4749820  63.2949140
  53.2039560  17.2549790  63.5483070  43.4109110  12.7408020  61.4589700
  43.7184090  12.1854910  60.7425200  42.4809810  12.8752480  61.2762690
  45.7858950  17.0773850  55.1916980  44.8462620  17.2387810  55.2769440
  46.1042210  17.7959530  54.6452970  52.3071710  21.7592370  65.1696010
  51.4790340  21.8285460  64.6946140  52.9022190  22.3446680  64.7011840
  49.2713720  18.5461690  66.1150880  48.8584900  19.3715400  66.3690870
  48.5389670  17.9606730  65.9227240  41.4046510  21.3321590  60.9769550
  41.0003510  20.6198840  60.4815450  41.4909630  20.9874830  61.8657590
  40.1175130  18.1064800  64.7568590  40.6689720  18.2160140  63.9821840
  40.6318640  18.4802400  65.4723820  40.9646640  24.7570840  69.7916560
  40.0675170  24.9810810  70.0389960  40.9899510  24.8805780  68.8427960
  39.7917860  21.6284160  68.3673930  39.6525630  22.5006960  68.7361330
  38.9099220  21.2856970  68.2221870  41.5898210  27.5705860  70.5759080
  41.5613640  27.9748810  69.7087510  41.4263180  26.6416220  70.4130680
  51.5869000  12.8606770  54.0198860  51.2741660  12.9533600  54.9197930
  52.3481470  13.4387800  53.9696290  38.1051140  20.2266570  58.4776200
  37.9848740  20.9528660  57.8657470  37.7952030  19.4569480  58.0004110
  53.5413030  28.3532960  71.8723250  54.0172750  28.8315850  72.5512330
  54.1620190  28.2850450  71.1468750  52.9446280  25.5445810  69.0323260
  53.0709340  25.3057690  68.1140440  52.9867660  24.7130350  69.5045340
  52.7970290  17.5978270  69.9973000  52.1814560  18.1057940  69.4688460
  52.4766710  16.6976600  69.9398940  35.7996030  24.4395880  66.8239300
  35.9627070  23.9701240  66.0058670  36.2648480  23.9319440  67.4888140
  40.5714800  13.5701640  61.8599870  40.1282950  14.3511180  61.5284390
  41.1299790  13.8931530  62.5670810  44.8584610  16.4370160  67.4635190
  44.3963980  16.6453180  68.2755130  44.4562720  15.6229510  67.1605860
  49.8589120  17.6579110  68.5931850  49.0082710  17.3584860  68.9140920
  49.6990910  17.9021120  67.6815670  46.9538830  19.1580860  70.6930640
  47.2792240  18.3244610  70.3532870  47.7419160  19.6809380  70.8408970
  43.6873620  13.1912340  56.7405700  43.0627800  13.1872210  57.4659010
  43.6003740  12.3243300  56.3441670  42.6090700  14.1148970  63.7189470
  42.9063030  15.0211800  63.6381490  43.1576260  13.6267750  63.1049040
  40.3629020  18.6935210  59.5881120  40.1369940  18.4772380  60.4927740
  39.5821550  19.1263670  59.2427090  42.8028230  19.5920790  70.2541390
  42.7071830  18.6515520  70.1041790  43.6460210  19.8135860  69.8589460
  46.1991650  17.3362120  60.2175050  46.5921220  17.6534320  59.4043740
  46.5608500  16.4574000  60.3319570  37.9338770  16.0034460  68.4075170
  37.5402160  16.8509670  68.6147950  37.2457170  15.3660830  68.5983810
  44.5083820  16.0869430  71.4771910  43.8182140  15.8941630  72.1118000
  45.2516120  16.3704070  72.0096210  35.2355820  13.9262920  62.4405250
  34.9468870  14.4965780  63.1530230  35.9801580  13.4467370  62.8036480
  35.4226050  17.8683040  53.6507970  35.3400720  18.8113800  53.7922960
  35.0709110  17.7257950  52.7720320  46.7846790  19.9267870  64.3125830
  46.0527910  20.4354680  64.6615930  46.3871130  19.1097850  64.0114610
  43.2224180  16.6022070  62.7178320  43.2260240  16.1612020  61.8682860
  44.1175300  16.9239400  62.8250140  39.0726560  16.4848560  61.6772530
  38.7326610  16.9623790  62.4339580  38.3103880  16.0313680  61.3173630
  43.2844330  17.6034150  55.7085080  43.4057150  17.5620630  56.6570900
  42.8992840  18.4658300  55.5531810  47.2472700  15.3801550  63.7248770
  47.2645440  15.8310200  64.5690620  46.9988280  14.4807190  63.9382210
  42.2965830  19.9135290  55.1068380  41.7282730  19.4653540  54.4804290
  43.0054830  20.2728070  54.5733530  50.6743450  12.7933730  69.5635150
  50.9989220  12.0623390  70.0893130  50.7099960  12.4747370  68.6616140
  37.3735010  23.8147310  68.9835110  36.9889800  23.1740980  69.5818070
  37.6847200  24.5183430  69.5529840  43.5232150  20.6623850  64.4643730
  43.8902280  20.1882420  65.2105070  43.3337210  21.5365420  64.8052070
  36.3872640  15.4067540  60.5937200  36.1019560  15.0423210  61.4315820
  36.3251500  14.6748000  59.9800340  41.3131520  19.7032490  66.7827940
  41.0088590  20.5824470  67.0078300  42.2677980  19.7632280  66.8185380
  46.0611230  14.2996800  57.3150570  45.2475840  13.8009970  57.2395880
  45.8673180  15.1395050  56.8986920  45.9820090  22.9767900  69.0590180
  45.9157400  22.0563570  68.8047770  45.3525230  23.0743340  69.7734820
  37.3695250  20.5435230  67.9299300  37.0110190  21.2089080  68.5172640
  37.0749810  19.7118780  68.3011920  40.5708370  21.0019470  70.8138850
  40.2708510  21.1476650  69.9166670  41.3419610  20.4424760  70.7212240
  45.9136820  25.7988470  68.8093980  45.9281360  24.8669430  68.5912890
  45.2061920  25.8848230  69.4483750  52.1248030  22.4395810  68.1562560
  51.3996220  23.0324590  67.9591950  52.6523490  22.4319350  67.3575930
  35.8803300  20.5426490  54.5533900  36.7498150  20.8251290  54.8369820
  35.3893620  21.3562360  54.4382710  43.0438110  21.9299700  58.6742180
  43.5000890  22.7404950  58.9002370  42.6926320  21.6122840  59.5060670
  38.9449890  12.2737350  59.1464700  38.8164520  12.2655250  60.0949620
  38.1211910  12.6120440  58.7955710  35.9443820  14.0328470  68.6071400
  35.2302340  14.2325390  69.2124010  36.3638860  13.2568040  68.9786200
  36.2316410  28.0208730  69.5937930  36.3407530  27.0803470  69.4533320
  35.5796970  28.2863480  68.9451660  44.2229000  26.2924620  70.9936050
  43.9025870  25.5733860  71.5381740  43.5487360  26.9679690  71.0672110
  47.4382600  16.5250780  66.3572850  47.8063420  15.7045990  66.6852420
  46.5780800  16.5852670  66.7728500  42.7728660  17.7593670  58.5818290
  42.0644810  18.2280010  59.0231900  43.0573140  17.1015680  59.2163480
  44.3984590  19.1790370  66.5810820  44.8969840  19.6536190  67.2462670
  44.5407540  18.2553890  66.7880850  46.8044090  14.4844330  60.0214080
  46.6811870  14.5030460  59.0723590  47.7528650  14.5323270  60.1412480
  40.9763680  16.0678750  55.9569000  41.8254210  16.5048900  55.8909190
  40.6094950  16.3799010  56.7841060  51.6051450  15.3958330  67.4239210
  51.1025050  16.1363730  67.7633020  52.4208110  15.7842330  67.1076000
  39.8755100  22.3211110  54.4304530  40.6418370  22.2092470  54.9929960
  39.9529790  21.6249080  53.7781300  38.5701860  19.7536180  55.1137420
  38.6505450  18.8063690  55.2254820  39.4621610  20.0843060  55.2198080
  38.3774850  29.0877640  71.4057540  39.1787580  29.4089690  71.8192940
  37.8626670  28.7273220  72.1277450  47.2139480  25.1957510  71.3532950
  46.6077640  25.2189110  70.6128700  46.9093590  24.4640550  71.8900200
  48.6439850  28.9237800  69.9642360  49.5961600  28.8395820  69.9142600
  48.4968070  29.5879510  70.6376150  36.0972660  21.5751100  70.3493590
  36.6011680  20.9958380  70.9209820  35.3580080  21.8591330  70.8869960
  43.1510600  22.9822090  69.8829110  42.3856270  23.5507090  69.7983780
  43.3326560  22.6898300  68.9897340  50.2933950  24.7127420  70.4404130
  51.0343420  25.0503180  69.9371590  49.5306630  24.8819480  69.8873900
  38.1295740  19.7180690  71.2443660  38.1701080  19.4194560  72.1528890
  38.9841240  20.1188300  71.0851180  41.9074130  22.3176240  56.4047170
  42.3290550  22.1516110  57.2478560  42.0324970  21.5076470  55.9102310
  40.0701550  18.2972790  69.2118150  39.5398010  17.8063740  68.5841490
  40.7389620  18.7256990  68.6776080  44.4201770  21.3413850  53.6524270
  44.9407430  20.6262870  53.2865420  45.0670170  21.9799720  53.9524780
  48.9679610  22.7642250  68.9759340  49.3820630  22.9187330  69.8249760
  48.0330610  22.8897470  69.1385120  49.4401780  20.1038410  70.9798490
  50.0222550  19.3490730  70.8918970  49.6163550  20.6345850  70.2029970
  40.5573850  15.2635160  69.2915440  40.4630720  14.6455910  68.5666310
  39.9771240  15.9901450  69.0645350  43.3235290  13.8208400  66.3242830
  42.8752590  13.8432660  65.4788380  42.6900490  13.4227420  66.9213130
  43.7294840  22.7162730  66.9455270  44.1482950  23.5595460  66.7731510
  42.8103470  22.8534770  66.7162050  46.0658740  20.4478910  68.3293110
  46.1854950  19.8520050  69.0687950  46.9252740  20.4848600  67.9094410
  48.4046640  21.0016100  66.9055620  47.8781860  21.5258720  66.3020760
  48.7477980  21.6343490  67.5365350  40.8033030  18.3909470  53.3505330
  40.6022090  17.5276830  53.7118670  40.6325080  18.3042830  52.4126930
  41.5802260  29.0215740  68.0613000  41.0423350  29.7461800  67.7421700
  41.8336220  28.5446080  67.2710340  42.8327510  16.9900260  69.5868930
  43.4227200  16.6816110  70.2746750  42.0147750  16.5180010  69.7428830
  47.6520940  16.6066070  69.8201950  46.9636460  15.9447610  69.7551940
  48.3726960  16.1604340  70.2650410  39.6015830  15.4910090  53.3383210
  39.9041730  15.4977520  52.4302360  40.3410420  15.1407950  53.8350870
  44.4364470  30.2566950  68.3199650  44.3623170  31.1602090  68.6272020
  43.5343310  29.9378850  68.2921720  42.8200760  14.4344710  54.3239410
  42.4722760  13.7568700  53.7441860  43.0213530  13.9734220  55.1382800
  38.6245960  24.7952510  54.1713010  39.0620830  25.3382180  54.8270590
  39.1093690  23.9699460  54.1809350  37.1982330  21.3484930  65.2607120
  37.5655370  21.2612330  66.1403140  36.6293150  20.5851480  65.1613980
  51.9986190  19.8169310  68.2737590  51.7672280  19.5882060  67.3735540
  52.2590740  20.7368860  68.2282480  36.7498330  18.2594020  69.1665540
  35.8554380  18.2260780  69.5059250  37.2895880  18.4580810  69.9316790
  50.4374260  15.0425740  71.0517290  51.3144440  15.0509140  71.4351290
  50.4495100  14.3056580  70.4409640  35.3744480  18.1731290  56.6629110
  34.4708560  18.4361490  56.4880770  35.8585100  18.4442460  55.8829070
  51.8837530  18.8955280  61.9405310  52.4075010  18.4017930  61.3095480
  52.4696950  19.0305640  62.6852880  52.0627250  18.9795150  65.4624860
  51.1129960  18.9458690  65.5769850  52.2440260  19.8895260  65.2274630
  37.9171690  17.2296830  54.5723490  38.6263390  16.8080050  54.0870770
  37.2011630  17.2972060  53.9406840  37.5645850  13.2836160  53.6126140
  38.2873980  13.8245100  53.9307360  37.8370370  13.0099580  52.7367680
  37.2538040  12.5342350  63.5148760  37.9014230  11.9839730  63.0743920
  37.6739880  12.7885500  64.3364570  52.8024660  16.7889580  60.4135400
  52.6923940  16.6345620  61.3517670  53.5632250  16.2610520  60.1710810
  51.1490380  12.7283710  66.8718400  51.7862600  13.3417850  67.2377590
  51.2965270  12.7644370  65.9267630  37.0070040  12.6898020  66.2574080
  36.6584860  13.1461840  67.0232260  36.6757740  11.7955150  66.3396510
  38.6134410  25.8617620  70.4227270  38.5704040  25.4910530  71.3041730
  38.7445420  26.7995190  70.5629090  44.5194860  13.8809900  69.7793500
  44.4583750  14.4731730  70.5288910  45.4595240  13.7735860  69.6343760
  47.1569420  13.5379960  69.4185790  47.7709830  13.8559250  68.7566870
  47.7018980  13.0528550  70.0381650  37.6790680  12.2174220  69.5324850
  38.2273670  12.0362270  68.7690960  37.7445990  11.4268330  70.0681160
  47.8977460  12.1012100  65.7455080  47.0237300  12.4347210  65.5428010
  47.7888210  11.6285280  66.5706950  48.8049440  14.3082970  67.1296800
  48.4762800  13.4934730  66.7498530  49.7531740  14.2652780  67.0062490
  45.6452280  13.0181940  64.6847990  44.8624070  13.4927440  64.9644750
  45.3515210  12.1136770  64.5761170  50.1973350  13.7205040  62.7297080
  50.6381440  13.6650140  61.8818680  49.9280940  14.6363050  62.8007260
  52.0611920  13.3520280  60.7405900  52.0000320  12.4081500  60.5936920
  52.8403950  13.4600370  61.2859360  36.9892690  13.3229420  57.2061710
  37.7472050  13.4358300  56.6325740  36.5269860  14.1598620  57.1605140
  43.5306500  15.4368690  60.1964020  42.7181010  15.0625580  59.8559900
  44.0348140  14.6813770  60.4985210  48.0331480  12.1011140  61.4347090
  48.6360850  12.6731350  61.9095610  47.2924470  12.6650580  61.2120990
  51.1766080  12.5032700  56.7087370  51.3716710  13.4016150  56.9754800
  50.3895950  12.2719780  57.2020320  39.3617840  13.8493470  55.7463680
  39.8910600  13.0623270  55.6171630  39.9946160  14.5284660  55.9799210
  41.5555680  13.5868610  58.8009070  40.9258420  12.8855920  58.9679200
  41.0160820  14.3472740  58.5842230  44.4947630  30.2007840  71.4719680
  45.4214940  29.9652110  71.5155640  44.4798060  31.0279840  70.9905710
  41.6811240  12.8652590  71.2361560  41.3995510  13.3686190  70.4722380
  42.0630940  12.0674340  70.8703690  48.2826700  12.2806170  71.8142030
  48.1692150  12.6000780  72.7093550  49.0996440  12.6818680  71.5179310
  36.9518550  15.3589370  46.3912820  36.7721390  14.4615120  46.6715580
  36.5498630  15.9061240  47.0659770  40.0465890  13.5415790  48.3531170
  40.0484330  14.0588180  47.5477070  39.2170200  13.0645970  48.3301100
  39.7281220  15.2525750  46.3601620  40.0698030  16.0967800  46.0655490
  38.7897030  15.4009490  46.4766960  43.4109110  12.7408020  42.6846210
  43.7184090  12.1854910  41.9681710  42.4809810  12.8752480  42.5019200
  51.5869000  12.8606770  35.2455370  51.2741660  12.9533600  36.1454440
  52.3481470  13.4387800  35.1952800  40.5714800  13.5701640  43.0856380
  40.1282950  14.3511180  42.7540900  41.1299790  13.8931530  43.7927320
  43.6873620  13.1912340  37.9662210  43.0627800  13.1872210  38.6915520
  43.6003740  12.3243300  37.5698180  42.6090700  14.1148970  44.9445980
  42.9063030  15.0211800  44.8638000  43.1576260  13.6267750  44.3305550
  42.8028230  19.5920790  51.4797900  42.7071830  18.6515520  51.3298300
  43.6460210  19.8135860  51.0845970  37.9338770  16.0034460  49.6331680
  37.5402160  16.8509670  49.8404460  37.2457170  15.3660830  49.8240320
  35.2355820  13.9262920  43.6661760  34.9468870  14.4965780  44.3786740
  35.9801580  13.4467370  44.0292990  35.4226050  17.8683040  34.8764480
  35.3400720  18.8113800  35.0179470  35.0709110  17.7257950  33.9976830
  36.3872640  15.4067540  41.8193710  36.1019560  15.0423210  42.6572330
  36.3251500  14.6748000  41.2056850  46.0611230  14.2996800  38.5407080
  45.2475840  13.8009970  38.4652390  45.8673180  15.1395050  38.1243430
  38.9449890  12.2737350  40.3721210  38.8164520  12.2655250  41.3206130
  38.1211910  12.6120440  40.0212220  35.9443820  14.0328470  49.8327910
  35.2302340  14.2325390  50.4380520  36.3638860  13.2568040  50.2042710
  50.8044630  15.4807720  38.3916920  50.1757790  15.5853390  37.6775150
  50.3096550  15.7004500  39.1810800  38.1295740  19.7180690  52.4700170
  38.1701080  19.4194560  53.3785400  38.9841240  20.1188300  52.3107690
  40.0701550  18.2972790  50.4374660  39.5398010  17.8063740  49.8098000
  40.7389620  18.7256990  49.9032590  40.5573850  15.2635160  50.5171950
  40.4630720  14.6455910  49.7922820  39.9771240  15.9901450  50.2901860
  43.3235290  13.8208400  47.5499340  42.8752590  13.8432660  46.7044890
  42.6900490  13.4227420  48.1469640  42.8327510  16.9900260  50.8125440
  43.4227200  16.6816110  51.5003260  42.0147750  16.5180010  50.9685340
  48.2821340  13.2017700  37.1048720  48.5623630  12.3585600  37.4608140
  47.5087070  13.4340810  37.6187470  42.8200760  14.4344710  35.5495920
  42.4722760  13.7568700  34.9698370  43.0213530  13.9734220  36.3639310
  49.1096840  15.7573650  36.1678780  49.5281720  15.5704630  35.3275440
  48.8032900  14.9052700  36.4781710  37.5645850  13.2836160  34.8382650
  38.2873980  13.8245100  35.1563870  37.8370370  13.0099580  33.9624190
  51.3737500  18.1528630  39.1054230  51.8696620  17.9199500  39.8903110
  51.1753570  17.3140470  38.6891870  37.2538040  12.5342350  44.7405270
  37.9014230  11.9839730  44.3000430  37.6739880  12.7885500  45.5621080
  51.1490380  12.7283710  48.0974910  51.7862600  13.3417850  48.4634100
  51.2965270  12.7644370  47.1524140  53.6914930  14.6197500  34.8798050
  54.6164240  14.4878680  34.6716340  53.6690720  14.6990320  35.8334500
  53.7653420  15.3908160  37.5054760  52.9704920  15.3253280  38.0347670
  53.9696700  16.3258800  37.4940110  37.0070040  12.6898020  47.4830590
  36.6584860  13.1461840  48.2488770  36.6757740  11.7955150  47.5653020
  37.6790680  12.2174220  50.7581360  38.2273670  12.0362270  49.9947470
  37.7445990  11.4268330  51.2937670  47.8977460  12.1012100  46.9711590
  47.0237300  12.4347210  46.7684520  47.7888210  11.6285280  47.7963460
  45.6452280  13.0181940  45.9104500  44.8624070  13.4927440  46.1901260
  45.3515210  12.1136770  45.8017680  51.1766080  12.5032700  37.9343880
  51.3716710  13.4016150  38.2011310  50.3895950  12.2719780  38.4276830
  41.5555680  13.5868610  40.0265580  40.9258420  12.8855920  40.1935710
  41.0160820  14.3472740  39.8098740  41.6811240  12.8652590  52.4618070
  41.3995510  13.3686190  51.6978890  42.0630940  12.0674340  52.0960200
  47.1884850  20.2998640  23.4033280  47.1078900  19.3853250  23.1324990
  46.7749270  20.7965710  22.6972990  37.7460670  17.3499360  19.9460700
  36.8577370  17.6915330  19.8440580  38.0301860  17.1499680  19.0541530
  45.7917050  17.5605230  25.5181640  46.1681870  16.6877110  25.4055310
  45.6936560  17.8963930  24.6272080  39.9222060  15.9330860  20.9799080
  40.0288810  16.8334590  21.2867840  39.0114420  15.8848830  20.6893730
  49.5741170  15.0555670  22.4509980  50.3950790  14.5652240  22.4935460
  49.6075250  15.6453330  23.2041820  53.8640720  17.0722420  29.0153610
  53.1592890  17.4604130  28.4968720  54.1298640  17.7672710  29.6174540
  40.0465890  13.5415790  29.5787680  40.0484330  14.0588180  28.7733580
  39.2170200  13.0645970  29.5557610  46.4336980  23.6535100  21.0777580
  45.8154250  24.1184550  20.5140300  46.9460230  24.3462580  21.4947090
  49.8102650  16.9956050  25.2237520  49.1058220  17.2840940  25.8040630
  50.1714810  17.8056160  24.8637080  39.7281220  15.2525750  27.5858130
  40.0698030  16.0967800  27.2912000  38.7897030  15.4009490  27.7023470
  52.8789570  16.4410840  25.6146730  51.9314480  16.4749820  25.7462160
  53.2039560  17.2549790  25.9996090  43.4109110  12.7408020  23.9102720
  43.7184090  12.1854910  23.1938220  42.4809810  12.8752480  23.7275710
  50.2569590  25.1791530  21.2900350  50.1465920  24.2365860  21.4149770
  50.2537840  25.5407170  22.1763110  48.3609610  23.3605150  27.5292790
  48.7778400  23.1465260  26.6946250  49.0849430  23.6177940  28.1001410
  45.7989870  20.8056850  20.6462840  44.8719150  20.7394230  20.8751310
  45.9514690  21.7436980  20.5318080  45.7858950  17.0773850  17.6430000
  44.8462620  17.2387810  17.7282460  46.1042210  17.7959530  17.0965990
  52.3071710  21.7592370  27.6209030  51.4790340  21.8285460  27.1459160
  52.9022190  22.3446680  27.1524860  49.8287160  22.3677150  21.1498090
  49.2099580  22.0296700  20.5024390  49.8111610  21.7236910  21.8577280
  49.2713720  18.5461690  28.5663900  48.8584900  19.3715400  28.8203890
  48.5389670  17.9606730  28.3740260  48.0051860  21.6063960  18.1570840
  48.4445140  20.7686390  18.0108660  48.7180280  22.2393360  18.2434980
  46.1147240  26.5460030  22.1252080  46.5543150  27.2884360  21.7107470
  46.0534130  26.7886600  23.0491040  51.5869000  12.8606770  16.4711880
  51.2741660  12.9533600  17.3710950  52.3481470  13.4387800  16.4209310
  38.1051140  20.2266570  20.9289220  37.9848740  20.9528660  20.3170490
  37.7952030  19.4569480  20.4517130  48.7817420  29.5329150  19.4815090
  48.6218560  29.2432090  20.3796920  48.6164130  28.7569280  18.9460320
  48.4843550  27.0416710  18.0413090  47.7908710  27.0394000  17.3815370
  49.2266410  26.6176030  17.6107260  48.0493480  28.6679420  22.1161580
  48.5050430  27.8868800  22.4300200  48.3886000  29.3786240  22.6602760
  52.7970290  17.5978270  32.4486020  52.1814560  18.1057940  31.9201480
  52.4766710  16.6976600  32.3911960  40.5714800  13.5701640  24.3112890
  40.1282950  14.3511180  23.9797410  41.1299790  13.8931530  25.0183830
  49.8589120  17.6579110  31.0444870  49.0082710  17.3584860  31.3653940
  49.6990910  17.9021120  30.1328690  43.6873620  13.1912340  19.1918720
  43.0627800  13.1872210  19.9172030  43.6003740  12.3243300  18.7954690
  42.6090700  14.1148970  26.1702490  42.9063030  15.0211800  26.0894510
  43.1576260  13.6267750  25.5562060  40.3629020  18.6935210  22.0394140
  40.1369940  18.4772380  22.9440760  39.5821550  19.1263670  21.6940110
  47.5926780  18.6998580  20.6384790  46.9935670  19.4234380  20.4548410
  48.1406390  18.6375360  19.8561240  46.1991650  17.3362120  22.6688070
  46.5921220  17.6534320  21.8556760  46.5608500  16.4574000  22.7832590
  35.2355820  13.9262920  24.8918270  34.9468870  14.4965780  25.6043250
  35.9801580  13.4467370  25.2549500  35.4226050  17.8683040  16.1020990
  35.3400720  18.8113800  16.2435980  35.0709110  17.7257950  15.2233340
  46.7846790  19.9267870  26.7638850  46.0527910  20.4354680  27.1128950
  46.3871130  19.1097850  26.4627630  43.2224180  16.6022070  25.1691340
  43.2260240  16.1612020  24.3195880  44.1175300  16.9239400  25.2763160
  39.0726560  16.4848560  24.1285550  38.7326610  16.9623790  24.8852600
  38.3103880  16.0313680  23.7686650  43.2844330  17.6034150  18.1598100
  43.4057150  17.5620630  19.1083920  42.8992840  18.4658300  18.0044830
  47.2472700  15.3801550  26.1761790  47.2645440  15.8310200  27.0203640
  46.9988280  14.4807190  26.3895230  42.2965830  19.9135290  17.5581400
  41.7282730  19.4653540  16.9317310  43.0054830  20.2728070  17.0246550
  50.6743450  12.7933730  32.0148170  50.9989220  12.0623390  32.5406150
  50.7099960  12.4747370  31.1129160  36.3872640  15.4067540  23.0450220
  36.1019560  15.0423210  23.8828840  36.3251500  14.6748000  22.4313360
  50.6001290  22.9058840  25.6234200  51.3200410  23.4014130  25.2330310
  50.3983110  22.2276730  24.9788070  46.0611230  14.2996800  19.7663590
  45.2475840  13.8009970  19.6908900  45.8673180  15.1395050  19.3499940
  48.7759620  18.6716450  18.0625750  49.6639240  18.9833680  17.8877090
  48.7464710  17.7988700  17.6706330  44.7720210  24.8440140  18.7413920
  45.1135910  25.5882370  18.2457240  43.9432920  25.1571260  19.1038750
  51.0473890  19.9828290  17.5305610  50.9637610  20.4142510  16.6802050
  51.7668080  20.4426640  17.9632430  52.0761140  26.8370550  20.2587740
  51.4337300  26.1826170  20.5331460  51.6891800  27.2425640  19.4828410
  47.6547620  24.1655980  24.1059430  48.0071440  23.5684110  23.4460800
  46.7709950  23.8400210  24.2767680  43.7410900  24.9253670  21.5129840
  44.4282030  25.4722880  21.8937430  42.9543320  25.4694400  21.5479450
  35.8803300  20.5426490  17.0046920  36.7498150  20.8251290  17.2882840
  35.3893620  21.3562360  16.8895730  43.0438110  21.9299700  21.1255200
  43.5000890  22.7404950  21.3515390  42.6926320  21.6122840  21.9573690
  38.9449890  12.2737350  21.5977720  38.8164520  12.2655250  22.5462640
  38.1211910  12.6120440  21.2468730  50.4658520  25.7287010  16.7964090
  50.2396100  25.0117450  17.3888730  50.0754720  25.4799450  15.9585840
  35.9443820  14.0328470  31.0584420  35.2302340  14.2325390  31.6637030
  36.3638860  13.2568040  31.4299220  50.0474770  23.6458950  18.4578250
  49.7596470  24.1071640  19.2456130  50.8426940  23.1856720  18.7262470
  47.4382600  16.5250780  28.8085870  47.8063420  15.7045990  29.1365440
  46.5780800  16.5852670  29.2241520  50.8044630  15.4807720  19.6173430
  50.1757790  15.5853390  18.9031660  50.3096550  15.7004500  20.4067310
  45.2502770  27.2013310  17.0507410  45.3514750  26.9977300  16.1209390
  44.3504510  26.9471590  17.2555190  42.7728660  17.7593670  21.0331310
  42.0644810  18.2280010  21.4744920  43.0573140  17.1015680  21.6676500
  46.8044090  14.4844330  22.4727100  46.6811870  14.5030460  21.5236610
  47.7528650  14.5323270  22.5925500  40.9763680  16.0678750  18.4082020
  41.8254210  16.5048900  18.3422210  40.6094950  16.3799010  19.2354080
  51.6051450  15.3958330  29.8752230  51.1025050  16.1363730  30.2146040
  52.4208110  15.7842330  29.5589020  49.8973460  20.6391510  23.3213590
  48.9563600  20.6541740  23.4961280  50.2117530  19.8527470  23.7673890
  38.5701860  19.7536180  17.5650440  38.6505450  18.8063690  17.6767840
  39.4621610  20.0843060  17.6711100  42.4818880  29.0761880  16.4910550
  43.2747490  29.3650710  16.0392340  41.9623230  28.6454050  15.8123030
  51.5349050  28.3032010  17.9147290  51.2490560  27.8897150  17.1001470
  51.3368600  29.2319720  17.7947810  46.2399010  23.3585320  16.9594890
  45.6909110  23.8054620  17.6037630  46.8618270  22.8534570  17.4832560
  44.4201770  21.3413850  16.1037290  44.9407430  20.6262870  15.7378440
  45.0670170  21.9799720  16.4037800  40.5573850  15.2635160  31.7428460
  40.4630720  14.6455910  31.0179330  39.9771240  15.9901450  31.5158370
  43.3235290  13.8208400  28.7755850  42.8752590  13.8432660  27.9301400
  42.6900490  13.4227420  29.3726150  40.8033030  18.3909470  15.8018350
  40.6022090  17.5276830  16.1631690  40.6325080  18.3042830  14.8639950
  48.2821340  13.2017700  18.3305230  48.5623630  12.3585600  18.6864650
  47.5087070  13.4340810  18.8443980  39.6015830  15.4910090  15.7896230
  39.9041730  15.4977520  14.8815380  40.3410420  15.1407950  16.2863890
  42.8200760  14.4344710  16.7752430  42.4722760  13.7568700  16.1954880
  43.0213530  13.9734220  17.5895820  44.9849800  29.4225460  18.3939030
  45.8800590  29.7610430  18.4157790  45.0167430  28.7004870  17.7663310
  53.2045600  25.6946950  16.4374940  52.3738560  25.7623600  16.9082170
  53.3817430  26.5851070  16.1341800  52.6602060  22.4394430  18.9409140
  53.4220970  23.0091080  19.0468830  52.6756430  21.8721630  19.7117450
  53.6662030  23.2944530  23.7851070  54.0370860  22.5111850  23.3787040
  54.3063960  23.9833630  23.6068370  50.6495790  24.6781110  29.1981390
  49.8355630  25.1078270  29.4607180  51.0569990  25.2899520  28.5850440
  52.7121230  22.7328800  16.0981660  52.9870070  23.6407680  15.9700880
  52.5231970  22.6691330  17.0343650  49.1096840  15.7573650  17.3935290
  49.5281720  15.5704630  16.5531950  48.8032900  14.9052700  17.7038220
  52.6086570  20.6697790  21.0911090  52.2330170  19.9025720  20.6592380
  51.8789690  21.0520490  21.5786020  50.4374260  15.0425740  33.5030310
  51.3144440  15.0509140  33.8864310  50.4495100  14.3056580  32.8922660
  35.3744480  18.1731290  19.1142130  34.4708560  18.4361490  18.9393790
  35.8585100  18.4442460  18.3342090  51.8837530  18.8955280  24.3918330
  52.4075010  18.4017930  23.7608500  52.4696950  19.0305640  25.1365900
  52.0627250  18.9795150  27.9137880  51.1129960  18.9458690  28.0282870
  52.2440260  19.8895260  27.6787650  37.9171690  17.2296830  17.0236510
  38.6263390  16.8080050  16.5383790  37.2011630  17.2972060  16.3919860
  37.5645850  13.2836160  16.0639160  38.2873980  13.8245100  16.3820380
  37.8370370  13.0099580  15.1880700  51.3737500  18.1528630  20.3310740
  51.8696620  17.9199500  21.1159620  51.1753570  17.3140470  19.9148380
  37.2538040  12.5342350  25.9661780  37.9014230  11.9839730  25.5256940
  37.6739880  12.7885500  26.7877590  52.8024660  16.7889580  22.8648420
  52.6923940  16.6345620  23.8030690  53.5632250  16.2610520  22.6223830
  51.1490380  12.7283710  29.3231420  51.7862600  13.3417850  29.6890610
  51.2965270  12.7644370  28.3780650  53.6914930  14.6197500  16.1054560
  54.6164240  14.4878680  15.8972850  53.6690720  14.6990320  17.0591010
  53.7653420  15.3908160  18.7311270  52.9704920  15.3253280  19.2604180
  53.9696700  16.3258800  18.7196620  37.0070040  12.6898020  28.7087100
  36.6584860  13.1461840  29.4745280  36.6757740  11.7955150  28.7909530
  44.5194860  13.8809900  32.2306520  44.4583750  14.4731730  32.9801930
  45.4595240  13.7735860  32.0856780  47.1569420  13.5379960  31.8698810
  47.7709830  13.8559250  31.2079890  47.7018980  13.0528550  32.4894670
  37.6790680  12.2174220  31.9837870  38.2273670  12.0362270  31.2203980
  37.7445990  11.4268330  32.5194180  47.8977460  12.1012100  28.1968100
  47.0237300  12.4347210  27.9941030  47.7888210  11.6285280  29.0219970
  48.8049440  14.3082970  29.5809820  48.4762800  13.4934730  29.2011550
  49.7531740  14.2652780  29.4575510  45.6452280  13.0181940  27.1361010
  44.8624070  13.4927440  27.4157770  45.3515210  12.1136770  27.0274190
  50.1973350  13.7205040  25.1810100  50.6381440  13.6650140  24.3331700
  49.9280940  14.6363050  25.2520280  52.0611920  13.3520280  23.1918920
  52.0000320  12.4081500  23.0449940  52.8403950  13.4600370  23.7372380
  36.9892690  13.3229420  19.6574730  37.7472050  13.4358300  19.0838760
  36.5269860  14.1598620  19.6118160  43.5306500  15.4368690  22.6477040
  42.7181010  15.0625580  22.3072920  44.0348140  14.6813770  22.9498230
  48.0331480  12.1011140  23.8860110  48.6360850  12.6731350  24.3608630
  47.2924470  12.6650580  23.6634010  51.1766080  12.5032700  19.1600390
  51.3716710  13.4016150  19.4267820  50.3895950  12.2719780  19.6533340
  39.3617840  13.8493470  18.1976700  39.8910600  13.0623270  18.0684650
  39.9946160  14.5284660  18.4312230  41.5555680  13.5868610  21.2522090
  40.9258420  12.8855920  21.4192220  41.0160820  14.3472740  21.0355250
  41.6811240  12.8652590  33.6874580  41.3995510  13.3686190  32.9235400
  42.0630940  12.0674340  33.3216710  48.2826700  12.2806170  34.2655050
  48.1692150  12.6000780  35.1606570  49.0996440  12.6818680  33.9692330
  47.1884850  20.2998640   4.6289790  47.1078900  19.3853250   4.3581500
  46.7749270  20.7965710   3.9229500  45.3202890  22.0777660   6.5099060
  44.5444990  21.5978100   6.7997630  45.9715820  21.3983310   6.3355220
  39.3368720  22.3897470   7.3874820  38.5053600  22.1346180   7.7871330
  39.9449700  22.4608240   8.1232740  49.3410320  26.4837850   5.2898190
  48.8791850  25.7125090   5.6185360  50.1535870  26.5103920   5.7950640
  39.3169980  26.4237560   7.5832840  39.6198020  25.5335300   7.4043060
  40.0613570  26.9807780   7.3555090  35.7093680  19.9505010   7.0556910
  36.2809790  19.1827210   7.0560550  35.7095220  20.2493770   6.1463520
  45.5673630  28.7695860   4.9102180  44.9485070  29.2253360   4.3396620
  46.4225410  28.9247320   4.5091880  44.7611880  24.7534850   6.5169220
  44.6920160  23.8124790   6.3558350  45.5231740  24.8436260   7.0891790
  36.9518550  15.3589370   8.8425840  36.7721390  14.4615120   9.1228600
  36.5498630  15.9061240   9.5172790  45.7917050  17.5605230   6.7438150
  46.1681870  16.6877110   6.6311820  45.6936560  17.8963930   5.8528590
  39.9222060  15.9330860   2.2055590  40.0288810  16.8334590   2.5124350
  39.0114420  15.8848830   1.9150240  49.5741170  15.0555670   3.6766490
  50.3950790  14.5652240   3.7191970  49.6075250  15.6453330   4.4298330
  37.5705220  17.8549870   7.4508180  38.2515330  18.1188240   8.0695580
  37.2553270  17.0150740   7.7846190  41.7629790  18.9017230   6.5380770
  42.2708010  19.3998200   7.1785790  42.2943030  18.1252430   6.3620130
  53.8640720  17.0722420  10.2410120  53.1592890  17.4604130   9.7225230
  54.1298640  17.7672710  10.8431050  40.0465890  13.5415790  10.8044190
  40.0484330  14.0588180   9.9990090  39.2170200  13.0645970  10.7814120
  46.4336980  23.6535100   2.3034090  45.8154250  24.1184550   1.7396810
  46.9460230  24.3462580   2.7203600  41.2968740  23.1810970   8.9817690
  40.9638120  23.8079890   9.6238760  41.4735420  23.7072850   8.2019360
  49.8102650  16.9956050   6.4494030  49.1058220  17.2840940   7.0297140
  50.1714810  17.8056160   6.0893590  39.7281220  15.2525750   8.8114640
  40.0698030  16.0967800   8.5168510  38.7897030  15.4009490   8.9279980
  40.5087840  25.1491770  10.7966870  41.1261840  25.8242850  10.5151320
  39.6480960  25.5579750  10.7054370  51.4265430  26.6131180   8.7121510
  50.7428950  27.2830290   8.7038180  51.9659720  26.8111830   7.9466370
  52.8789570  16.4410840   6.8403240  51.9314480  16.4749820   6.9718670
  53.2039560  17.2549790   7.2252600  43.4109110  12.7408020   5.1359230
  43.7184090  12.1854910   4.4194730  42.4809810  12.8752480   4.9532220
  48.9624170  28.4575310   7.4266690  48.9751330  28.0537600   6.5588950
  48.4099390  29.2322600   7.3228120  50.2569590  25.1791530   2.5156860
  50.1465920  24.2365860   2.6406280  50.2537840  25.5407170   3.4019620
  48.3609610  23.3605150   8.7549300  48.7778400  23.1465260   7.9202760
  49.0849430  23.6177940   9.3257920  45.7989870  20.8056850   1.8719350
  44.8719150  20.7394230   2.1007820  45.9514690  21.7436980   1.7574590
  52.3071710  21.7592370   8.8465540  51.4790340  21.8285460   8.3715670
  52.9022190  22.3446680   8.3781370  49.8287160  22.3677150   2.3754600
  49.2099580  22.0296700   1.7280900  49.8111610  21.7236910   3.0833790
  49.2713720  18.5461690   9.7920410  48.8584900  19.3715400  10.0460400
  48.5389670  17.9606730   9.5996770  41.4046510  21.3321590   4.6539080
  41.0003510  20.6198840   4.1584980  41.4909630  20.9874830   5.5427120
  41.8728210  25.0189150   6.8178290  41.5756500  24.4134620   6.1386070
  42.8228030  25.0566460   6.7067650  40.1175130  18.1064800   8.4338120
  40.6689720  18.2160140   7.6591370  40.6318640  18.4802400   9.1493350
  49.9613820  28.5921020  10.4801390  49.4844380  29.3993210  10.2874000
  49.2775610  27.9399350  10.6327600  39.7917860  21.6284160  12.0443460
  39.6525630  22.5006960  12.4130860  38.9099220  21.2856970  11.8991400
  46.1147240  26.5460030   3.3508590  46.5543150  27.2884360   2.9363980
  46.0534130  26.7886600   4.2747550  38.1051140  20.2266570   2.1545730
  37.9848740  20.9528660   1.5427000  37.7952030  19.4569480   1.6773640
  53.5413030  28.3532960  15.5492780  54.0172750  28.8315850  16.2281860
  54.1620190  28.2850450  14.8238280  35.7436510  23.3981710   7.9614370
  35.8216930  23.5330480   7.0170090  36.3578190  22.6897600   8.1542490
  36.9884140  25.0981900   4.3720550  36.5812220  25.2396490   3.5174150
  37.8797150  24.8142060   4.1691760  52.9446280  25.5445810  12.7092790
  53.0709340  25.3057690  11.7909970  52.9867660  24.7130350  13.1814870
  46.8063020  29.2473810  11.2787600  47.3207690  29.1581820  12.0810030
  45.9632100  29.5933510  11.5715510  41.2605800  29.3127680   2.4843220
  41.0848280  28.3963220   2.2711020  40.4061540  29.6714970   2.7241020
  48.0493480  28.6679420   3.3418090  48.5050430  27.8868800   3.6556710
  48.3886000  29.3786240   3.8859270  52.7970290  17.5978270  13.6742530
  52.1814560  18.1057940  13.1457990  52.4766710  16.6976600  13.6168470
  35.7996030  24.4395880  10.5008830  35.9627070  23.9701240   9.6828200
  36.2648480  23.9319440  11.1657670  40.5714800  13.5701640   5.5369400
  40.1282950  14.3511180   5.2053920  41.1299790  13.8931530   6.2440340
  44.8584610  16.4370160  11.1404720  44.3963980  16.6453180  11.9524660
  44.4562720  15.6229510  10.8375390  49.8589120  17.6579110  12.2701380
  49.0082710  17.3584860  12.5910450  49.6990910  17.9021120  11.3585200
  46.9538830  19.1580860  14.3700170  47.2792240  18.3244610  14.0302400
  47.7419160  19.6809380  14.5178500  42.6090700  14.1148970   7.3959000
  42.9063030  15.0211800   7.3151020  43.1576260  13.6267750   6.7818570
  40.3629020  18.6935210   3.2650650  40.1369940  18.4772380   4.1697270
  39.5821550  19.1263670   2.9196620  42.8028230  19.5920790  13.9310920
  42.7071830  18.6515520  13.7811320  43.6460210  19.8135860  13.5358990
  46.1991650  17.3362120   3.8944580  46.5921220  17.6534320   3.0813270
  46.5608500  16.4574000   4.0089100  37.9338770  16.0034460  12.0844700
  37.5402160  16.8509670  12.2917480  37.2457170  15.3660830  12.2753340
  44.5083820  16.0869430  15.1541440  43.8182140  15.8941630  15.7887530
  45.2516120  16.3704070  15.6865740  35.2355820  13.9262920   6.1174780
  34.9468870  14.4965780   6.8299760  35.9801580  13.4467370   6.4806010
  46.7846790  19.9267870   7.9895360  46.0527910  20.4354680   8.3385460
  46.3871130  19.1097850   7.6884140  43.2224180  16.6022070   6.3947850
  43.2260240  16.1612020   5.5452390  44.1175300  16.9239400   6.5019670
  39.0726560  16.4848560   5.3542060  38.7326610  16.9623790   6.1109110
  38.3103880  16.0313680   4.9943160  47.2472700  15.3801550   7.4018300
  47.2645440  15.8310200   8.2460150  46.9988280  14.4807190   7.6151740
  50.6743450  12.7933730  13.2404680  50.9989220  12.0623390  13.7662660
  50.7099960  12.4747370  12.3385670  37.3735010  23.8147310  12.6604640
  36.9889800  23.1740980  13.2587600  37.6847200  24.5183430  13.2299370
  43.5232150  20.6623850   8.1413260  43.8902280  20.1882420   8.8874600
  43.3337210  21.5365420   8.4821600  36.3872640  15.4067540   4.2706730
  36.1019560  15.0423210   5.1085350  36.3251500  14.6748000   3.6569870
  41.3131520  19.7032490  10.4597470  41.0088590  20.5824470  10.6847830
  42.2677980  19.7632280  10.4954910  50.6001290  22.9058840   6.8490710
  51.3200410  23.4014130   6.4586820  50.3983110  22.2276730   6.2044580
  45.9820090  22.9767900  12.7359710  45.9157400  22.0563570  12.4817300
  45.3525230  23.0743340  13.4504350  39.8850710  23.5773860   4.6943130
  40.4029380  22.7742120   4.6400020  39.4334730  23.5153000   5.5359960
  37.3695250  20.5435230  11.6068830  37.0110190  21.2089080  12.1942170
  37.0749810  19.7118780  11.9781450  40.5708370  21.0019470  14.4908380
  40.2708510  21.1476650  13.5936200  41.3419610  20.4424760  14.3981770
  45.9136820  25.7988470  12.4863510  45.9281360  24.8669430  12.2682420
  45.2061920  25.8848230  13.1253280  52.1248030  22.4395810  11.8332090
  51.3996220  23.0324590  11.6361480  52.6523490  22.4319350  11.0345460
  47.6547620  24.1655980   5.3315940  48.0071440  23.5684110   4.6717310
  46.7709950  23.8400210   5.5024190  43.7410900  24.9253670   2.7386350
  44.4282030  25.4722880   3.1193940  42.9543320  25.4694400   2.7735960
  43.0438110  21.9299700   2.3511710  43.5000890  22.7404950   2.5771900
  42.6926320  21.6122840   3.1830200  45.3470720  27.4406040   9.5804010
  45.9912940  27.6465420  10.2577430  45.7100160  26.6794440   9.1274860
  38.9449890  12.2737350   2.8234230  38.8164520  12.2655250   3.7719150
  38.1211910  12.6120440   2.4725240  46.6202800  25.4438390   8.2981460
  47.2625030  24.7431550   8.4113630  47.1452150  26.2236830   8.1178350
  48.3940420  26.2433290  11.5017520  48.7296660  26.8299980  12.1795440
  47.4740760  26.1126000  11.7315310  35.9443820  14.0328470  12.2840930
  35.2302340  14.2325390  12.8893540  36.3638860  13.2568040  12.6555730
  36.2316410  28.0208730  13.2707460  36.3407530  27.0803470  13.1302850
  35.5796970  28.2863480  12.6221190  47.4382600  16.5250780  10.0342380
  47.8063420  15.7045990  10.3621950  46.5780800  16.5852670  10.4498030
  42.7728660  17.7593670   2.2587820  42.0644810  18.2280010   2.7001430
  43.0573140  17.1015680   2.8933010  44.3984590  19.1790370  10.2580350
  44.8969840  19.6536190  10.9232200  44.5407540  18.2553890  10.4650380
  46.8044090  14.4844330   3.6983610  46.6811870  14.5030460   2.7493120
  47.7528650  14.5323270   3.8182010  43.8920880  29.7199630   2.9711590
  44.1462380  29.6821020   2.0490960  42.9433360  29.5932960   2.9639840
  51.6051450  15.3958330  11.1008740  51.1025050  16.1363730  11.4402550
  52.4208110  15.7842330  10.7845530  49.8973460  20.6391510   4.5470100
  48.9563600  20.6541740   4.7217790  50.2117530  19.8527470   4.9930400
  51.8999040  27.8100360   6.2224360  52.0246460  28.6331530   6.6948170
  52.7664600  27.5991090   5.8748510  39.3716570  29.9031570   5.8941490
  40.1079050  29.3547030   6.1650060  39.7557490  30.7687580   5.7547480
  36.2562050  25.9705140   1.7683000  35.3301830  26.2126280   1.7588410
  36.7218480  26.7979400   1.6467750  47.2139480  25.1957510  15.0302480
  46.6077640  25.2189110  14.2898230  46.9093590  24.4640550  15.5669730
  48.6439850  28.9237800  13.6411890  49.5961600  28.8395820  13.5912130
  48.4968070  29.5879510  14.3145680  36.0972660  21.5751100  14.0263120
  36.6011680  20.9958380  14.5979350  35.3580080  21.8591330  14.5639490
  43.1510600  22.9822090  13.5598640  42.3856270  23.5507090  13.4753310
  43.3326560  22.6898300  12.6666870  50.2933950  24.7127420  14.1173660
  51.0343420  25.0503180  13.6141120  49.5306630  24.8819480  13.5643430
  38.1295740  19.7180690  14.9213190  38.1701080  19.4194560  15.8298420
  38.9841240  20.1188300  14.7620710  40.0701550  18.2972790  12.8887680
  39.5398010  17.8063740  12.2611020  40.7389620  18.7256990  12.3545610
  48.9679610  22.7642250  12.6528870  49.3820630  22.9187330  13.5019290
  48.0330610  22.8897470  12.8154650  49.4401780  20.1038410  14.6568020
  50.0222550  19.3490730  14.5688500  49.6163550  20.6345850  13.8799500
  40.5573850  15.2635160  12.9684970  40.4630720  14.6455910  12.2435840
  39.9771240  15.9901450  12.7414880  43.3235290  13.8208400  10.0012360
  42.8752590  13.8432660   9.1557910  42.6900490  13.4227420  10.5982660
  43.7294840  22.7162730  10.6224800  44.1482950  23.5595460  10.4501040
  42.8103470  22.8534770  10.3931580  46.0658740  20.4478910  12.0062640
  46.1854950  19.8520050  12.7457480  46.9252740  20.4848600  11.5863940
  48.4046640  21.0016100  10.5825150  47.8781860  21.5258720   9.9790290
  48.7477980  21.6343490  11.2134880  41.5802260  29.0215740  11.7382530
  41.0423350  29.7461800  11.4191230  41.8336220  28.5446080  10.9479870
  42.8327510  16.9900260  13.2638460  43.4227200  16.6816110  13.9516280
  42.0147750  16.5180010  13.4198360  47.6520940  16.6066070  13.4971480
  46.9636460  15.9447610  13.4321470  48.3726960  16.1604340  13.9419940
  44.4364470  30.2566950  11.9969180  44.3623170  31.1602090  12.3041550
  43.5343310  29.9378850  11.9691250  35.8391760  27.5841540   5.3002800
  36.1694770  26.7162600   5.0681440  36.2682760  27.7900060   6.1307760
  40.4353680  25.9150550   2.9604770  40.1349220  25.7915520   3.8608680
  40.3291170  25.0559140   2.5520500  36.3281970  28.4512130   8.0384430
  35.8912960  28.6312930   8.8708580  36.8959650  29.2086750   7.8966150
  51.9644150  27.9529130  12.3261740  51.3646140  28.0121690  11.5825660
  52.0938050  27.0134110  12.4558590  36.1606400  20.9632360   4.3973310
  35.5055240  20.6944000   3.7533010  36.9984350  20.8536840   3.9475290
  53.6662030  23.2944530   5.0107580  54.0370860  22.5111850   4.6043550
  54.3063960  23.9833630   4.8324880  50.6495790  24.6781110  10.4237900
  49.8355630  25.1078270  10.6863690  51.0569990  25.2899520   9.8106950
  52.6086570  20.6697790   2.3167600  52.2330170  19.9025720   1.8848890
  51.8789690  21.0520490   2.8042530  37.1982330  21.3484930   8.9376650
  37.5655370  21.2612330   9.8172670  36.6293150  20.5851480   8.8383510
  51.9986190  19.8169310  11.9507120  51.7672280  19.5882060  11.0505070
  52.2590740  20.7368860  11.9052010  36.7498330  18.2594020  12.8435070
  35.8554380  18.2260780  13.1828780  37.2895880  18.4580810  13.6086320
  50.4374260  15.0425740  14.7286820  51.3144440  15.0509140  15.1120820
  50.4495100  14.3056580  14.1179170  51.8837530  18.8955280   5.6174840
  52.4075010  18.4017930   4.9865010  52.4696950  19.0305640   6.3622410
  52.0627250  18.9795150   9.1394390  51.1129960  18.9458690   9.2539380
  52.2440260  19.8895260   8.9044160  37.2538040  12.5342350   7.1918290
  37.9014230  11.9839730   6.7513450  37.6739880  12.7885500   8.0134100
  52.8024660  16.7889580   4.0904930  52.6923940  16.6345620   5.0287200
  53.5632250  16.2610520   3.8480340  51.1490380  12.7283710  10.5487930
  51.7862600  13.3417850  10.9147120  51.2965270  12.7644370   9.6037160
  50.7071840  29.4299710   3.9506170  51.3030910  29.1084280   3.2740590
  50.9649990  28.9571530   4.7419440  37.0070040  12.6898020   9.9343610
  36.6584860  13.1461840  10.7001790  36.6757740  11.7955150  10.0166040
  42.3140440  27.4177210   9.7006520  42.0731800  27.6851770   8.8137040
  43.2543080  27.5882940   9.7557380  44.5194860  13.8809900  13.4563030
  44.4583750  14.4731730  14.2058440  45.4595240  13.7735860  13.3113290
  47.1569420  13.5379960  13.0955320  47.7709830  13.8559250  12.4336400
  47.7018980  13.0528550  13.7151180  53.5744600  29.4371590  10.5017160
  53.0802880  29.8340460   9.7844290  52.9657890  28.8120800  10.8954440
  37.6790680  12.2174220  13.2094380  38.2273670  12.0362270  12.4460490
  37.7445990  11.4268330  13.7450690  38.4522440  28.8079870  11.2194580
  37.8582760  28.6764570  11.9584620  38.4446280  27.9718010  10.7536680
  47.8977460  12.1012100   9.4224610  47.0237300  12.4347210   9.2197540
  47.7888210  11.6285280  10.2476480  48.8049440  14.3082970  10.8066330
  48.4762800  13.4934730  10.4268060  49.7531740  14.2652780  10.6832020
  51.2584050  30.0795010   7.7803900  50.7987020  30.8310820   7.4061920
  50.6296510  29.3601480   7.7218700  38.0834670  26.1738250  10.1702620
  37.3568730  25.5543540  10.1028570  38.1443820  26.5678860   9.3000700
  41.6879770  28.3883250   6.9552030  42.2044790  27.7770610   6.4300290
  42.3377150  28.8912030   7.4463040  44.4275270  29.2791740   7.7821010
  44.7153080  29.0246040   6.9054020  44.9398490  28.7269100   8.3726580
  45.6452280  13.0181940   8.3617520  44.8624070  13.4927440   8.6414280
  45.3515210  12.1136770   8.2530700  50.1973350  13.7205040   6.4066610
  50.6381440  13.6650140   5.5588210  49.9280940  14.6363050   6.4776790
  52.0611920  13.3520280   4.4175430  52.0000320  12.4081500   4.2706450
  52.8403950  13.4600370   4.9628890  36.3664670  29.4912640   3.3799380
  36.1986710  28.8583320   4.0781270  35.4999180  29.6972040   3.0293570
  43.5306500  15.4368690   3.8733550  42.7181010  15.0625580   3.5329430
  44.0348140  14.6813770   4.1754740  48.0331480  12.1011140   5.1116620
  48.6360850  12.6731350   5.5865140  47.2924470  12.6650580   4.8890520
  41.5555680  13.5868610   2.4778600  40.9258420  12.8855920   2.6448730
  41.0160820  14.3472740   2.2611760  44.4947630  30.2007840  15.1489210
  45.4214940  29.9652110  15.1925170  44.4798060  31.0279840  14.6675240
  52.7292690  29.7433410   2.1463460  52.9044880  29.0571150   1.5024380
  52.0314260  30.2680460   1.7540130  41.6811240  12.8652590  14.9131090
  41.3995510  13.3686190  14.1491910  42.0630940  12.0674340  14.5473220
  48.2826700  12.2806170  15.4911560  48.1692150  12.6000780  16.3863080
  49.0996440  12.6818680  15.1948840  51.0625190  29.4277700  14.9730250
  51.8550510  28.9326930  14.7656210  51.3558340  30.1067840  15.5805860
  45.3202890   3.3034170 100.3816510  44.5444990   2.8234610 100.6715080
  45.9715820   2.6239820 100.2072670  39.3368720   3.6153980 101.2592270
  38.5053600   3.3602690 101.6588780  39.9449700   3.6864750 101.9950190
  49.3410320   7.7094360  99.1615640  48.8791850   6.9381600  99.4902810
  50.1535870   7.7360430  99.6668090  39.3169980   7.6494070 101.4550290
  39.6198020   6.7591810 101.2760510  40.0613570   8.2064290 101.2272540
  45.5673630   9.9952370  98.7819630  44.9485070  10.4509870  98.2114070
  46.4225410  10.1503830  98.3809330  44.7611880   5.9791360 100.3886670
  44.6920160   5.0381300 100.2275800  45.5231740   6.0692770 100.9609240
  46.4336980   4.8791610  96.1751540  45.8154250   5.3441060  95.6114260
  46.9460230   5.5719090  96.5921050  41.2968740   4.4067480 102.8535140
  40.9638120   5.0336400 103.4956210  41.4735420   4.9329360 102.0736810
  40.5087840   6.3748280 104.6684320  41.1261840   7.0499360 104.3868770
  39.6480960   6.7836260 104.5771820  35.8020180   5.5648140  93.5491170
  35.4248160   6.0535240  92.8176070  36.0593250   6.2373420  94.1797700
  51.4265430   7.8387690 102.5838960  50.7428950   8.5086800 102.5755630
  51.9659720   8.0368340 101.8183820  48.9624170   9.6831820 101.2984140
  48.9751330   9.2794110 100.4306400  48.4099390  10.4579110 101.1945570
  50.2569590   6.4048040  96.3874310  50.1465920   5.4622370  96.5123730
  50.2537840   6.7663680  97.2737070  48.3609610   4.5861660 102.6266750
  48.7778400   4.3721770 101.7920210  49.0849430   4.8434450 103.1975370
  45.7989870   2.0313360  95.7436800  44.8719150   1.9650740  95.9725270
  45.9514690   2.9693490  95.6292040  52.3071710   2.9848880 102.7182990
  51.4790340   3.0541970 102.2433120  52.9022190   3.5703190 102.2498820
  49.8287160   3.5933660  96.2472050  49.2099580   3.2553210  95.5998350
  49.8111610   2.9493420  96.9551240  41.4046510   2.5578100  98.5256530
  41.0003510   1.8455350  98.0302430  41.4909630   2.2131340  99.4144570
  41.8728210   6.2445660 100.6895740  41.5756500   5.6391130 100.0103520
  42.8228030   6.2822970 100.5785100  49.9613820   9.8177530 104.3518840
  49.4844380  10.6249720 104.1591450  49.2775610   9.1655860 104.5045050
  48.0051860   2.8320470  93.2544800  48.4445140   1.9942900  93.1082620
  48.7180280   3.4649870  93.3408940  46.1147240   7.7716540  97.2226040
  46.5543150   8.5140870  96.8081430  46.0534130   8.0143110  98.1465000
  35.7436510   4.6238220 101.8331820  35.8216930   4.7586990 100.8887540
  36.3578190   3.9154110 102.0259940  36.9884140   6.3238410  98.2438000
  36.5812220   6.4653000  97.3891600  37.8797150   6.0398570  98.0409210
  48.7817420  10.7585660  94.5789050  48.6218560  10.4688600  95.4770880
  48.6164130   9.9825790  94.0434280  41.2605800  10.5384190  96.3560670
  41.0848280   9.6219730  96.1428470  40.4061540  10.8971480  96.5958470
  48.4843550   8.2673220  93.1387050  47.7908710   8.2650510  92.4789330
  49.2266410   7.8432540  92.7081220  48.0493480   9.8935930  97.2135540
  48.5050430   9.1125310  97.5274160  48.3886000  10.6042750  97.7576720
  39.8413310   5.1349990  94.9281770  39.0675570   4.5947610  94.7680490
  40.5707940   4.6156600  94.5899530  50.6001290   4.1315350 100.7208160
  51.3200410   4.6270640 100.3304270  50.3983110   3.4533240 100.0762030
  39.8850710   4.8030370  98.5660580  40.4029380   3.9998630  98.5117470
  39.4334730   4.7409510  99.4077410  44.7720210   6.0696650  93.8387880
  45.1135910   6.8138880  93.3431200  43.9432920   6.3827770  94.2012710
  52.0761140   8.0627060  95.3561700  51.4337300   7.4082680  95.6305420
  51.6891800   8.4682150  94.5802370  47.6547620   5.3912490  99.2033390
  48.0071440   4.7940620  98.5434760  46.7709950   5.0656720  99.3741640
  43.7410900   6.1510180  96.6103800  44.4282030   6.6979390  96.9911390
  42.9543320   6.6950910  96.6453410  35.8803300   1.7683000  92.1020880
  36.7498150   2.0507800  92.3856800  35.3893620   2.5818870  91.9869690
  43.0438110   3.1556210  96.2229160  43.5000890   3.9661460  96.4489350
  42.6926320   2.8379350  97.0547650  45.3470720   8.6662550 103.4521460
  45.9912940   8.8721930 104.1294880  45.7100160   7.9050950 102.9992310
  46.6202800   6.6694900 102.1698910  47.2625030   5.9688060 102.2831080
  47.1452150   7.4493340 101.9895800  50.4658520   6.9543520  91.8938050
  50.2396100   6.2373960  92.4862690  50.0754720   6.7055960  91.0559800
  36.2474550  10.9810380  92.6682510  36.6072190  11.5799720  92.0139780
  36.1066890  11.5270270  93.4417540  50.0474770   4.8715460  93.5552210
  49.7596470   5.3328150  94.3430090  50.8426940   4.4113230  93.8236430
  42.2643170   8.3641580  93.4856180  42.2553270   9.0971270  92.8700690
  41.3441530   8.1173160  93.5783140  37.8649810   3.5856470  94.2302940
  37.2577760   4.3255370  94.2398240  38.3399160   3.6755830  93.4041140
  45.2502770   8.4269820  92.1481370  45.3514750   8.2233810  91.2183350
  44.3504510   8.1728100  92.3529150  43.8920880  10.9456140  96.8429040
  44.1462380  10.9077530  95.9208410  42.9433360  10.8189470  96.8357290
  39.8755100   3.5467620  91.9791510  40.6418370   3.4348980  92.5416940
  39.9529790   2.8505590  91.3268280  51.8999040   9.0356870 100.0941810
  52.0246460   9.8588040 100.5665620  52.7664600   8.8247600  99.7465960
  39.3716570  11.1288080  99.7658940  40.1079050  10.5803540 100.0367510
  39.7557490  11.9944090  99.6264930  36.2562050   7.1961650  95.6400450
  35.3301830   7.4382790  95.6305860  36.7218480   8.0235910  95.5185200
  42.4818880  10.3018390  91.5884510  43.2747490  10.5907220  91.1366300
  41.9623230   9.8710560  90.9096990  51.5349050   9.5288520  93.0121250
  51.2490560   9.1153660  92.1975430  51.3368600  10.4576230  92.8921770
  42.9996280   5.5221800  91.4526860  42.8946920   4.9074150  92.1788240
  42.8320500   4.9987690  90.6689870  46.2399010   4.5841830  92.0568850
  45.6909110   5.0311130  92.7011590  46.8618270   4.0791080  92.5806520
  41.9074130   3.5432750  93.9534150  42.3290550   3.3772620  94.7965540
  42.0324970   2.7332980  93.4589290  44.4201770   2.5670360  91.2011250
  44.9407430   1.8519380  90.8352400  45.0670170   3.2056230  91.5011760
  43.7294840   3.9419240 104.4942250  44.1482950   4.7851970 104.3218490
  42.8103470   4.0791280 104.2649030  44.9849800  10.6481970  93.4912990
  45.8800590  10.9866940  93.5131750  45.0167430   9.9261380  92.8637270
  38.6245960   6.0209020  91.7199990  39.0620830   6.5638690  92.3757570
  39.1093690   5.1955970  91.7296330  35.8391760   8.8098050  99.1720250
  36.1694770   7.9419110  98.9398890  36.2682760   9.0156570 100.0025210
  40.4353680   7.1407060  96.8322220  40.1349220   7.0172030  97.7326130
  40.3291170   6.2815650  96.4237950  36.3281970   9.6768640 101.9101880
  35.8912960   9.8569440 102.7426030  36.8959650  10.4343260 101.7683600
  53.2045600   6.9203460  91.5348900  52.3738560   6.9880110  92.0056130
  53.3817430   7.8107580  91.2315760  52.6602060   3.6650940  94.0383100
  53.4220970   4.2347590  94.1442790  52.6756430   3.0978140  94.8091410
  36.1606400   2.1888870  98.2690760  35.5055240   1.9200510  97.6250460
  36.9984350   2.0793350  97.8192740  53.6662030   4.5201040  98.8825030
  54.0370860   3.7368360  98.4761000  54.3063960   5.2090140  98.7042330
  50.6495790   5.9037620 104.2955350  49.8355630   6.3334780 104.5581140
  51.0569990   6.5156030 103.6824400  52.7121230   3.9585310  91.1955620
  52.9870070   4.8664190  91.0674840  52.5231970   3.8947840  92.1317610
  37.1982330   2.5741440 102.8094100  37.5655370   2.4868840 103.6890120
  36.6293150   1.8107990 102.7100960  50.7071840  10.6556220  97.8223620
  51.3030910  10.3340790  97.1458040  50.9649990  10.1828040  98.6136890
  42.3140440   8.6433720 103.5723970  42.0731800   8.9108280 102.6854490
  43.2543080   8.8139450 103.6274830  53.5744600  10.6628100 104.3734610
  53.0802880  11.0596970 103.6561740  52.9657890  10.0377310 104.7671890
  51.2584050  11.3051520 101.6521350  50.7987020  12.0567330 101.2779370
  50.6296510  10.5857990 101.5936150  38.0834670   7.3994760 104.0420070
  37.3568730   6.7800050 103.9746020  38.1443820   7.7935370 103.1718150
  41.6879770   9.6139760 100.8269480  42.2044790   9.0027120 100.3017740
  42.3377150  10.1168540 101.3180490  44.4275270  10.5048250 101.6538460
  44.7153080  10.2502550 100.7771470  44.9398490   9.9525610 102.2444030
  36.3664670  10.7169150  97.2516830  36.1986710  10.0839830  97.9498720
  35.4999180  10.9228550  96.9011020  37.9727370   9.4102380  94.6966970
  37.4474990   9.7910410  93.9928930  37.8971950  10.0353150  95.4176680
  52.7292690  10.9689920  96.0180910  52.9044880  10.2827660  95.3741830
  52.0314260  11.4936970  95.6257580  40.5720340  11.3584760  93.5716220
  41.3039160  11.0744040  93.0240110  40.8314010  11.1198040  94.4615600
  39.7335130   7.4749490  93.5762550  39.1044010   7.9434590  94.1248380
  39.8482960   6.6298710  94.0108740  45.3202890   3.3034170  81.6073020
  44.5444990   2.8234610  81.8971590  45.9715820   2.6239820  81.4329180
  39.3368720   3.6153980  82.4848780  38.5053600   3.3602690  82.8845290
  39.9449700   3.6864750  83.2206700  49.3410320   7.7094360  80.3872150
  48.8791850   6.9381600  80.7159320  50.1535870   7.7360430  80.8924600
  39.3169980   7.6494070  82.6806800  39.6198020   6.7591810  82.5017020
  40.0613570   8.2064290  82.4529050  45.5673630   9.9952370  80.0076140
  44.9485070  10.4509870  79.4370580  46.4225410  10.1503830  79.6065840
  44.7611880   5.9791360  81.6143180  44.6920160   5.0381300  81.4532310
  45.5231740   6.0692770  82.1865750  46.4336980   4.8791610  77.4008050
  45.8154250   5.3441060  76.8370770  46.9460230   5.5719090  77.8177560
  41.2968740   4.4067480  84.0791650  40.9638120   5.0336400  84.7212720
  41.4735420   4.9329360  83.2993320  40.5087840   6.3748280  85.8940830
  41.1261840   7.0499360  85.6125280  39.6480960   6.7836260  85.8028330
  35.8020180   5.5648140  74.7747680  35.4248160   6.0535240  74.0432580
  36.0593250   6.2373420  75.4054210  51.4265430   7.8387690  83.8095470
  50.7428950   8.5086800  83.8012140  51.9659720   8.0368340  83.0440330
  48.9624170   9.6831820  82.5240650  48.9751330   9.2794110  81.6562910
  48.4099390  10.4579110  82.4202080  50.2569590   6.4048040  77.6130820
  50.1465920   5.4622370  77.7380240  50.2537840   6.7663680  78.4993580
  48.3609610   4.5861660  83.8523260  48.7778400   4.3721770  83.0176720
  49.0849430   4.8434450  84.4231880  45.7989870   2.0313360  76.9693310
  44.8719150   1.9650740  77.1981780  45.9514690   2.9693490  76.8548550
  52.3071710   2.9848880  83.9439500  51.4790340   3.0541970  83.4689630
  52.9022190   3.5703190  83.4755330  49.8287160   3.5933660  77.4728560
  49.2099580   3.2553210  76.8254860  49.8111610   2.9493420  78.1807750
  41.4046510   2.5578100  79.7513040  41.0003510   1.8455350  79.2558940
  41.4909630   2.2131340  80.6401080  41.8728210   6.2445660  81.9152250
  41.5756500   5.6391130  81.2360030  42.8228030   6.2822970  81.8041610
  49.9613820   9.8177530  85.5775350  49.4844380  10.6249720  85.3847960
  49.2775610   9.1655860  85.7301560  40.9646640   5.9827350  88.5660050
  40.0675170   6.2067320  88.8133450  40.9899510   6.1062290  87.6171450
  48.0051860   2.8320470  74.4801310  48.4445140   1.9942900  74.3339130
  48.7180280   3.4649870  74.5665450  39.7917860   2.8540670  87.1417420
  39.6525630   3.7263470  87.5104820  38.9099220   2.5113480  86.9965360
  46.1147240   7.7716540  78.4482550  46.5543150   8.5140870  78.0337940
  46.0534130   8.0143110  79.3721510  41.5898210   8.7962370  89.3502570
  41.5613640   9.2005320  88.4831000  41.4263180   7.8672730  89.1874170
  53.5413030   9.5789470  90.6466740  54.0172750  10.0572360  91.3255820
  54.1620190   9.5106960  89.9212240  35.7436510   4.6238220  83.0588330
  35.8216930   4.7586990  82.1144050  36.3578190   3.9154110  83.2516450
  36.9884140   6.3238410  79.4694510  36.5812220   6.4653000  78.6148110
  37.8797150   6.0398570  79.2665720  52.9446280   6.7702320  87.8066750
  53.0709340   6.5314200  86.8883930  52.9867660   5.9386860  88.2788830
  46.8063020  10.4730320  86.3761560  47.3207690  10.3838330  87.1783990
  45.9632100  10.8190020  86.6689470  48.7817420  10.7585660  75.8045560
  48.6218560  10.4688600  76.7027390  48.6164130   9.9825790  75.2690790
  41.2605800  10.5384190  77.5817180  41.0848280   9.6219730  77.3684980
  40.4061540  10.8971480  77.8214980  48.4843550   8.2673220  74.3643560
  47.7908710   8.2650510  73.7045840  49.2266410   7.8432540  73.9337730
  48.0493480   9.8935930  78.4392050  48.5050430   9.1125310  78.7530670
  48.3886000  10.6042750  78.9833230  35.7996030   5.6652390  85.5982790
  35.9627070   5.1957750  84.7802160  36.2648480   5.1575950  86.2631630
  37.3735010   5.0403820  87.7578600  36.9889800   4.3997490  88.3561560
  37.6847200   5.7439940  88.3273330  39.8413310   5.1349990  76.1538280
  39.0675570   4.5947610  75.9937000  40.5707940   4.6156600  75.8156040
  50.6001290   4.1315350  81.9464670  51.3200410   4.6270640  81.5560780
  50.3983110   3.4533240  81.3018540  45.9820090   4.2024410  87.8333670
  45.9157400   3.2820080  87.5791260  45.3525230   4.2999850  88.5478310
  39.8850710   4.8030370  79.7917090  40.4029380   3.9998630  79.7373980
  39.4334730   4.7409510  80.6333920  44.7720210   6.0696650  75.0644390
  45.1135910   6.8138880  74.5687710  43.9432920   6.3827770  75.4269220
  40.5708370   2.2275980  89.5882340  40.2708510   2.3733160  88.6910160
  41.3419610   1.6681270  89.4955730  45.9136820   7.0244980  87.5837470
  45.9281360   6.0925940  87.3656380  45.2061920   7.1104740  88.2227240
  52.1248030   3.6652320  86.9306050  51.3996220   4.2581100  86.7335440
  52.6523490   3.6575860  86.1319420  52.0761140   8.0627060  76.5818210
  51.4337300   7.4082680  76.8561930  51.6891800   8.4682150  75.8058880
  47.6547620   5.3912490  80.4289900  48.0071440   4.7940620  79.7691270
  46.7709950   5.0656720  80.5998150  43.7410900   6.1510180  77.8360310
  44.4282030   6.6979390  78.2167900  42.9543320   6.6950910  77.8709920
  35.8803300   1.7683000  73.3277390  36.7498150   2.0507800  73.6113310
  35.3893620   2.5818870  73.2126200  43.0438110   3.1556210  77.4485670
  43.5000890   3.9661460  77.6745860  42.6926320   2.8379350  78.2804160
  45.3470720   8.6662550  84.6777970  45.9912940   8.8721930  85.3551390
  45.7100160   7.9050950  84.2248820  46.6202800   6.6694900  83.3955420
  47.2625030   5.9688060  83.5087590  47.1452150   7.4493340  83.2152310
  50.4658520   6.9543520  73.1194560  50.2396100   6.2373960  73.7119200
  50.0754720   6.7055960  72.2816310  48.3940420   7.4689800  86.5991480
  48.7296660   8.0556490  87.2769400  47.4740760   7.3382510  86.8289270
  36.2474550  10.9810380  73.8939020  36.6072190  11.5799720  73.2396290
  36.1066890  11.5270270  74.6674050  50.0474770   4.8715460  74.7808720
  49.7596470   5.3328150  75.5686600  50.8426940   4.4113230  75.0492940
  36.2316410   9.2465240  88.3681420  36.3407530   8.3059980  88.2276810
  35.5796970   9.5119990  87.7195150  44.2229000   7.5181130  89.7679540
  43.9025870   6.7990370  90.3125230  43.5487360   8.1936200  89.8415600
  42.2643170   8.3641580  74.7112690  42.2553270   9.0971270  74.0957200
  41.3441530   8.1173160  74.8039650  37.8649810   3.5856470  75.4559450
  37.2577760   4.3255370  75.4654750  38.3399160   3.6755830  74.6297650
  45.2502770   8.4269820  73.3737880  45.3514750   8.2233810  72.4439860
  44.3504510   8.1728100  73.5785660  43.8920880  10.9456140  78.0685550
  44.1462380  10.9077530  77.1464920  42.9433360  10.8189470  78.0613800
  39.8755100   3.5467620  73.2048020  40.6418370   3.4348980  73.7673450
  39.9529790   2.8505590  72.5524790  51.8999040   9.0356870  81.3198320
  52.0246460   9.8588040  81.7922130  52.7664600   8.8247600  80.9722470
  39.3716570  11.1288080  80.9915450  40.1079050  10.5803540  81.2624020
  39.7557490  11.9944090  80.8521440  36.2562050   7.1961650  76.8656960
  35.3301830   7.4382790  76.8562370  36.7218480   8.0235910  76.7441710
  38.3774850  10.3134150  90.1801030  39.1787580  10.6346200  90.5936430
  37.8626670   9.9529730  90.9020940  42.4818880  10.3018390  72.8141020
  43.2747490  10.5907220  72.3622810  41.9623230   9.8710560  72.1353500
  47.2139480   6.4214020  90.1276440  46.6077640   6.4445620  89.3872190
  46.9093590   5.6897060  90.6643690  48.6439850  10.1494310  88.7385850
  49.5961600  10.0652330  88.6886090  48.4968070  10.8136020  89.4119640
  51.5349050   9.5288520  74.2377760  51.2490560   9.1153660  73.4231940
  51.3368600  10.4576230  74.1178280  36.0972660   2.8007610  89.1237080
  36.6011680   2.2214890  89.6953310  35.3580080   3.0847840  89.6613450
  42.9996280   5.5221800  72.6783370  42.8946920   4.9074150  73.4044750
  42.8320500   4.9987690  71.8946380  43.1510600   4.2078600  88.6572600
  42.3856270   4.7763600  88.5727270  43.3326560   3.9154810  87.7640830
  46.2399010   4.5841830  73.2825360  45.6909110   5.0311130  73.9268100
  46.8618270   4.0791080  73.8063030  50.2933950   5.9383930  89.2147620
  51.0343420   6.2759690  88.7115080  49.5306630   6.1075990  88.6617390
  41.9074130   3.5432750  75.1790660  42.3290550   3.3772620  76.0222050
  42.0324970   2.7332980  74.6845800  44.4201770   2.5670360  72.4267760
  44.9407430   1.8519380  72.0608910  45.0670170   3.2056230  72.7268270
  48.9679610   3.9898760  87.7502830  49.3820630   4.1443840  88.5993250
  48.0330610   4.1153980  87.9128610  43.7294840   3.9419240  85.7198760
  44.1482950   4.7851970  85.5475000  42.8103470   4.0791280  85.4905540
  48.4046640   2.2272610  85.6799110  47.8781860   2.7515230  85.0764250
  48.7477980   2.8600000  86.3108840  41.5802260  10.2472250  86.8356490
  41.0423350  10.9718310  86.5165190  41.8336220   9.7702590  86.0453830
  44.4364470  11.4823460  87.0943140  44.3623170  12.3858600  87.4015510
  43.5343310  11.1635360  87.0665210  44.9849800  10.6481970  74.7169500
  45.8800590  10.9866940  74.7388260  45.0167430   9.9261380  74.0893780
  38.6245960   6.0209020  72.9456500  39.0620830   6.5638690  73.6014080
  39.1093690   5.1955970  72.9552840  35.8391760   8.8098050  80.3976760
  36.1694770   7.9419110  80.1655400  36.2682760   9.0156570  81.2281720
  40.4353680   7.1407060  78.0578730  40.1349220   7.0172030  78.9582640
  40.3291170   6.2815650  77.6494460  36.3281970   9.6768640  83.1358390
  35.8912960   9.8569440  83.9682540  36.8959650  10.4343260  82.9940110
  51.9644150   9.1785640  87.4235700  51.3646140   9.2378200  86.6799620
  52.0938050   8.2390620  87.5532550  53.2045600   6.9203460  72.7605410
  52.3738560   6.9880110  73.2312640  53.3817430   7.8107580  72.4572270
  52.6602060   3.6650940  75.2639610  53.4220970   4.2347590  75.3699300
  52.6756430   3.0978140  76.0347920  36.1606400   2.1888870  79.4947270
  35.5055240   1.9200510  78.8506970  36.9984350   2.0793350  79.0449250
  53.6662030   4.5201040  80.1081540  54.0370860   3.7368360  79.7017510
  54.3063960   5.2090140  79.9298840  50.6495790   5.9037620  85.5211860
  49.8355630   6.3334780  85.7837650  51.0569990   6.5156030  84.9080910
  52.7121230   3.9585310  72.4212130  52.9870070   4.8664190  72.2931350
  52.5231970   3.8947840  73.3574120  37.1982330   2.5741440  84.0350610
  37.5655370   2.4868840  84.9146630  36.6293150   1.8107990  83.9357470
  50.7071840  10.6556220  79.0480130  51.3030910  10.3340790  78.3714550
  50.9649990  10.1828040  79.8393400  38.6134410   7.0874130  89.1970760
  38.5704040   6.7167040  90.0785220  38.7445420   8.0251700  89.3372580
  42.3140440   8.6433720  84.7980480  42.0731800   8.9108280  83.9111000
  43.2543080   8.8139450  84.8531340  53.5744600  10.6628100  85.5991120
  53.0802880  11.0596970  84.8818250  52.9657890  10.0377310  85.9928400
  38.4522440  10.0336380  86.3168540  37.8582760   9.9021080  87.0558580
  38.4446280   9.1974520  85.8510640  51.2584050  11.3051520  82.8777860
  50.7987020  12.0567330  82.5035880  50.6296510  10.5857990  82.8192660
  38.0834670   7.3994760  85.2676580  37.3568730   6.7800050  85.2002530
  38.1443820   7.7935370  84.3974660  41.6879770   9.6139760  82.0525990
  42.2044790   9.0027120  81.5274250  42.3377150  10.1168540  82.5437000
  44.4275270  10.5048250  82.8794970  44.7153080  10.2502550  82.0027980
  44.9398490   9.9525610  83.4700540  36.3664670  10.7169150  78.4773340
  36.1986710  10.0839830  79.1755230  35.4999180  10.9228550  78.1267530
  37.9727370   9.4102380  75.9223480  37.4474990   9.7910410  75.2185440
  37.8971950  10.0353150  76.6433190  44.4947630  11.4264350  90.2463170
  45.4214940  11.1908620  90.2899130  44.4798060  12.2536350  89.7649200
  52.7292690  10.9689920  77.2437420  52.9044880  10.2827660  76.5998340
  52.0314260  11.4936970  76.8514090  40.5720340  11.3584760  74.7972730
  41.3039160  11.0744040  74.2496620  40.8314010  11.1198040  75.6872110
  39.7335130   7.4749490  74.8019060  39.1044010   7.9434590  75.3504890
  39.8482960   6.6298710  75.2365250  51.0625190  10.6534210  90.0704210
  51.8550510  10.1583440  89.8630170  51.3558340  11.3324350  90.6779820
  45.3202890   3.3034170  62.8329530  44.5444990   2.8234610  63.1228100
  45.9715820   2.6239820  62.6585690  39.3368720   3.6153980  63.7105290
  38.5053600   3.3602690  64.1101800  39.9449700   3.6864750  64.4463210
  49.3410320   7.7094360  61.6128660  48.8791850   6.9381600  61.9415830
  50.1535870   7.7360430  62.1181110  39.3169980   7.6494070  63.9063310
  39.6198020   6.7591810  63.7273530  40.0613570   8.2064290  63.6785560
  45.5673630   9.9952370  61.2332650  44.9485070  10.4509870  60.6627090
  46.4225410  10.1503830  60.8322350  44.7611880   5.9791360  62.8399690
  44.6920160   5.0381300  62.6788820  45.5231740   6.0692770  63.4122260
  46.4336980   4.8791610  58.6264560  45.8154250   5.3441060  58.0627280
  46.9460230   5.5719090  59.0434070  41.2968740   4.4067480  65.3048160
  40.9638120   5.0336400  65.9469230  41.4735420   4.9329360  64.5249830
  40.5087840   6.3748280  67.1197340  41.1261840   7.0499360  66.8381790
  39.6480960   6.7836260  67.0284840  35.8020180   5.5648140  56.0004190
  35.4248160   6.0535240  55.2689090  36.0593250   6.2373420  56.6310720
  51.4265430   7.8387690  65.0351980  50.7428950   8.5086800  65.0268650
  51.9659720   8.0368340  64.2696840  48.9624170   9.6831820  63.7497160
  48.9751330   9.2794110  62.8819420  48.4099390  10.4579110  63.6458590
  50.2569590   6.4048040  58.8387330  50.1465920   5.4622370  58.9636750
  50.2537840   6.7663680  59.7250090  48.3609610   4.5861660  65.0779770
  48.7778400   4.3721770  64.2433230  49.0849430   4.8434450  65.6488390
  45.7989870   2.0313360  58.1949820  44.8719150   1.9650740  58.4238290
  45.9514690   2.9693490  58.0805060  52.3071710   2.9848880  65.1696010
  51.4790340   3.0541970  64.6946140  52.9022190   3.5703190  64.7011840
  49.8287160   3.5933660  58.6985070  49.2099580   3.2553210  58.0511370
  49.8111610   2.9493420  59.4064260  41.4046510   2.5578100  60.9769550
  41.0003510   1.8455350  60.4815450  41.4909630   2.2131340  61.8657590
  41.8728210   6.2445660  63.1408760  41.5756500   5.6391130  62.4616540
  42.8228030   6.2822970  63.0298120  49.9613820   9.8177530  66.8031860
  49.4844380  10.6249720  66.6104470  49.2775610   9.1655860  66.9558070
  40.9646640   5.9827350  69.7916560  40.0675170   6.2067320  70.0389960
  40.9899510   6.1062290  68.8427960  48.0051860   2.8320470  55.7057820
  48.4445140   1.9942900  55.5595640  48.7180280   3.4649870  55.7921960
  39.7917860   2.8540670  68.3673930  39.6525630   3.7263470  68.7361330
  38.9099220   2.5113480  68.2221870  46.1147240   7.7716540  59.6739060
  46.5543150   8.5140870  59.2594450  46.0534130   8.0143110  60.5978020
  41.5898210   8.7962370  70.5759080  41.5613640   9.2005320  69.7087510
  41.4263180   7.8672730  70.4130680  53.5413030   9.5789470  71.8723250
  54.0172750  10.0572360  72.5512330  54.1620190   9.5106960  71.1468750
  35.7436510   4.6238220  64.2844840  35.8216930   4.7586990  63.3400560
  36.3578190   3.9154110  64.4772960  36.9884140   6.3238410  60.6951020
  36.5812220   6.4653000  59.8404620  37.8797150   6.0398570  60.4922230
  52.9446280   6.7702320  69.0323260  53.0709340   6.5314200  68.1140440
  52.9867660   5.9386860  69.5045340  46.8063020  10.4730320  67.6018070
  47.3207690  10.3838330  68.4040500  45.9632100  10.8190020  67.8945980
  48.7817420  10.7585660  57.0302070  48.6218560  10.4688600  57.9283900
  48.6164130   9.9825790  56.4947300  41.2605800  10.5384190  58.8073690
  41.0848280   9.6219730  58.5941490  40.4061540  10.8971480  59.0471490
  48.4843550   8.2673220  55.5900070  47.7908710   8.2650510  54.9302350
  49.2266410   7.8432540  55.1594240  48.0493480   9.8935930  59.6648560
  48.5050430   9.1125310  59.9787180  48.3886000  10.6042750  60.2089740
  35.7996030   5.6652390  66.8239300  35.9627070   5.1957750  66.0058670
  36.2648480   5.1575950  67.4888140  37.3735010   5.0403820  68.9835110
  36.9889800   4.3997490  69.5818070  37.6847200   5.7439940  69.5529840
  39.8413310   5.1349990  57.3794790  39.0675570   4.5947610  57.2193510
  40.5707940   4.6156600  57.0412550  50.6001290   4.1315350  63.1721180
  51.3200410   4.6270640  62.7817290  50.3983110   3.4533240  62.5275050
  45.9820090   4.2024410  69.0590180  45.9157400   3.2820080  68.8047770
  45.3525230   4.2999850  69.7734820  39.8850710   4.8030370  61.0173600
  40.4029380   3.9998630  60.9630490  39.4334730   4.7409510  61.8590430
  44.7720210   6.0696650  56.2900900  45.1135910   6.8138880  55.7944220
  43.9432920   6.3827770  56.6525730  40.5708370   2.2275980  70.8138850
  40.2708510   2.3733160  69.9166670  41.3419610   1.6681270  70.7212240
  45.9136820   7.0244980  68.8093980  45.9281360   6.0925940  68.5912890
  45.2061920   7.1104740  69.4483750  52.1248030   3.6652320  68.1562560
  51.3996220   4.2581100  67.9591950  52.6523490   3.6575860  67.3575930
  52.0761140   8.0627060  57.8074720  51.4337300   7.4082680  58.0818440
  51.6891800   8.4682150  57.0315390  47.6547620   5.3912490  61.6546410
  48.0071440   4.7940620  60.9947780  46.7709950   5.0656720  61.8254660
  43.7410900   6.1510180  59.0616820  44.4282030   6.6979390  59.4424410
  42.9543320   6.6950910  59.0966430  35.8803300   1.7683000  54.5533900
  36.7498150   2.0507800  54.8369820  35.3893620   2.5818870  54.4382710
  43.0438110   3.1556210  58.6742180  43.5000890   3.9661460  58.9002370
  42.6926320   2.8379350  59.5060670  45.3470720   8.6662550  65.9034480
  45.9912940   8.8721930  66.5807900  45.7100160   7.9050950  65.4505330
  46.6202800   6.6694900  64.6211930  47.2625030   5.9688060  64.7344100
  47.1452150   7.4493340  64.4408820  50.4658520   6.9543520  54.3451070
  50.2396100   6.2373960  54.9375710  50.0754720   6.7055960  53.5072820
  48.3940420   7.4689800  67.8247990  48.7296660   8.0556490  68.5025910
  47.4740760   7.3382510  68.0545780  36.2474550  10.9810380  55.1195530
  36.6072190  11.5799720  54.4652800  36.1066890  11.5270270  55.8930560
  50.0474770   4.8715460  56.0065230  49.7596470   5.3328150  56.7943110
  50.8426940   4.4113230  56.2749450  36.2316410   9.2465240  69.5937930
  36.3407530   8.3059980  69.4533320  35.5796970   9.5119990  68.9451660
  44.2229000   7.5181130  70.9936050  43.9025870   6.7990370  71.5381740
  43.5487360   8.1936200  71.0672110  42.2643170   8.3641580  55.9369200
  42.2553270   9.0971270  55.3213710  41.3441530   8.1173160  56.0296160
  37.8649810   3.5856470  56.6815960  37.2577760   4.3255370  56.6911260
  38.3399160   3.6755830  55.8554160  45.2502770   8.4269820  54.5994390
  45.3514750   8.2233810  53.6696370  44.3504510   8.1728100  54.8042170
  43.8920880  10.9456140  59.2942060  44.1462380  10.9077530  58.3721430
  42.9433360  10.8189470  59.2870310  39.8755100   3.5467620  54.4304530
  40.6418370   3.4348980  54.9929960  39.9529790   2.8505590  53.7781300
  51.8999040   9.0356870  62.5454830  52.0246460   9.8588040  63.0178640
  52.7664600   8.8247600  62.1978980  39.3716570  11.1288080  62.2171960
  40.1079050  10.5803540  62.4880530  39.7557490  11.9944090  62.0777950
  36.2562050   7.1961650  58.0913470  35.3301830   7.4382790  58.0818880
  36.7218480   8.0235910  57.9698220  38.3774850  10.3134150  71.4057540
  39.1787580  10.6346200  71.8192940  37.8626670   9.9529730  72.1277450
  42.4818880  10.3018390  54.0397530  43.2747490  10.5907220  53.5879320
  41.9623230   9.8710560  53.3610010  47.2139480   6.4214020  71.3532950
  46.6077640   6.4445620  70.6128700  46.9093590   5.6897060  71.8900200
  48.6439850  10.1494310  69.9642360  49.5961600  10.0652330  69.9142600
  48.4968070  10.8136020  70.6376150  51.5349050   9.5288520  55.4634270
  51.2490560   9.1153660  54.6488450  51.3368600  10.4576230  55.3434790
  36.0972660   2.8007610  70.3493590  36.6011680   2.2214890  70.9209820
  35.3580080   3.0847840  70.8869960  42.9996280   5.5221800  53.9039880
  42.8946920   4.9074150  54.6301260  42.8320500   4.9987690  53.1202890
  43.1510600   4.2078600  69.8829110  42.3856270   4.7763600  69.7983780
  43.3326560   3.9154810  68.9897340  46.2399010   4.5841830  54.5081870
  45.6909110   5.0311130  55.1524610  46.8618270   4.0791080  55.0319540
  50.2933950   5.9383930  70.4404130  51.0343420   6.2759690  69.9371590
  49.5306630   6.1075990  69.8873900  41.9074130   3.5432750  56.4047170
  42.3290550   3.3772620  57.2478560  42.0324970   2.7332980  55.9102310
  44.4201770   2.5670360  53.6524270  44.9407430   1.8519380  53.2865420
  45.0670170   3.2056230  53.9524780  48.9679610   3.9898760  68.9759340
  49.3820630   4.1443840  69.8249760  48.0330610   4.1153980  69.1385120
  43.7294840   3.9419240  66.9455270  44.1482950   4.7851970  66.7731510
  42.8103470   4.0791280  66.7162050  48.4046640   2.2272610  66.9055620
  47.8781860   2.7515230  66.3020760  48.7477980   2.8600000  67.5365350
  41.5802260  10.2472250  68.0613000  41.0423350  10.9718310  67.7421700
  41.8336220   9.7702590  67.2710340  44.4364470  11.4823460  68.3199650
  44.3623170  12.3858600  68.6272020  43.5343310  11.1635360  68.2921720
  44.9849800  10.6481970  55.9426010  45.8800590  10.9866940  55.9644770
  45.0167430   9.9261380  55.3150290  38.6245960   6.0209020  54.1713010
  39.0620830   6.5638690  54.8270590  39.1093690   5.1955970  54.1809350
  35.8391760   8.8098050  61.6233270  36.1694770   7.9419110  61.3911910
  36.2682760   9.0156570  62.4538230  40.4353680   7.1407060  59.2835240
  40.1349220   7.0172030  60.1839150  40.3291170   6.2815650  58.8750970
  36.3281970   9.6768640  64.3614900  35.8912960   9.8569440  65.1939050
  36.8959650  10.4343260  64.2196620  51.9644150   9.1785640  68.6492210
  51.3646140   9.2378200  67.9056130  52.0938050   8.2390620  68.7789060
  53.2045600   6.9203460  53.9861920  52.3738560   6.9880110  54.4569150
  53.3817430   7.8107580  53.6828780  52.6602060   3.6650940  56.4896120
  53.4220970   4.2347590  56.5955810  52.6756430   3.0978140  57.2604430
  36.1606400   2.1888870  60.7203780  35.5055240   1.9200510  60.0763480
  36.9984350   2.0793350  60.2705760  53.6662030   4.5201040  61.3338050
  54.0370860   3.7368360  60.9274020  54.3063960   5.2090140  61.1555350
  50.6495790   5.9037620  66.7468370  49.8355630   6.3334780  67.0094160
  51.0569990   6.5156030  66.1337420  52.7121230   3.9585310  53.6468640
  52.9870070   4.8664190  53.5187860  52.5231970   3.8947840  54.5830630
  37.1982330   2.5741440  65.2607120  37.5655370   2.4868840  66.1403140
  36.6293150   1.8107990  65.1613980  50.7071840  10.6556220  60.2736640
  51.3030910  10.3340790  59.5971060  50.9649990  10.1828040  61.0649910
  38.6134410   7.0874130  70.4227270  38.5704040   6.7167040  71.3041730
  38.7445420   8.0251700  70.5629090  42.3140440   8.6433720  66.0236990
  42.0731800   8.9108280  65.1367510  43.2543080   8.8139450  66.0787850
  53.5744600  10.6628100  66.8247630  53.0802880  11.0596970  66.1074760
  52.9657890  10.0377310  67.2184910  38.4522440  10.0336380  67.5425050
  37.8582760   9.9021080  68.2815090  38.4446280   9.1974520  67.0767150
  51.2584050  11.3051520  64.1034370  50.7987020  12.0567330  63.7292390
  50.6296510  10.5857990  64.0449170  38.0834670   7.3994760  66.4933090
  37.3568730   6.7800050  66.4259040  38.1443820   7.7935370  65.6231170
  41.6879770   9.6139760  63.2782500  42.2044790   9.0027120  62.7530760
  42.3377150  10.1168540  63.7693510  44.4275270  10.5048250  64.1051480
  44.7153080  10.2502550  63.2284490  44.9398490   9.9525610  64.6957050
  36.3664670  10.7169150  59.7029850  36.1986710  10.0839830  60.4011740
  35.4999180  10.9228550  59.3524040  37.9727370   9.4102380  57.1479990
  37.4474990   9.7910410  56.4441950  37.8971950  10.0353150  57.8689700
  44.4947630  11.4264350  71.4719680  45.4214940  11.1908620  71.5155640
  44.4798060  12.2536350  70.9905710  52.7292690  10.9689920  58.4693930
  52.9044880  10.2827660  57.8254850  52.0314260  11.4936970  58.0770600
  40.5720340  11.3584760  56.0229240  41.3039160  11.0744040  55.4753130
  40.8314010  11.1198040  56.9128620  39.7335130   7.4749490  56.0275570
  39.1044010   7.9434590  56.5761400  39.8482960   6.6298710  56.4621760
  51.0625190  10.6534210  71.2960720  51.8550510  10.1583440  71.0886680
  51.3558340  11.3324350  71.9036330  45.3202890   3.3034170  44.0586040
  44.5444990   2.8234610  44.3484610  45.9715820   2.6239820  43.8842200
  39.3368720   3.6153980  44.9361800  38.5053600   3.3602690  45.3358310
  39.9449700   3.6864750  45.6719720  49.3410320   7.7094360  42.8385170
  48.8791850   6.9381600  43.1672340  50.1535870   7.7360430  43.3437620
  39.3169980   7.6494070  45.1319820  39.6198020   6.7591810  44.9530040
  40.0613570   8.2064290  44.9042070  45.5673630   9.9952370  42.4589160
  44.9485070  10.4509870  41.8883600  46.4225410  10.1503830  42.0578860
  44.7611880   5.9791360  44.0656200  44.6920160   5.0381300  43.9045330
  45.5231740   6.0692770  44.6378770  46.4336980   4.8791610  39.8521070
  45.8154250   5.3441060  39.2883790  46.9460230   5.5719090  40.2690580
  41.2968740   4.4067480  46.5304670  40.9638120   5.0336400  47.1725740
  41.4735420   4.9329360  45.7506340  40.5087840   6.3748280  48.3453850
  41.1261840   7.0499360  48.0638300  39.6480960   6.7836260  48.2541350
  35.8020180   5.5648140  37.2260700  35.4248160   6.0535240  36.4945600
  36.0593250   6.2373420  37.8567230  51.4265430   7.8387690  46.2608490
  50.7428950   8.5086800  46.2525160  51.9659720   8.0368340  45.4953350
  48.9624170   9.6831820  44.9753670  48.9751330   9.2794110  44.1075930
  48.4099390  10.4579110  44.8715100  50.2569590   6.4048040  40.0643840
  50.1465920   5.4622370  40.1893260  50.2537840   6.7663680  40.9506600
  48.3609610   4.5861660  46.3036280  48.7778400   4.3721770  45.4689740
  49.0849430   4.8434450  46.8744900  45.7989870   2.0313360  39.4206330
  44.8719150   1.9650740  39.6494800  45.9514690   2.9693490  39.3061570
  52.3071710   2.9848880  46.3952520  51.4790340   3.0541970  45.9202650
  52.9022190   3.5703190  45.9268350  49.8287160   3.5933660  39.9241580
  49.2099580   3.2553210  39.2767880  49.8111610   2.9493420  40.6320770
  41.4046510   2.5578100  42.2026060  41.0003510   1.8455350  41.7071960
  41.4909630   2.2131340  43.0914100  41.8728210   6.2445660  44.3665270
  41.5756500   5.6391130  43.6873050  42.8228030   6.2822970  44.2554630
  49.9613820   9.8177530  48.0288370  49.4844380  10.6249720  47.8360980
  49.2775610   9.1655860  48.1814580  40.9646640   5.9827350  51.0173070
  40.0675170   6.2067320  51.2646470  40.9899510   6.1062290  50.0684470
  48.0051860   2.8320470  36.9314330  48.4445140   1.9942900  36.7852150
  48.7180280   3.4649870  37.0178470  39.7917860   2.8540670  49.5930440
  39.6525630   3.7263470  49.9617840  38.9099220   2.5113480  49.4478380
  46.1147240   7.7716540  40.8995570  46.5543150   8.5140870  40.4850960
  46.0534130   8.0143110  41.8234530  41.5898210   8.7962370  51.8015590
  41.5613640   9.2005320  50.9344020  41.4263180   7.8672730  51.6387190
  53.5413030   9.5789470  53.0979760  54.0172750  10.0572360  53.7768840
  54.1620190   9.5106960  52.3725260  35.7436510   4.6238220  45.5101350
  35.8216930   4.7586990  44.5657070  36.3578190   3.9154110  45.7029470
  36.9884140   6.3238410  41.9207530  36.5812220   6.4653000  41.0661130
  37.8797150   6.0398570  41.7178740  52.9446280   6.7702320  50.2579770
  53.0709340   6.5314200  49.3396950  52.9867660   5.9386860  50.7301850
  46.8063020  10.4730320  48.8274580  47.3207690  10.3838330  49.6297010
  45.9632100  10.8190020  49.1202490  48.7817420  10.7585660  38.2558580
  48.6218560  10.4688600  39.1540410  48.6164130   9.9825790  37.7203810
  41.2605800  10.5384190  40.0330200  41.0848280   9.6219730  39.8198000
  40.4061540  10.8971480  40.2728000  48.4843550   8.2673220  36.8156580
  47.7908710   8.2650510  36.1558860  49.2266410   7.8432540  36.3850750
  48.0493480   9.8935930  40.8905070  48.5050430   9.1125310  41.2043690
  48.3886000  10.6042750  41.4346250  35.7996030   5.6652390  48.0495810
  35.9627070   5.1957750  47.2315180  36.2648480   5.1575950  48.7144650
  37.3735010   5.0403820  50.2091620  36.9889800   4.3997490  50.8074580
  37.6847200   5.7439940  50.7786350  39.8413310   5.1349990  38.6051300
  39.0675570   4.5947610  38.4450020  40.5707940   4.6156600  38.2669060
  50.6001290   4.1315350  44.3977690  51.3200410   4.6270640  44.0073800
  50.3983110   3.4533240  43.7531560  45.9820090   4.2024410  50.2846690
  45.9157400   3.2820080  50.0304280  45.3525230   4.2999850  50.9991330
  39.8850710   4.8030370  42.2430110  40.4029380   3.9998630  42.1887000
  39.4334730   4.7409510  43.0846940  44.7720210   6.0696650  37.5157410
  45.1135910   6.8138880  37.0200730  43.9432920   6.3827770  37.8782240
  40.5708370   2.2275980  52.0395360  40.2708510   2.3733160  51.1423180
  41.3419610   1.6681270  51.9468750  45.9136820   7.0244980  50.0350490
  45.9281360   6.0925940  49.8169400  45.2061920   7.1104740  50.6740260
  52.1248030   3.6652320  49.3819070  51.3996220   4.2581100  49.1848460
  52.6523490   3.6575860  48.5832440  52.0761140   8.0627060  39.0331230
  51.4337300   7.4082680  39.3074950  51.6891800   8.4682150  38.2571900
  47.6547620   5.3912490  42.8802920  48.0071440   4.7940620  42.2204290
  46.7709950   5.0656720  43.0511170  43.7410900   6.1510180  40.2873330
  44.4282030   6.6979390  40.6680920  42.9543320   6.6950910  40.3222940
  35.8803300   1.7683000  35.7790410  36.7498150   2.0507800  36.0626330
  35.3893620   2.5818870  35.6639220  43.0438110   3.1556210  39.8998690
  43.5000890   3.9661460  40.1258880  42.6926320   2.8379350  40.7317180
  45.3470720   8.6662550  47.1290990  45.9912940   8.8721930  47.8064410
  45.7100160   7.9050950  46.6761840  46.6202800   6.6694900  45.8468440
  47.2625030   5.9688060  45.9600610  47.1452150   7.4493340  45.6665330
  50.4658520   6.9543520  35.5707580  50.2396100   6.2373960  36.1632220
  50.0754720   6.7055960  34.7329330  48.3940420   7.4689800  49.0504500
  48.7296660   8.0556490  49.7282420  47.4740760   7.3382510  49.2802290
  36.2474550  10.9810380  36.3452040  36.6072190  11.5799720  35.6909310
  36.1066890  11.5270270  37.1187070  50.0474770   4.8715460  37.2321740
  49.7596470   5.3328150  38.0199620  50.8426940   4.4113230  37.5005960
  36.2316410   9.2465240  50.8194440  36.3407530   8.3059980  50.6789830
  35.5796970   9.5119990  50.1708170  44.2229000   7.5181130  52.2192560
  43.9025870   6.7990370  52.7638250  43.5487360   8.1936200  52.2928620
  42.2643170   8.3641580  37.1625710  42.2553270   9.0971270  36.5470220
  41.3441530   8.1173160  37.2552670  37.8649810   3.5856470  37.9072470
  37.2577760   4.3255370  37.9167770  38.3399160   3.6755830  37.0810670
  45.2502770   8.4269820  35.8250900  45.3514750   8.2233810  34.8952880
  44.3504510   8.1728100  36.0298680  43.8920880  10.9456140  40.5198570
  44.1462380  10.9077530  39.5977940  42.9433360  10.8189470  40.5126820
  39.8755100   3.5467620  35.6561040  40.6418370   3.4348980  36.2186470
  39.9529790   2.8505590  35.0037810  51.8999040   9.0356870  43.7711340
  52.0246460   9.8588040  44.2435150  52.7664600   8.8247600  43.4235490
  39.3716570  11.1288080  43.4428470  40.1079050  10.5803540  43.7137040
  39.7557490  11.9944090  43.3034460  36.2562050   7.1961650  39.3169980
  35.3301830   7.4382790  39.3075390  36.7218480   8.0235910  39.1954730
  38.3774850  10.3134150  52.6314050  39.1787580  10.6346200  53.0449450
  37.8626670   9.9529730  53.3533960  42.4818880  10.3018390  35.2654040
  43.2747490  10.5907220  34.8135830  41.9623230   9.8710560  34.5866520
  47.2139480   6.4214020  52.5789460  46.6077640   6.4445620  51.8385210
  46.9093590   5.6897060  53.1156710  48.6439850  10.1494310  51.1898870
  49.5961600  10.0652330  51.1399110  48.4968070  10.8136020  51.8632660
  51.5349050   9.5288520  36.6890780  51.2490560   9.1153660  35.8744960
  51.3368600  10.4576230  36.5691300  36.0972660   2.8007610  51.5750100
  36.6011680   2.2214890  52.1466330  35.3580080   3.0847840  52.1126470
  42.9996280   5.5221800  35.1296390  42.8946920   4.9074150  35.8557770
  42.8320500   4.9987690  34.3459400  43.1510600   4.2078600  51.1085620
  42.3856270   4.7763600  51.0240290  43.3326560   3.9154810  50.2153850
  46.2399010   4.5841830  35.7338380  45.6909110   5.0311130  36.3781120
  46.8618270   4.0791080  36.2576050  50.2933950   5.9383930  51.6660640
  51.0343420   6.2759690  51.1628100  49.5306630   6.1075990  51.1130410
  41.9074130   3.5432750  37.6303680  42.3290550   3.3772620  38.4735070
  42.0324970   2.7332980  37.1358820  44.4201770   2.5670360  34.8780780
  44.9407430   1.8519380  34.5121930  45.0670170   3.2056230  35.1781290
  48.9679610   3.9898760  50.2015850  49.3820630   4.1443840  51.0506270
  48.0330610   4.1153980  50.3641630  43.7294840   3.9419240  48.1711780
  44.1482950   4.7851970  47.9988020  42.8103470   4.0791280  47.9418560
  48.4046640   2.2272610  48.1312130  47.8781860   2.7515230  47.5277270
  48.7477980   2.8600000  48.7621860  41.5802260  10.2472250  49.2869510
  41.0423350  10.9718310  48.9678210  41.8336220   9.7702590  48.4966850
  44.4364470  11.4823460  49.5456160  44.3623170  12.3858600  49.8528530
  43.5343310  11.1635360  49.5178230  44.9849800  10.6481970  37.1682520
  45.8800590  10.9866940  37.1901280  45.0167430   9.9261380  36.5406800
  38.6245960   6.0209020  35.3969520  39.0620830   6.5638690  36.0527100
  39.1093690   5.1955970  35.4065860  35.8391760   8.8098050  42.8489780
  36.1694770   7.9419110  42.6168420  36.2682760   9.0156570  43.6794740
  40.4353680   7.1407060  40.5091750  40.1349220   7.0172030  41.4095660
  40.3291170   6.2815650  40.1007480  36.3281970   9.6768640  45.5871410
  35.8912960   9.8569440  46.4195560  36.8959650  10.4343260  45.4453130
  51.9644150   9.1785640  49.8748720  51.3646140   9.2378200  49.1312640
  52.0938050   8.2390620  50.0045570  53.2045600   6.9203460  35.2118430
  52.3738560   6.9880110  35.6825660  53.3817430   7.8107580  34.9085290
  52.6602060   3.6650940  37.7152630  53.4220970   4.2347590  37.8212320
  52.6756430   3.0978140  38.4860940  36.1606400   2.1888870  41.9460290
  35.5055240   1.9200510  41.3019990  36.9984350   2.0793350  41.4962270
  53.6662030   4.5201040  42.5594560  54.0370860   3.7368360  42.1530530
  54.3063960   5.2090140  42.3811860  50.6495790   5.9037620  47.9724880
  49.8355630   6.3334780  48.2350670  51.0569990   6.5156030  47.3593930
  52.7121230   3.9585310  34.8725150  52.9870070   4.8664190  34.7444370
  52.5231970   3.8947840  35.8087140  37.1982330   2.5741440  46.4863630
  37.5655370   2.4868840  47.3659650  36.6293150   1.8107990  46.3870490
  50.7071840  10.6556220  41.4993150  51.3030910  10.3340790  40.8227570
  50.9649990  10.1828040  42.2906420  38.6134410   7.0874130  51.6483780
  38.5704040   6.7167040  52.5298240  38.7445420   8.0251700  51.7885600
  42.3140440   8.6433720  47.2493500  42.0731800   8.9108280  46.3624020
  43.2543080   8.8139450  47.3044360  53.5744600  10.6628100  48.0504140
  53.0802880  11.0596970  47.3331270  52.9657890  10.0377310  48.4441420
  38.4522440  10.0336380  48.7681560  37.8582760   9.9021080  49.5071600
  38.4446280   9.1974520  48.3023660  38.0834670   7.3994760  47.7189600
  37.3568730   6.7800050  47.6515550  38.1443820   7.7935370  46.8487680
  41.6879770   9.6139760  44.5039010  42.2044790   9.0027120  43.9787270
  42.3377150  10.1168540  44.9950020  44.4275270  10.5048250  45.3307990
  44.7153080  10.2502550  44.4541000  44.9398490   9.9525610  45.9213560
  36.3664670  10.7169150  40.9286360  36.1986710  10.0839830  41.6268250
  35.4999180  10.9228550  40.5780550  37.9727370   9.4102380  38.3736500
  37.4474990   9.7910410  37.6698460  37.8971950  10.0353150  39.0946210
  52.7292690  10.9689920  39.6950440  52.9044880  10.2827660  39.0511360
  52.0314260  11.4936970  39.3027110  40.5720340  11.3584760  37.2485750
  41.3039160  11.0744040  36.7009640  40.8314010  11.1198040  38.1385130
  39.7335130   7.4749490  37.2532080  39.1044010   7.9434590  37.8017910
  39.8482960   6.6298710  37.6878270  51.0625190  10.6534210  52.5217230
  51.8550510  10.1583440  52.3143190  51.3558340  11.3324350  53.1292840
  45.3202890   3.3034170  25.2842550  44.5444990   2.8234610  25.5741120
  45.9715820   2.6239820  25.1098710  39.3368720   3.6153980  26.1618310
  38.5053600   3.3602690  26.5614820  39.9449700   3.6864750  26.8976230
  49.3410320   7.7094360  24.0641680  48.8791850   6.9381600  24.3928850
  50.1535870   7.7360430  24.5694130  39.3169980   7.6494070  26.3576330
  39.6198020   6.7591810  26.1786550  40.0613570   8.2064290  26.1298580
  45.5673630   9.9952370  23.6845670  44.9485070  10.4509870  23.1140110
  46.4225410  10.1503830  23.2835370  44.7611880   5.9791360  25.2912710
  44.6920160   5.0381300  25.1301840  45.5231740   6.0692770  25.8635280
  46.4336980   4.8791610  21.0777580  45.8154250   5.3441060  20.5140300
  46.9460230   5.5719090  21.4947090  41.2968740   4.4067480  27.7561180
  40.9638120   5.0336400  28.3982250  41.4735420   4.9329360  26.9762850
  40.5087840   6.3748280  29.5710360  41.1261840   7.0499360  29.2894810
  39.6480960   6.7836260  29.4797860  35.8020180   5.5648140  18.4517210
  35.4248160   6.0535240  17.7202110  36.0593250   6.2373420  19.0823740
  51.4265430   7.8387690  27.4865000  50.7428950   8.5086800  27.4781670
  51.9659720   8.0368340  26.7209860  48.9624170   9.6831820  26.2010180
  48.9751330   9.2794110  25.3332440  48.4099390  10.4579110  26.0971610
  50.2569590   6.4048040  21.2900350  50.1465920   5.4622370  21.4149770
  50.2537840   6.7663680  22.1763110  48.3609610   4.5861660  27.5292790
  48.7778400   4.3721770  26.6946250  49.0849430   4.8434450  28.1001410
  45.7989870   2.0313360  20.6462840  44.8719150   1.9650740  20.8751310
  45.9514690   2.9693490  20.5318080  52.3071710   2.9848880  27.6209030
  51.4790340   3.0541970  27.1459160  52.9022190   3.5703190  27.1524860
  49.8287160   3.5933660  21.1498090  49.2099580   3.2553210  20.5024390
  49.8111610   2.9493420  21.8577280  41.4046510   2.5578100  23.4282570
  41.0003510   1.8455350  22.9328470  41.4909630   2.2131340  24.3170610
  41.8728210   6.2445660  25.5921780  41.5756500   5.6391130  24.9129560
  42.8228030   6.2822970  25.4811140  49.9613820   9.8177530  29.2544880
  49.4844380  10.6249720  29.0617490  49.2775610   9.1655860  29.4071090
  40.9646640   5.9827350  32.2429580  40.0675170   6.2067320  32.4902980
  40.9899510   6.1062290  31.2940980  48.0051860   2.8320470  18.1570840
  48.4445140   1.9942900  18.0108660  48.7180280   3.4649870  18.2434980
  39.7917860   2.8540670  30.8186950  39.6525630   3.7263470  31.1874350
  38.9099220   2.5113480  30.6734890  46.1147240   7.7716540  22.1252080
  46.5543150   8.5140870  21.7107470  46.0534130   8.0143110  23.0491040
  41.5898210   8.7962370  33.0272100  41.5613640   9.2005320  32.1600530
  41.4263180   7.8672730  32.8643700  53.5413030   9.5789470  34.3236270
  54.0172750  10.0572360  35.0025350  54.1620190   9.5106960  33.5981770
  35.7436510   4.6238220  26.7357860  35.8216930   4.7586990  25.7913580
  36.3578190   3.9154110  26.9285980  36.9884140   6.3238410  23.1464040
  36.5812220   6.4653000  22.2917640  37.8797150   6.0398570  22.9435250
  52.9446280   6.7702320  31.4836280  53.0709340   6.5314200  30.5653460
  52.9867660   5.9386860  31.9558360  46.8063020  10.4730320  30.0531090
  47.3207690  10.3838330  30.8553520  45.9632100  10.8190020  30.3459000
  48.7817420  10.7585660  19.4815090  48.6218560  10.4688600  20.3796920
  48.6164130   9.9825790  18.9460320  41.2605800  10.5384190  21.2586710
  41.0848280   9.6219730  21.0454510  40.4061540  10.8971480  21.4984510
  48.4843550   8.2673220  18.0413090  47.7908710   8.2650510  17.3815370
  49.2266410   7.8432540  17.6107260  48.0493480   9.8935930  22.1161580
  48.5050430   9.1125310  22.4300200  48.3886000  10.6042750  22.6602760
  35.7996030   5.6652390  29.2752320  35.9627070   5.1957750  28.4571690
  36.2648480   5.1575950  29.9401160  37.3735010   5.0403820  31.4348130
  36.9889800   4.3997490  32.0331090  37.6847200   5.7439940  32.0042860
  39.8413310   5.1349990  19.8307810  39.0675570   4.5947610  19.6706530
  40.5707940   4.6156600  19.4925570  50.6001290   4.1315350  25.6234200
  51.3200410   4.6270640  25.2330310  50.3983110   3.4533240  24.9788070
  45.9820090   4.2024410  31.5103200  45.9157400   3.2820080  31.2560790
  45.3525230   4.2999850  32.2247840  39.8850710   4.8030370  23.4686620
  40.4029380   3.9998630  23.4143510  39.4334730   4.7409510  24.3103450
  44.7720210   6.0696650  18.7413920  45.1135910   6.8138880  18.2457240
  43.9432920   6.3827770  19.1038750  40.5708370   2.2275980  33.2651870
  40.2708510   2.3733160  32.3679690  41.3419610   1.6681270  33.1725260
  45.9136820   7.0244980  31.2607000  45.9281360   6.0925940  31.0425910
  45.2061920   7.1104740  31.8996770  52.1248030   3.6652320  30.6075580
  51.3996220   4.2581100  30.4104970  52.6523490   3.6575860  29.8088950
  52.0761140   8.0627060  20.2587740  51.4337300   7.4082680  20.5331460
  51.6891800   8.4682150  19.4828410  47.6547620   5.3912490  24.1059430
  48.0071440   4.7940620  23.4460800  46.7709950   5.0656720  24.2767680
  43.7410900   6.1510180  21.5129840  44.4282030   6.6979390  21.8937430
  42.9543320   6.6950910  21.5479450  35.8803300   1.7683000  17.0046920
  36.7498150   2.0507800  17.2882840  35.3893620   2.5818870  16.8895730
  43.0438110   3.1556210  21.1255200  43.5000890   3.9661460  21.3515390
  42.6926320   2.8379350  21.9573690  45.3470720   8.6662550  28.3547500
  45.9912940   8.8721930  29.0320920  45.7100160   7.9050950  27.9018350
  46.6202800   6.6694900  27.0724950  47.2625030   5.9688060  27.1857120
  47.1452150   7.4493340  26.8921840  50.4658520   6.9543520  16.7964090
  50.2396100   6.2373960  17.3888730  50.0754720   6.7055960  15.9585840
  48.3940420   7.4689800  30.2761010  48.7296660   8.0556490  30.9538930
  47.4740760   7.3382510  30.5058800  36.2474550  10.9810380  17.5708550
  36.6072190  11.5799720  16.9165820  36.1066890  11.5270270  18.3443580
  50.0474770   4.8715460  18.4578250  49.7596470   5.3328150  19.2456130
  50.8426940   4.4113230  18.7262470  36.2316410   9.2465240  32.0450950
  36.3407530   8.3059980  31.9046340  35.5796970   9.5119990  31.3964680
  44.2229000   7.5181130  33.4449070  43.9025870   6.7990370  33.9894760
  43.5487360   8.1936200  33.5185130  42.2643170   8.3641580  18.3882220
  42.2553270   9.0971270  17.7726730  41.3441530   8.1173160  18.4809180
  37.8649810   3.5856470  19.1328980  37.2577760   4.3255370  19.1424280
  38.3399160   3.6755830  18.3067180  45.2502770   8.4269820  17.0507410
  45.3514750   8.2233810  16.1209390  44.3504510   8.1728100  17.2555190
  43.8920880  10.9456140  21.7455080  44.1462380  10.9077530  20.8234450
  42.9433360  10.8189470  21.7383330  39.8755100   3.5467620  16.8817550
  40.6418370   3.4348980  17.4442980  39.9529790   2.8505590  16.2294320
  51.8999040   9.0356870  24.9967850  52.0246460   9.8588040  25.4691660
  52.7664600   8.8247600  24.6492000  39.3716570  11.1288080  24.6684980
  40.1079050  10.5803540  24.9393550  39.7557490  11.9944090  24.5290970
  36.2562050   7.1961650  20.5426490  35.3301830   7.4382790  20.5331900
  36.7218480   8.0235910  20.4211240  38.3774850  10.3134150  33.8570560
  39.1787580  10.6346200  34.2705960  37.8626670   9.9529730  34.5790470
  42.4818880  10.3018390  16.4910550  43.2747490  10.5907220  16.0392340
  41.9623230   9.8710560  15.8123030  47.2139480   6.4214020  33.8045970
  46.6077640   6.4445620  33.0641720  46.9093590   5.6897060  34.3413220
  48.6439850  10.1494310  32.4155380  49.5961600  10.0652330  32.3655620
  48.4968070  10.8136020  33.0889170  51.5349050   9.5288520  17.9147290
  51.2490560   9.1153660  17.1001470  51.3368600  10.4576230  17.7947810
  36.0972660   2.8007610  32.8006610  36.6011680   2.2214890  33.3722840
  35.3580080   3.0847840  33.3382980  42.9996280   5.5221800  16.3552900
  42.8946920   4.9074150  17.0814280  42.8320500   4.9987690  15.5715910
  43.1510600   4.2078600  32.3342130  42.3856270   4.7763600  32.2496800
  43.3326560   3.9154810  31.4410360  46.2399010   4.5841830  16.9594890
  45.6909110   5.0311130  17.6037630  46.8618270   4.0791080  17.4832560
  50.2933950   5.9383930  32.8917150  51.0343420   6.2759690  32.3884610
  49.5306630   6.1075990  32.3386920  41.9074130   3.5432750  18.8560190
  42.3290550   3.3772620  19.6991580  42.0324970   2.7332980  18.3615330
  44.4201770   2.5670360  16.1037290  44.9407430   1.8519380  15.7378440
  45.0670170   3.2056230  16.4037800  48.9679610   3.9898760  31.4272360
  49.3820630   4.1443840  32.2762780  48.0330610   4.1153980  31.5898140
  43.7294840   3.9419240  29.3968290  44.1482950   4.7851970  29.2244530
  42.8103470   4.0791280  29.1675070  48.4046640   2.2272610  29.3568640
  47.8781860   2.7515230  28.7533780  48.7477980   2.8600000  29.9878370
  41.5802260  10.2472250  30.5126020  41.0423350  10.9718310  30.1934720
  41.8336220   9.7702590  29.7223360  44.4364470  11.4823460  30.7712670
  44.3623170  12.3858600  31.0785040  43.5343310  11.1635360  30.7434740
  44.9849800  10.6481970  18.3939030  45.8800590  10.9866940  18.4157790
  45.0167430   9.9261380  17.7663310  38.6245960   6.0209020  16.6226030
  39.0620830   6.5638690  17.2783610  39.1093690   5.1955970  16.6322370
  35.8391760   8.8098050  24.0746290  36.1694770   7.9419110  23.8424930
  36.2682760   9.0156570  24.9051250  40.4353680   7.1407060  21.7348260
  40.1349220   7.0172030  22.6352170  40.3291170   6.2815650  21.3263990
  36.3281970   9.6768640  26.8127920  35.8912960   9.8569440  27.6452070
  36.8959650  10.4343260  26.6709640  51.9644150   9.1785640  31.1005230
  51.3646140   9.2378200  30.3569150  52.0938050   8.2390620  31.2302080
  53.2045600   6.9203460  16.4374940  52.3738560   6.9880110  16.9082170
  53.3817430   7.8107580  16.1341800  52.6602060   3.6650940  18.9409140
  53.4220970   4.2347590  19.0468830  52.6756430   3.0978140  19.7117450
  36.1606400   2.1888870  23.1716800  35.5055240   1.9200510  22.5276500
  36.9984350   2.0793350  22.7218780  53.6662030   4.5201040  23.7851070
  54.0370860   3.7368360  23.3787040  54.3063960   5.2090140  23.6068370
  50.6495790   5.9037620  29.1981390  49.8355630   6.3334780  29.4607180
  51.0569990   6.5156030  28.5850440  52.7121230   3.9585310  16.0981660
  52.9870070   4.8664190  15.9700880  52.5231970   3.8947840  17.0343650
  37.1982330   2.5741440  27.7120140  37.5655370   2.4868840  28.5916160
  36.6293150   1.8107990  27.6127000  50.7071840  10.6556220  22.7249660
  51.3030910  10.3340790  22.0484080  50.9649990  10.1828040  23.5162930
  38.6134410   7.0874130  32.8740290  38.5704040   6.7167040  33.7554750
  38.7445420   8.0251700  33.0142110  42.3140440   8.6433720  28.4750010
  42.0731800   8.9108280  27.5880530  43.2543080   8.8139450  28.5300870
  53.5744600  10.6628100  29.2760650  53.0802880  11.0596970  28.5587780
  52.9657890  10.0377310  29.6697930  38.4522440  10.0336380  29.9938070
  37.8582760   9.9021080  30.7328110  38.4446280   9.1974520  29.5280170
  51.2584050  11.3051520  26.5547390  50.7987020  12.0567330  26.1805410
  50.6296510  10.5857990  26.4962190  38.0834670   7.3994760  28.9446110
  37.3568730   6.7800050  28.8772060  38.1443820   7.7935370  28.0744190
  41.6879770   9.6139760  25.7295520  42.2044790   9.0027120  25.2043780
  42.3377150  10.1168540  26.2206530  44.4275270  10.5048250  26.5564500
  44.7153080  10.2502550  25.6797510  44.9398490   9.9525610  27.1470070
  36.3664670  10.7169150  22.1542870  36.1986710  10.0839830  22.8524760
  35.4999180  10.9228550  21.8037060  37.9727370   9.4102380  19.5993010
  37.4474990   9.7910410  18.8954970  37.8971950  10.0353150  20.3202720
  44.4947630  11.4264350  33.9232700  45.4214940  11.1908620  33.9668660
  44.4798060  12.2536350  33.4418730  52.7292690  10.9689920  20.9206950
  52.9044880  10.2827660  20.2767870  52.0314260  11.4936970  20.5283620
  40.5720340  11.3584760  18.4742260  41.3039160  11.0744040  17.9266150
  40.8314010  11.1198040  19.3641640  39.7335130   7.4749490  18.4788590
  39.1044010   7.9434590  19.0274420  39.8482960   6.6298710  18.9134780
  51.0625190  10.6534210  33.7473740  51.8550510  10.1583440  33.5399700
  51.3558340  11.3324350  34.3549350  45.3202890   3.3034170   6.5099060
  44.5444990   2.8234610   6.7997630  45.9715820   2.6239820   6.3355220
  39.3368720   3.6153980   7.3874820  38.5053600   3.3602690   7.7871330
  39.9449700   3.6864750   8.1232740  49.3410320   7.7094360   5.2898190
  48.8791850   6.9381600   5.6185360  50.1535870   7.7360430   5.7950640
  39.3169980   7.6494070   7.5832840  39.6198020   6.7591810   7.4043060
  40.0613570   8.2064290   7.3555090  45.5673630   9.9952370   4.9102180
  44.9485070  10.4509870   4.3396620  46.4225410  10.1503830   4.5091880
  44.7611880   5.9791360   6.5169220  44.6920160   5.0381300   6.3558350
  45.5231740   6.0692770   7.0891790  46.4336980   4.8791610   2.3034090
  45.8154250   5.3441060   1.7396810  46.9460230   5.5719090   2.7203600
  41.2968740   4.4067480   8.9817690  40.9638120   5.0336400   9.6238760
  41.4735420   4.9329360   8.2019360  40.5087840   6.3748280  10.7966870
  41.1261840   7.0499360  10.5151320  39.6480960   6.7836260  10.7054370
  51.4265430   7.8387690   8.7121510  50.7428950   8.5086800   8.7038180
  51.9659720   8.0368340   7.9466370  48.9624170   9.6831820   7.4266690
  48.9751330   9.2794110   6.5588950  48.4099390  10.4579110   7.3228120
  50.2569590   6.4048040   2.5156860  50.1465920   5.4622370   2.6406280
  50.2537840   6.7663680   3.4019620  48.3609610   4.5861660   8.7549300
  48.7778400   4.3721770   7.9202760  49.0849430   4.8434450   9.3257920
  45.7989870   2.0313360   1.8719350  44.8719150   1.9650740   2.1007820
  45.9514690   2.9693490   1.7574590  52.3071710   2.9848880   8.8465540
  51.4790340   3.0541970   8.3715670  52.9022190   3.5703190   8.3781370
  49.8287160   3.5933660   2.3754600  49.2099580   3.2553210   1.7280900
  49.8111610   2.9493420   3.0833790  41.4046510   2.5578100   4.6539080
  41.0003510   1.8455350   4.1584980  41.4909630   2.2131340   5.5427120
  41.8728210   6.2445660   6.8178290  41.5756500   5.6391130   6.1386070
  42.8228030   6.2822970   6.7067650  49.9613820   9.8177530  10.4801390
  49.4844380  10.6249720  10.2874000  49.2775610   9.1655860  10.6327600
  40.9646640   5.9827350  13.4686090  40.0675170   6.2067320  13.7159490
  40.9899510   6.1062290  12.5197490  39.7917860   2.8540670  12.0443460
  39.6525630   3.7263470  12.4130860  38.9099220   2.5113480  11.8991400
  46.1147240   7.7716540   3.3508590  46.5543150   8.5140870   2.9363980
  46.0534130   8.0143110   4.2747550  41.5898210   8.7962370  14.2528610
  41.5613640   9.2005320  13.3857040  41.4263180   7.8672730  14.0900210
  53.5413030   9.5789470  15.5492780  54.0172750  10.0572360  16.2281860
  54.1620190   9.5106960  14.8238280  35.7436510   4.6238220   7.9614370
  35.8216930   4.7586990   7.0170090  36.3578190   3.9154110   8.1542490
  36.9884140   6.3238410   4.3720550  36.5812220   6.4653000   3.5174150
  37.8797150   6.0398570   4.1691760  52.9446280   6.7702320  12.7092790
  53.0709340   6.5314200  11.7909970  52.9867660   5.9386860  13.1814870
  46.8063020  10.4730320  11.2787600  47.3207690  10.3838330  12.0810030
  45.9632100  10.8190020  11.5715510  41.2605800  10.5384190   2.4843220
  41.0848280   9.6219730   2.2711020  40.4061540  10.8971480   2.7241020
  48.0493480   9.8935930   3.3418090  48.5050430   9.1125310   3.6556710
  48.3886000  10.6042750   3.8859270  35.7996030   5.6652390  10.5008830
  35.9627070   5.1957750   9.6828200  36.2648480   5.1575950  11.1657670
  37.3735010   5.0403820  12.6604640  36.9889800   4.3997490  13.2587600
  37.6847200   5.7439940  13.2299370  50.6001290   4.1315350   6.8490710
  51.3200410   4.6270640   6.4586820  50.3983110   3.4533240   6.2044580
  45.9820090   4.2024410  12.7359710  45.9157400   3.2820080  12.4817300
  45.3525230   4.2999850  13.4504350  39.8850710   4.8030370   4.6943130
  40.4029380   3.9998630   4.6400020  39.4334730   4.7409510   5.5359960
  40.5708370   2.2275980  14.4908380  40.2708510   2.3733160  13.5936200
  41.3419610   1.6681270  14.3981770  45.9136820   7.0244980  12.4863510
  45.9281360   6.0925940  12.2682420  45.2061920   7.1104740  13.1253280
  52.1248030   3.6652320  11.8332090  51.3996220   4.2581100  11.6361480
  52.6523490   3.6575860  11.0345460  47.6547620   5.3912490   5.3315940
  48.0071440   4.7940620   4.6717310  46.7709950   5.0656720   5.5024190
  43.7410900   6.1510180   2.7386350  44.4282030   6.6979390   3.1193940
  42.9543320   6.6950910   2.7735960  43.0438110   3.1556210   2.3511710
  43.5000890   3.9661460   2.5771900  42.6926320   2.8379350   3.1830200
  45.3470720   8.6662550   9.5804010  45.9912940   8.8721930  10.2577430
  45.7100160   7.9050950   9.1274860  46.6202800   6.6694900   8.2981460
  47.2625030   5.9688060   8.4113630  47.1452150   7.4493340   8.1178350
  48.3940420   7.4689800  11.5017520  48.7296660   8.0556490  12.1795440
  47.4740760   7.3382510  11.7315310  36.2316410   9.2465240  13.2707460
  36.3407530   8.3059980  13.1302850  35.5796970   9.5119990  12.6221190
  44.2229000   7.5181130  14.6705580  43.9025870   6.7990370  15.2151270
  43.5487360   8.1936200  14.7441640  43.8920880  10.9456140   2.9711590
  44.1462380  10.9077530   2.0490960  42.9433360  10.8189470   2.9639840
  51.8999040   9.0356870   6.2224360  52.0246460   9.8588040   6.6948170
  52.7664600   8.8247600   5.8748510  39.3716570  11.1288080   5.8941490
  40.1079050  10.5803540   6.1650060  39.7557490  11.9944090   5.7547480
  36.2562050   7.1961650   1.7683000  35.3301830   7.4382790   1.7588410
  36.7218480   8.0235910   1.6467750  38.3774850  10.3134150  15.0827070
  39.1787580  10.6346200  15.4962470  37.8626670   9.9529730  15.8046980
  47.2139480   6.4214020  15.0302480  46.6077640   6.4445620  14.2898230
  46.9093590   5.6897060  15.5669730  48.6439850  10.1494310  13.6411890
  49.5961600  10.0652330  13.5912130  48.4968070  10.8136020  14.3145680
  36.0972660   2.8007610  14.0263120  36.6011680   2.2214890  14.5979350
  35.3580080   3.0847840  14.5639490  43.1510600   4.2078600  13.5598640
  42.3856270   4.7763600  13.4753310  43.3326560   3.9154810  12.6666870
  50.2933950   5.9383930  14.1173660  51.0343420   6.2759690  13.6141120
  49.5306630   6.1075990  13.5643430  48.9679610   3.9898760  12.6528870
  49.3820630   4.1443840  13.5019290  48.0330610   4.1153980  12.8154650
  43.7294840   3.9419240  10.6224800  44.1482950   4.7851970  10.4501040
  42.8103470   4.0791280  10.3931580  48.4046640   2.2272610  10.5825150
  47.8781860   2.7515230   9.9790290  48.7477980   2.8600000  11.2134880
  41.5802260  10.2472250  11.7382530  41.0423350  10.9718310  11.4191230
  41.8336220   9.7702590  10.9479870  44.4364470  11.4823460  11.9969180
  44.3623170  12.3858600  12.3041550  43.5343310  11.1635360  11.9691250
  35.8391760   8.8098050   5.3002800  36.1694770   7.9419110   5.0681440
  36.2682760   9.0156570   6.1307760  40.4353680   7.1407060   2.9604770
  40.1349220   7.0172030   3.8608680  40.3291170   6.2815650   2.5520500
  36.3281970   9.6768640   8.0384430  35.8912960   9.8569440   8.8708580
  36.8959650  10.4343260   7.8966150  51.9644150   9.1785640  12.3261740
  51.3646140   9.2378200  11.5825660  52.0938050   8.2390620  12.4558590
  36.1606400   2.1888870   4.3973310  35.5055240   1.9200510   3.7533010
  36.9984350   2.0793350   3.9475290  53.6662030   4.5201040   5.0107580
  54.0370860   3.7368360   4.6043550  54.3063960   5.2090140   4.8324880
  50.6495790   5.9037620  10.4237900  49.8355630   6.3334780  10.6863690
  51.0569990   6.5156030   9.8106950  37.1982330   2.5741440   8.9376650
  37.5655370   2.4868840   9.8172670  36.6293150   1.8107990   8.8383510
  50.7071840  10.6556220   3.9506170  51.3030910  10.3340790   3.2740590
  50.9649990  10.1828040   4.7419440  38.6134410   7.0874130  14.0996800
  38.5704040   6.7167040  14.9811260  38.7445420   8.0251700  14.2398620
  42.3140440   8.6433720   9.7006520  42.0731800   8.9108280   8.8137040
  43.2543080   8.8139450   9.7557380  53.5744600  10.6628100  10.5017160
  53.0802880  11.0596970   9.7844290  52.9657890  10.0377310  10.8954440
  38.4522440  10.0336380  11.2194580  37.8582760   9.9021080  11.9584620
  38.4446280   9.1974520  10.7536680  51.2584050  11.3051520   7.7803900
  50.7987020  12.0567330   7.4061920  50.6296510  10.5857990   7.7218700
  38.0834670   7.3994760  10.1702620  37.3568730   6.7800050  10.1028570
  38.1443820   7.7935370   9.3000700  41.6879770   9.6139760   6.9552030
  42.2044790   9.0027120   6.4300290  42.3377150  10.1168540   7.4463040
  44.4275270  10.5048250   7.7821010  44.7153080  10.2502550   6.9054020
  44.9398490   9.9525610   8.3726580  36.3664670  10.7169150   3.3799380
  36.1986710  10.0839830   4.0781270  35.4999180  10.9228550   3.0293570
  44.4947630  11.4264350  15.1489210  45.4214940  11.1908620  15.1925170
  44.4798060  12.2536350  14.6675240  52.7292690  10.9689920   2.1463460
  52.9044880  10.2827660   1.5024380  52.0314260  11.4936970   1.7540130
  51.0625190  10.6534210  14.9730250  51.8550510  10.1583440  14.7656210
  51.3558340  11.3324350  15.5805860  28.4141360  95.3972600  98.5007240
  28.3335410  94.4827210  98.2298950  28.0005780  95.8939670  97.7946950
  18.9717180  92.4473320  95.0434660  18.0833880  92.7889290  94.9414540
  19.2558370  92.2473640  94.1515490  16.9350190  95.0478970 100.9274360
  17.5066300  94.2801170 100.9278000  16.9351730  95.3467730 100.0180970
  18.1775060  90.4563330 102.7143290  17.9977900  89.5589080 102.9946050
  17.7755140  91.0035200 103.3890240  27.0173560  92.6579190 100.6155600
  27.3938380  91.7851070 100.5029270  26.9193070  92.9937890  99.7246040
  21.1478570  91.0304820  96.0773040  21.2545320  91.9308550  96.3841800
  20.2370930  90.9822790  95.7867690  30.7997680  90.1529630  97.5483940
  31.6207300  89.6626200  97.5909420  30.8331760  90.7427290  98.3015780
  18.7961730  92.9523830 101.3225630  19.4771840  93.2162200 101.9413030
  18.4809780  92.1124700 101.6563640  22.9886300  93.9991190 100.4098220
  23.4964520  94.4972160 101.0503240  23.5199540  93.2226390 100.2337580
  35.0897230  92.1696380 104.1127570  34.3849400  92.5578090 103.5942680
  35.3555150  92.8646670 104.7148500  21.2722400  88.6389750 104.6761640
  21.2740840  89.1562140 103.8707540  20.4426710  88.1619930 104.6531570
  31.0359160  92.0930010 100.3211480  30.3314730  92.3814900 100.9014590
  31.3971320  92.9030120  99.9611040  20.9537730  90.3499710 102.6832090
  21.2954540  91.1941760 102.3885960  20.0153540  90.4983450 102.7997430
  34.1046080  91.5384800 100.7120690  33.1570990  91.5723780 100.8436120
  34.4296070  92.3523750 101.0970050  24.6365620  87.8381980  99.0076680
  24.9440600  87.2828870  98.2912180  23.7066320  87.9726440  98.8249670
  27.0246380  95.9030810  95.7436800  26.0975660  95.8368190  95.9725270
  27.1771200  96.8410940  95.6292040  27.0115460  92.1747810  92.7403960
  26.0719130  92.3361770  92.8256420  27.3298720  92.8933490  92.1939950
  30.4970230  93.6435650 103.6637860  30.0841410  94.4689360 103.9177850
  29.7646180  93.0580690 103.4714220  22.6303020  96.4295550  98.5256530
  22.2260020  95.7172800  98.0302430  22.7166140  96.0848790  99.4144570
  21.3431640  93.2038760 102.3055570  21.8946230  93.3134100 101.5308820
  21.8575150  93.5776360 103.0210800  32.8125510  87.9580730  91.5685840
  32.4998170  88.0507560  92.4684910  33.5737980  88.5361760  91.5183270
  19.3307650  95.3240530  96.0263180  19.2105250  96.0502620  95.4144450
  19.0208540  94.5543440  95.5491090  21.7971310  88.6675600  99.4086850
  21.3539460  89.4485140  99.0771370  22.3556300  88.9905490 100.1157790
  24.9130130  88.2886300  94.2892680  24.2884310  88.2846170  95.0145990
  24.8260250  87.4217260  93.8928650  23.8347210  89.2122930 101.2676450
  24.1319540  90.1185760 101.1868470  24.3832770  88.7241710 100.6536020
  21.5885530  93.7909170  97.1368100  21.3626450  93.5746340  98.0414720
  20.8078060  94.2237630  96.7914070  28.8183290  93.7972540  95.7358750
  28.2192180  94.5208340  95.5522370  29.3662900  93.7349320  94.9535200
  27.4248160  92.4336080  97.7662030  27.8177730  92.7508280  96.9530720
  27.7865010  91.5547960  97.8806550  16.4612330  89.0236880  99.9892230
  16.1725380  89.5939740 100.7017210  17.2058090  88.5441330 100.3523460
  16.6482560  92.9657000  91.1994950  16.5657230  93.9087760  91.3409940
  16.2965620  92.8231910  90.3207300  28.0103300  95.0241830 101.8612810
  27.2784420  95.5328640 102.2102910  27.6127640  94.2071810 101.5601590
  24.4480690  91.6996030 100.2665300  24.4516750  91.2585980  99.4169840
  25.3431810  92.0213360 100.3737120  20.2983070  91.5822520  99.2259510
  19.9583120  92.0597750  99.9826560  19.5360390  91.1287640  98.8660610
  24.5100840  92.7008110  93.2572060  24.6313660  92.6594590  94.2057880
  24.1249350  93.5632260  93.1018790  28.4729210  90.4775510 101.2735750
  28.4901950  90.9284160 102.1177600  28.2244790  89.5781150 101.4869190
  23.5222340  95.0109250  92.6555360  22.9539240  94.5627500  92.0291270
  24.2311340  95.3702030  92.1220510  24.7488660  95.7597810 102.0130710
  25.1158790  95.2856380 102.7592050  24.5593720  96.6339380 102.3539050
  17.6129150  90.5041500  98.1424180  17.3276070  90.1397170  98.9802800
  17.5508010  89.7721960  97.5287320  22.5388030  94.8006450 104.3314920
  22.2345100  95.6798430 104.5565280  23.4934490  94.8606240 104.3672360
  27.2867740  89.3970760  94.8637550  26.4732350  88.8983930  94.7882860
  27.0929690  90.2369010  94.4473900  30.0016130  93.7690410  93.1599710
  30.8895750  94.0807640  92.9851050  29.9721220  92.8962660  92.7680290
  32.2730400  95.0802250  92.6279570  32.1894120  95.5116470  91.7776010
  32.9924590  95.5400600  93.0606390  17.1059810  95.6400450  92.1020880
  17.9754660  95.9225250  92.3856800  16.6150130  96.4536320  91.9869690
  20.1706400  87.3711310  96.6951680  20.0421030  87.3629210  97.6436600
  19.3468420  87.7094400  96.3442690  28.6639110  91.6224740 103.9059830
  29.0319930  90.8019950 104.2339400  27.8037310  91.6826630 104.3215480
  32.0301140  90.5781680  94.7147390  31.4014300  90.6827350  94.0005620
  31.5353060  90.7978460  95.5041270  23.9985170  92.8567630  96.1305270
  23.2901320  93.3253970  96.5718880  24.2829650  92.1989640  96.7650460
  25.6241100  94.2764330 104.1297800  26.1226350  94.7510150 104.7949650
  25.7664050  93.3527850 104.3367830  28.0300600  89.5818290  97.5701060
  27.9068380  89.6004420  96.6210570  28.9785160  89.6297230  97.6899460
  22.2020190  91.1652710  93.5055980  23.0510720  91.6022860  93.4396170
  21.8351460  91.4772970  94.3328040  31.1229970  95.7365470  98.4187550
  30.1820110  95.7515700  98.5935240  31.4374040  94.9501430  98.8647850
  19.7958370  94.8510140  92.6624400  19.8761960  93.9037650  92.7741800
  20.6878120  95.1817020  92.7685060  24.5491800  88.9182360 103.8729810
  24.1009100  88.9406620 103.0275360  23.9157000  88.5201380 104.4700110
  22.0289540  93.4883430  90.8992310  21.8278600  92.6250790  91.2605650
  21.8581590  93.4016790  89.9613910  29.5077850  88.2991660  93.4279190
  29.7880140  87.4559560  93.7838610  28.7343580  88.5314770  93.9417940
  20.8272340  90.5884050  90.8870190  21.1298240  90.5951480  89.9789340
  21.5666930  90.2381910  91.3837850  24.0457270  89.5318670  91.8726390
  23.6979270  88.8542660  91.2928840  24.2470040  89.0708180  92.6869780
  17.3862910  96.0606320  98.2690760  16.7311750  95.7917960  97.6250460
  18.2240860  95.9510800  97.8192740  30.3353350  90.8547610  92.4909250
  30.7538230  90.6678590  91.6505910  30.0289410  90.0026660  92.8012180
  33.8343080  95.7671750  96.1885050  33.4586680  94.9999680  95.7566340
  33.1046200  96.1494450  96.6759980  18.4238840  96.4458890 102.8094100
  18.7911880  96.3586290 103.6890120  17.8549660  95.6825440 102.7100960
  16.6000990  93.2705250  94.2116090  15.6965070  93.5335450  94.0367750
  17.0841610  93.5416420  93.4316050  33.1094040  93.9929240  99.4892290
  33.6331520  93.4991890  98.8582460  33.6953460  94.1279600 100.2339860
  33.2883760  94.0769110 103.0111840  32.3386470  94.0432650 103.1256830
  33.4696770  94.9869220 102.7761610  19.1428200  92.3270790  92.1210470
  19.8519900  91.9054010  91.6357750  18.4268140  92.3946020  91.4893820
  18.7902360  88.3810120  91.1613120  19.5130490  88.9219060  91.4794340
  19.0626880  88.1073540  90.2854660  32.5994010  93.2502590  95.4284700
  33.0953130  93.0173460  96.2133580  32.4010080  92.4114430  95.0122340
  18.4794550  87.6316310 101.0635740  19.1270740  87.0813690 100.6230900
  18.8996390  87.8859460 101.8851550  34.0281170  91.8863540  97.9622380
  33.9180450  91.7319580  98.9004650  34.7888760  91.3584480  97.7197790
  32.3746890  87.8257670 104.4205380  33.0119110  88.4391810 104.7864570
  32.5221780  87.8618330 103.4754610  34.9171440  89.7171460  91.2028520
  35.8420750  89.5852640  90.9946810  34.8947230  89.7964280  92.1564970
  34.9909930  90.4882120  93.8285230  34.1961430  90.4227240  94.3578140
  35.1953210  91.4232760  93.8170580  18.2326550  87.7871980 103.8061060
  17.8841370  88.2435800 104.5719240  17.9014250  86.8929110 103.8883490
  29.1233970  87.1986060 103.2942060  28.2493810  87.5321170 103.0914990
  29.0144720  86.7259240 104.1193930  30.0305950  89.4056930 104.6783780
  29.7019310  88.5908690 104.2985510  30.9788250  89.3626740 104.5549470
  26.8708790  88.1155900 102.2334970  26.0880580  88.5901400 102.5131730
  26.5771720  87.2110730 102.1248150  31.4229860  88.8179000 100.2784060
  31.8637950  88.7624100  99.4305660  31.1537450  89.7337010 100.3494240
  33.2868430  88.4494240  98.2892880  33.2256830  87.5055460  98.1423900
  34.0660460  88.5574330  98.8346340  18.2149200  88.4203380  94.7548690
  18.9728560  88.5332260  94.1812720  17.7526370  89.2572580  94.7092120
  24.7563010  90.5342650  97.7451000  23.9437520  90.1599540  97.4046880
  25.2604650  89.7787730  98.0472190  29.2587990  87.1985100  98.9834070
  29.8617360  87.7705310  99.4582590  28.5180980  87.7624540  98.7607970
  32.4022590  87.6006660  94.2574350  32.5973220  88.4990110  94.5241780
  31.6152460  87.3693740  94.7507300  20.5874350  88.9467430  93.2950660
  21.1167110  88.1597230  93.1658610  21.2202670  89.6258620  93.5286190
  22.7812190  88.6842570  96.3496050  22.1514930  87.9829880  96.5166180
  22.2417330  89.4446700  96.1329210  28.4141360  95.3972600  79.7263750
  28.3335410  94.4827210  79.4555460  28.0005780  95.8939670  79.0203460
  18.9717180  92.4473320  76.2691170  18.0833880  92.7889290  76.1671050
  19.2558370  92.2473640  75.3772000  16.9350190  95.0478970  82.1530870
  17.5066300  94.2801170  82.1534510  16.9351730  95.3467730  81.2437480
  18.1775060  90.4563330  83.9399800  17.9977900  89.5589080  84.2202560
  17.7755140  91.0035200  84.6146750  27.0173560  92.6579190  81.8412110
  27.3938380  91.7851070  81.7285780  26.9193070  92.9937890  80.9502550
  21.1478570  91.0304820  77.3029550  21.2545320  91.9308550  77.6098310
  20.2370930  90.9822790  77.0124200  30.7997680  90.1529630  78.7740450
  31.6207300  89.6626200  78.8165930  30.8331760  90.7427290  79.5272290
  18.7961730  92.9523830  82.5482140  19.4771840  93.2162200  83.1669540
  18.4809780  92.1124700  82.8820150  22.9886300  93.9991190  81.6354730
  23.4964520  94.4972160  82.2759750  23.5199540  93.2226390  81.4594090
  35.0897230  92.1696380  85.3384080  34.3849400  92.5578090  84.8199190
  35.3555150  92.8646670  85.9405010  21.2722400  88.6389750  85.9018150
  21.2740840  89.1562140  85.0964050  20.4426710  88.1619930  85.8788080
  31.0359160  92.0930010  81.5467990  30.3314730  92.3814900  82.1271100
  31.3971320  92.9030120  81.1867550  20.9537730  90.3499710  83.9088600
  21.2954540  91.1941760  83.6142470  20.0153540  90.4983450  84.0253940
  34.1046080  91.5384800  81.9377200  33.1570990  91.5723780  82.0692630
  34.4296070  92.3523750  82.3226560  24.6365620  87.8381980  80.2333190
  24.9440600  87.2828870  79.5168690  23.7066320  87.9726440  80.0506180
  27.0246380  95.9030810  76.9693310  26.0975660  95.8368190  77.1981780
  27.1771200  96.8410940  76.8548550  27.0115460  92.1747810  73.9660470
  26.0719130  92.3361770  74.0512930  27.3298720  92.8933490  73.4196460
  30.4970230  93.6435650  84.8894370  30.0841410  94.4689360  85.1434360
  29.7646180  93.0580690  84.6970730  22.6303020  96.4295550  79.7513040
  22.2260020  95.7172800  79.2558940  22.7166140  96.0848790  80.6401080
  21.3431640  93.2038760  83.5312080  21.8946230  93.3134100  82.7565330
  21.8575150  93.5776360  84.2467310  32.8125510  87.9580730  72.7942350
  32.4998170  88.0507560  73.6941420  33.5737980  88.5361760  72.7439780
  19.3307650  95.3240530  77.2519690  19.2105250  96.0502620  76.6400960
  19.0208540  94.5543440  76.7747600  34.0226800  92.6952230  88.7716490
  33.4071070  93.2031900  88.2431950  33.7023220  91.7950560  88.7142430
  21.7971310  88.6675600  80.6343360  21.3539460  89.4485140  80.3027880
  22.3556300  88.9905490  81.3414300  26.0841120  91.5344120  86.2378680
  25.6220490  91.7427140  87.0498620  25.6819230  90.7203470  85.9349350
  31.0845630  92.7553070  87.3675340  30.2339220  92.4558820  87.6884410
  30.9247420  92.9995080  86.4559160  28.1795340  94.2554820  89.4674130
  28.5048750  93.4218570  89.1276360  28.9675670  94.7783340  89.6152460
  24.9130130  88.2886300  75.5149190  24.2884310  88.2846170  76.2402500
  24.8260250  87.4217260  75.1185160  23.8347210  89.2122930  82.4932960
  24.1319540  90.1185760  82.4124980  24.3832770  88.7241710  81.8792530
  21.5885530  93.7909170  78.3624610  21.3626450  93.5746340  79.2671230
  20.8078060  94.2237630  78.0170580  28.8183290  93.7972540  76.9615260
  28.2192180  94.5208340  76.7778880  29.3662900  93.7349320  76.1791710
  24.0284740  94.6894750  89.0284880  23.9328340  93.7489480  88.8785280
  24.8716720  94.9109820  88.6332950  27.4248160  92.4336080  78.9918540
  27.8177730  92.7508280  78.1787230  27.7865010  91.5547960  79.1063060
  19.1595280  91.1008420  87.1818660  18.7658670  91.9483630  87.3891440
  18.4713680  90.4634790  87.3727300  25.7340330  91.1843390  90.2515400
  25.0438650  90.9915590  90.8861490  26.4772630  91.4678030  90.7839700
  16.4612330  89.0236880  81.2148740  16.1725380  89.5939740  81.9273720
  17.2058090  88.5441330  81.5779970  16.6482560  92.9657000  72.4251460
  16.5657230  93.9087760  72.5666450  16.2965620  92.8231910  71.5463810
  28.0103300  95.0241830  83.0869320  27.2784420  95.5328640  83.4359420
  27.6127640  94.2071810  82.7858100  24.4480690  91.6996030  81.4921810
  24.4516750  91.2585980  80.6426350  25.3431810  92.0213360  81.5993630
  20.2983070  91.5822520  80.4516020  19.9583120  92.0597750  81.2083070
  19.5360390  91.1287640  80.0917120  24.5100840  92.7008110  74.4828570
  24.6313660  92.6594590  75.4314390  24.1249350  93.5632260  74.3275300
  28.4729210  90.4775510  82.4992260  28.4901950  90.9284160  83.3434110
  28.2244790  89.5781150  82.7125700  23.5222340  95.0109250  73.8811870
  22.9539240  94.5627500  73.2547780  24.2311340  95.3702030  73.3477020
  31.8999960  87.8907690  88.3378640  32.2245730  87.1597350  88.8636620
  31.9356470  87.5721330  87.4359630  24.7488660  95.7597810  83.2387220
  25.1158790  95.2856380  83.9848560  24.5593720  96.6339380  83.5795560
  17.6129150  90.5041500  79.3680690  17.3276070  90.1397170  80.2059310
  17.5508010  89.7721960  78.7543830  22.5388030  94.8006450  85.5571430
  22.2345100  95.6798430  85.7821790  23.4934490  94.8606240  85.5928870
  27.2867740  89.3970760  76.0894060  26.4732350  88.8983930  76.0139370
  27.0929690  90.2369010  75.6730410  30.0016130  93.7690410  74.3856220
  30.8895750  94.0807640  74.2107560  29.9721220  92.8962660  73.9936800
  18.5951760  95.6409190  86.7042790  18.2366700  96.3063040  87.2916130
  18.3006320  94.8092740  87.0755410  21.7964880  96.0993430  89.5882340
  21.4965020  96.2450610  88.6910160  22.5676120  95.5398720  89.4955730
  32.2730400  95.0802250  73.8536080  32.1894120  95.5116470  73.0032520
  32.9924590  95.5400600  74.2862900  17.1059810  95.6400450  73.3277390
  17.9754660  95.9225250  73.6113310  16.6150130  96.4536320  73.2126200
  20.1706400  87.3711310  77.9208190  20.0421030  87.3629210  78.8693110
  19.3468420  87.7094400  77.5699200  17.1700330  89.1302430  87.3814890
  16.4558850  89.3299350  87.9867500  17.5895370  88.3542000  87.7529690
  28.6639110  91.6224740  85.1316340  29.0319930  90.8019950  85.4595910
  27.8037310  91.6826630  85.5471990  32.0301140  90.5781680  75.9403900
  31.4014300  90.6827350  75.2262130  31.5353060  90.7978460  76.7297780
  23.9985170  92.8567630  77.3561780  23.2901320  93.3253970  77.7975390
  24.2829650  92.1989640  77.9906970  25.6241100  94.2764330  85.3554310
  26.1226350  94.7510150  86.0206160  25.7664050  93.3527850  85.5624340
  28.0300600  89.5818290  78.7957570  27.9068380  89.6004420  77.8467080
  28.9785160  89.6297230  78.9155970  22.2020190  91.1652710  74.7312490
  23.0510720  91.6022860  74.6652680  21.8351460  91.4772970  75.5584550
  32.8307960  90.4932290  86.1982700  32.3281560  91.2337690  86.5376510
  33.6464620  90.8816290  85.8819490  31.1229970  95.7365470  79.6444060
  30.1820110  95.7515700  79.8191750  31.4374040  94.9501430  80.0904360
  19.7958370  94.8510140  73.8880910  19.8761960  93.9037650  73.9998310
  20.6878120  95.1817020  73.9941570  17.3229170  96.6725060  89.1237080
  17.8268190  96.0932340  89.6953310  16.5836590  96.9565290  89.6613450
  19.3552250  94.8154650  90.0187150  19.3957590  94.5168520  90.9272380
  20.2097750  95.2162260  89.8594670  21.2958060  93.3946750  87.9861640
  20.7654520  92.9037700  87.3584980  21.9646130  93.8230950  87.4519570
  30.6658290  95.2012370  89.7541980  31.2479060  94.4464690  89.6662460
  30.8420060  95.7319810  88.9773460  21.7830360  90.3609120  88.0658930
  21.6887230  89.7429870  87.3409800  21.2027750  91.0875410  87.8388840
  24.5491800  88.9182360  85.0986320  24.1009100  88.9406620  84.2531870
  23.9157000  88.5201380  85.6956620  27.2915250  95.5452870  87.1036600
  27.4111460  94.9494010  87.8431440  28.1509250  95.5822560  86.6837900
  29.6303150  96.0990060  85.6799110  29.1038370  96.6232680  85.0764250
  29.9734490  96.7317450  86.3108840  22.0289540  93.4883430  72.1248820
  21.8278600  92.6250790  72.4862160  21.8581590  93.4016790  71.1870420
  24.0584020  92.0874220  88.3612420  24.6483710  91.7790070  89.0490240
  23.2404260  91.6153970  88.5172320  28.8777450  91.7040030  88.5945440
  28.1892970  91.0421570  88.5295430  29.5983470  91.2578300  89.0393900
  29.5077850  88.2991660  74.6535700  29.7880140  87.4559560  75.0095120
  28.7343580  88.5314770  75.1674450  20.8272340  90.5884050  72.1126700
  21.1298240  90.5951480  71.2045850  21.5666930  90.2381910  72.6094360
  24.0457270  89.5318670  73.0982900  23.6979270  88.8542660  72.5185350
  24.2470040  89.0708180  73.9126290  17.3862910  96.0606320  79.4947270
  16.7311750  95.7917960  78.8506970  18.2240860  95.9510800  79.0449250
  30.3353350  90.8547610  73.7165760  30.7538230  90.6678590  72.8762420
  30.0289410  90.0026660  74.0268690  33.8343080  95.7671750  77.4141560
  33.4586680  94.9999680  76.9822850  33.1046200  96.1494450  77.9016490
  18.4238840  96.4458890  84.0350610  18.7911880  96.3586290  84.9146630
  17.8549660  95.6825440  83.9357470  33.2242700  94.9143270  87.0481080
  32.9928790  94.6856020  86.1479030  33.4847250  95.8342820  87.0025970
  17.9754840  93.3567980  87.9409030  17.0810890  93.3234740  88.2802740
  18.5152390  93.5554770  88.7060280  31.6630770  90.1399700  89.8260780
  32.5400950  90.1483100  90.2094780  31.6751610  89.4030540  89.2153130
  16.6000990  93.2705250  75.4372600  15.6965070  93.5335450  75.2624260
  17.0841610  93.5416420  74.6572560  33.1094040  93.9929240  80.7148800
  33.6331520  93.4991890  80.0838970  33.6953460  94.1279600  81.4596370
  33.2883760  94.0769110  84.2368350  32.3386470  94.0432650  84.3513340
  33.4696770  94.9869220  84.0018120  19.1428200  92.3270790  73.3466980
  19.8519900  91.9054010  72.8614260  18.4268140  92.3946020  72.7150330
  18.7902360  88.3810120  72.3869630  19.5130490  88.9219060  72.7050850
  19.0626880  88.1073540  71.5111170  32.5994010  93.2502590  76.6541210
  33.0953130  93.0173460  77.4390090  32.4010080  92.4114430  76.2378850
  18.4794550  87.6316310  82.2892250  19.1270740  87.0813690  81.8487410
  18.8996390  87.8859460  83.1108060  34.0281170  91.8863540  79.1878890
  33.9180450  91.7319580  80.1261160  34.7888760  91.3584480  78.9454300
  32.3746890  87.8257670  85.6461890  33.0119110  88.4391810  86.0121080
  32.5221780  87.8618330  84.7011120  34.9171440  89.7171460  72.4285030
  35.8420750  89.5852640  72.2203320  34.8947230  89.7964280  73.3821480
  34.9909930  90.4882120  75.0541740  34.1961430  90.4227240  75.5834650
  35.1953210  91.4232760  75.0427090  18.2326550  87.7871980  85.0317570
  17.8841370  88.2435800  85.7975750  17.9014250  86.8929110  85.1140000
  25.7451370  88.9783860  88.5536990  25.6840260  89.5705690  89.3032400
  26.6851750  88.8709820  88.4087250  28.3825930  88.6353920  88.1929280
  28.9966340  88.9533210  87.5310360  28.9275490  88.1502510  88.8125140
  18.9047190  87.3148180  88.3068340  19.4530180  87.1336230  87.5434450
  18.9702500  86.5242290  88.8424650  29.1233970  87.1986060  84.5198570
  28.2493810  87.5321170  84.3171500  29.0144720  86.7259240  85.3450440
  30.0305950  89.4056930  85.9040290  29.7019310  88.5908690  85.5242020
  30.9788250  89.3626740  85.7805980  26.8708790  88.1155900  83.4591480
  26.0880580  88.5901400  83.7388240  26.5771720  87.2110730  83.3504660
  31.4229860  88.8179000  81.5040570  31.8637950  88.7624100  80.6562170
  31.1537450  89.7337010  81.5750750  33.2868430  88.4494240  79.5149390
  33.2256830  87.5055460  79.3680410  34.0660460  88.5574330  80.0602850
  18.2149200  88.4203380  75.9805200  18.9728560  88.5332260  75.4069230
  17.7526370  89.2572580  75.9348630  24.7563010  90.5342650  78.9707510
  23.9437520  90.1599540  78.6303390  25.2604650  89.7787730  79.2728700
  29.2587990  87.1985100  80.2090580  29.8617360  87.7705310  80.6839100
  28.5180980  87.7624540  79.9864480  32.4022590  87.6006660  75.4830860
  32.5973220  88.4990110  75.7498290  31.6152460  87.3693740  75.9763810
  20.5874350  88.9467430  74.5207170  21.1167110  88.1597230  74.3915120
  21.2202670  89.6258620  74.7542700  22.7812190  88.6842570  77.5752560
  22.1514930  87.9829880  77.7422690  22.2417330  89.4446700  77.3585720
  22.9067750  87.9626550  90.0105050  22.6252020  88.4660150  89.2465870
  23.2887450  87.1648300  89.6447180  29.5083210  87.3780130  90.5885520
  29.3948660  87.6974740  91.4837040  30.3252950  87.7792640  90.2922800
  28.4141360  95.3972600  60.9520260  28.3335410  94.4827210  60.6811970
  28.0005780  95.8939670  60.2459970  18.9717180  92.4473320  57.4947680
  18.0833880  92.7889290  57.3927560  19.2558370  92.2473640  56.6028510
  16.9350190  95.0478970  63.3787380  17.5066300  94.2801170  63.3791020
  16.9351730  95.3467730  62.4693990  18.1775060  90.4563330  65.1656310
  17.9977900  89.5589080  65.4459070  17.7755140  91.0035200  65.8403260
  27.0173560  92.6579190  63.0668620  27.3938380  91.7851070  62.9542290
  26.9193070  92.9937890  62.1759060  21.1478570  91.0304820  58.5286060
  21.2545320  91.9308550  58.8354820  20.2370930  90.9822790  58.2380710
  30.7997680  90.1529630  59.9996960  31.6207300  89.6626200  60.0422440
  30.8331760  90.7427290  60.7528800  18.7961730  92.9523830  63.7738650
  19.4771840  93.2162200  64.3926050  18.4809780  92.1124700  64.1076660
  22.9886300  93.9991190  62.8611240  23.4964520  94.4972160  63.5016260
  23.5199540  93.2226390  62.6850600  35.0897230  92.1696380  66.5640590
  34.3849400  92.5578090  66.0455700  35.3555150  92.8646670  67.1661520
  21.2722400  88.6389750  67.1274660  21.2740840  89.1562140  66.3220560
  20.4426710  88.1619930  67.1044590  31.0359160  92.0930010  62.7724500
  30.3314730  92.3814900  63.3527610  31.3971320  92.9030120  62.4124060
  20.9537730  90.3499710  65.1345110  21.2954540  91.1941760  64.8398980
  20.0153540  90.4983450  65.2510450  34.1046080  91.5384800  63.1633710
  33.1570990  91.5723780  63.2949140  34.4296070  92.3523750  63.5483070
  24.6365620  87.8381980  61.4589700  24.9440600  87.2828870  60.7425200
  23.7066320  87.9726440  61.2762690  27.0246380  95.9030810  58.1949820
  26.0975660  95.8368190  58.4238290  27.1771200  96.8410940  58.0805060
  27.0115460  92.1747810  55.1916980  26.0719130  92.3361770  55.2769440
  27.3298720  92.8933490  54.6452970  30.4970230  93.6435650  66.1150880
  30.0841410  94.4689360  66.3690870  29.7646180  93.0580690  65.9227240
  22.6303020  96.4295550  60.9769550  22.2260020  95.7172800  60.4815450
  22.7166140  96.0848790  61.8657590  21.3431640  93.2038760  64.7568590
  21.8946230  93.3134100  63.9821840  21.8575150  93.5776360  65.4723820
  32.8125510  87.9580730  54.0198860  32.4998170  88.0507560  54.9197930
  33.5737980  88.5361760  53.9696290  19.3307650  95.3240530  58.4776200
  19.2105250  96.0502620  57.8657470  19.0208540  94.5543440  58.0004110
  34.0226800  92.6952230  69.9973000  33.4071070  93.2031900  69.4688460
  33.7023220  91.7950560  69.9398940  21.7971310  88.6675600  61.8599870
  21.3539460  89.4485140  61.5284390  22.3556300  88.9905490  62.5670810
  26.0841120  91.5344120  67.4635190  25.6220490  91.7427140  68.2755130
  25.6819230  90.7203470  67.1605860  31.0845630  92.7553070  68.5931850
  30.2339220  92.4558820  68.9140920  30.9247420  92.9995080  67.6815670
  28.1795340  94.2554820  70.6930640  28.5048750  93.4218570  70.3532870
  28.9675670  94.7783340  70.8408970  24.9130130  88.2886300  56.7405700
  24.2884310  88.2846170  57.4659010  24.8260250  87.4217260  56.3441670
  23.8347210  89.2122930  63.7189470  24.1319540  90.1185760  63.6381490
  24.3832770  88.7241710  63.1049040  21.5885530  93.7909170  59.5881120
  21.3626450  93.5746340  60.4927740  20.8078060  94.2237630  59.2427090
  28.8183290  93.7972540  58.1871770  28.2192180  94.5208340  58.0035390
  29.3662900  93.7349320  57.4048220  24.0284740  94.6894750  70.2541390
  23.9328340  93.7489480  70.1041790  24.8716720  94.9109820  69.8589460
  27.4248160  92.4336080  60.2175050  27.8177730  92.7508280  59.4043740
  27.7865010  91.5547960  60.3319570  19.1595280  91.1008420  68.4075170
  18.7658670  91.9483630  68.6147950  18.4713680  90.4634790  68.5983810
  25.7340330  91.1843390  71.4771910  25.0438650  90.9915590  72.1118000
  26.4772630  91.4678030  72.0096210  16.4612330  89.0236880  62.4405250
  16.1725380  89.5939740  63.1530230  17.2058090  88.5441330  62.8036480
  16.6482560  92.9657000  53.6507970  16.5657230  93.9087760  53.7922960
  16.2965620  92.8231910  52.7720320  28.0103300  95.0241830  64.3125830
  27.2784420  95.5328640  64.6615930  27.6127640  94.2071810  64.0114610
  24.4480690  91.6996030  62.7178320  24.4516750  91.2585980  61.8682860
  25.3431810  92.0213360  62.8250140  20.2983070  91.5822520  61.6772530
  19.9583120  92.0597750  62.4339580  19.5360390  91.1287640  61.3173630
  24.5100840  92.7008110  55.7085080  24.6313660  92.6594590  56.6570900
  24.1249350  93.5632260  55.5531810  28.4729210  90.4775510  63.7248770
  28.4901950  90.9284160  64.5690620  28.2244790  89.5781150  63.9382210
  23.5222340  95.0109250  55.1068380  22.9539240  94.5627500  54.4804290
  24.2311340  95.3702030  54.5733530  31.8999960  87.8907690  69.5635150
  32.2245730  87.1597350  70.0893130  31.9356470  87.5721330  68.6616140
  24.7488660  95.7597810  64.4643730  25.1158790  95.2856380  65.2105070
  24.5593720  96.6339380  64.8052070  17.6129150  90.5041500  60.5937200
  17.3276070  90.1397170  61.4315820  17.5508010  89.7721960  59.9800340
  22.5388030  94.8006450  66.7827940  22.2345100  95.6798430  67.0078300
  23.4934490  94.8606240  66.8185380  27.2867740  89.3970760  57.3150570
  26.4732350  88.8983930  57.2395880  27.0929690  90.2369010  56.8986920
  30.0016130  93.7690410  55.6112730  30.8895750  94.0807640  55.4364070
  29.9721220  92.8962660  55.2193310  18.5951760  95.6409190  67.9299300
  18.2366700  96.3063040  68.5172640  18.3006320  94.8092740  68.3011920
  21.7964880  96.0993430  70.8138850  21.4965020  96.2450610  69.9166670
  22.5676120  95.5398720  70.7212240  32.2730400  95.0802250  55.0792590
  32.1894120  95.5116470  54.2289030  32.9924590  95.5400600  55.5119410
  17.1059810  95.6400450  54.5533900  17.9754660  95.9225250  54.8369820
  16.6150130  96.4536320  54.4382710  20.1706400  87.3711310  59.1464700
  20.0421030  87.3629210  60.0949620  19.3468420  87.7094400  58.7955710
  17.1700330  89.1302430  68.6071400  16.4558850  89.3299350  69.2124010
  17.5895370  88.3542000  68.9786200  28.6639110  91.6224740  66.3572850
  29.0319930  90.8019950  66.6852420  27.8037310  91.6826630  66.7728500
  32.0301140  90.5781680  57.1660410  31.4014300  90.6827350  56.4518640
  31.5353060  90.7978460  57.9554290  23.9985170  92.8567630  58.5818290
  23.2901320  93.3253970  59.0231900  24.2829650  92.1989640  59.2163480
  25.6241100  94.2764330  66.5810820  26.1226350  94.7510150  67.2462670
  25.7664050  93.3527850  66.7880850  28.0300600  89.5818290  60.0214080
  27.9068380  89.6004420  59.0723590  28.9785160  89.6297230  60.1412480
  22.2020190  91.1652710  55.9569000  23.0510720  91.6022860  55.8909190
  21.8351460  91.4772970  56.7841060  32.8307960  90.4932290  67.4239210
  32.3281560  91.2337690  67.7633020  33.6464620  90.8816290  67.1076000
  31.1229970  95.7365470  60.8700570  30.1820110  95.7515700  61.0448260
  31.4374040  94.9501430  61.3160870  19.7958370  94.8510140  55.1137420
  19.8761960  93.9037650  55.2254820  20.6878120  95.1817020  55.2198080
  17.3229170  96.6725060  70.3493590  17.8268190  96.0932340  70.9209820
  16.5836590  96.9565290  70.8869960  19.3552250  94.8154650  71.2443660
  19.3957590  94.5168520  72.1528890  20.2097750  95.2162260  71.0851180
  21.2958060  93.3946750  69.2118150  20.7654520  92.9037700  68.5841490
  21.9646130  93.8230950  68.6776080  30.6658290  95.2012370  70.9798490
  31.2479060  94.4464690  70.8918970  30.8420060  95.7319810  70.2029970
  21.7830360  90.3609120  69.2915440  21.6887230  89.7429870  68.5666310
  21.2027750  91.0875410  69.0645350  24.5491800  88.9182360  66.3242830
  24.1009100  88.9406620  65.4788380  23.9157000  88.5201380  66.9213130
  27.2915250  95.5452870  68.3293110  27.4111460  94.9494010  69.0687950
  28.1509250  95.5822560  67.9094410  29.6303150  96.0990060  66.9055620
  29.1038370  96.6232680  66.3020760  29.9734490  96.7317450  67.5365350
  22.0289540  93.4883430  53.3505330  21.8278600  92.6250790  53.7118670
  21.8581590  93.4016790  52.4126930  24.0584020  92.0874220  69.5868930
  24.6483710  91.7790070  70.2746750  23.2404260  91.6153970  69.7428830
  28.8777450  91.7040030  69.8201950  28.1892970  91.0421570  69.7551940
  29.5983470  91.2578300  70.2650410  29.5077850  88.2991660  55.8792210
  29.7880140  87.4559560  56.2351630  28.7343580  88.5314770  56.3930960
  20.8272340  90.5884050  53.3383210  21.1298240  90.5951480  52.4302360
  21.5666930  90.2381910  53.8350870  24.0457270  89.5318670  54.3239410
  23.6979270  88.8542660  53.7441860  24.2470040  89.0708180  55.1382800
  17.3862910  96.0606320  60.7203780  16.7311750  95.7917960  60.0763480
  18.2240860  95.9510800  60.2705760  30.3353350  90.8547610  54.9422270
  30.7538230  90.6678590  54.1018930  30.0289410  90.0026660  55.2525200
  33.8343080  95.7671750  58.6398070  33.4586680  94.9999680  58.2079360
  33.1046200  96.1494450  59.1273000  18.4238840  96.4458890  65.2607120
  18.7911880  96.3586290  66.1403140  17.8549660  95.6825440  65.1613980
  33.2242700  94.9143270  68.2737590  32.9928790  94.6856020  67.3735540
  33.4847250  95.8342820  68.2282480  17.9754840  93.3567980  69.1665540
  17.0810890  93.3234740  69.5059250  18.5152390  93.5554770  69.9316790
  31.6630770  90.1399700  71.0517290  32.5400950  90.1483100  71.4351290
  31.6751610  89.4030540  70.4409640  16.6000990  93.2705250  56.6629110
  15.6965070  93.5335450  56.4880770  17.0841610  93.5416420  55.8829070
  33.1094040  93.9929240  61.9405310  33.6331520  93.4991890  61.3095480
  33.6953460  94.1279600  62.6852880  33.2883760  94.0769110  65.4624860
  32.3386470  94.0432650  65.5769850  33.4696770  94.9869220  65.2274630
  19.1428200  92.3270790  54.5723490  19.8519900  91.9054010  54.0870770
  18.4268140  92.3946020  53.9406840  18.7902360  88.3810120  53.6126140
  19.5130490  88.9219060  53.9307360  19.0626880  88.1073540  52.7367680
  32.5994010  93.2502590  57.8797720  33.0953130  93.0173460  58.6646600
  32.4010080  92.4114430  57.4635360  18.4794550  87.6316310  63.5148760
  19.1270740  87.0813690  63.0743920  18.8996390  87.8859460  64.3364570
  34.0281170  91.8863540  60.4135400  33.9180450  91.7319580  61.3517670
  34.7888760  91.3584480  60.1710810  32.3746890  87.8257670  66.8718400
  33.0119110  88.4391810  67.2377590  32.5221780  87.8618330  65.9267630
  34.9171440  89.7171460  53.6541540  35.8420750  89.5852640  53.4459830
  34.8947230  89.7964280  54.6077990  34.9909930  90.4882120  56.2798250
  34.1961430  90.4227240  56.8091160  35.1953210  91.4232760  56.2683600
  18.2326550  87.7871980  66.2574080  17.8841370  88.2435800  67.0232260
  17.9014250  86.8929110  66.3396510  25.7451370  88.9783860  69.7793500
  25.6840260  89.5705690  70.5288910  26.6851750  88.8709820  69.6343760
  28.3825930  88.6353920  69.4185790  28.9966340  88.9533210  68.7566870
  28.9275490  88.1502510  70.0381650  18.9047190  87.3148180  69.5324850
  19.4530180  87.1336230  68.7690960  18.9702500  86.5242290  70.0681160
  29.1233970  87.1986060  65.7455080  28.2493810  87.5321170  65.5428010
  29.0144720  86.7259240  66.5706950  30.0305950  89.4056930  67.1296800
  29.7019310  88.5908690  66.7498530  30.9788250  89.3626740  67.0062490
  26.8708790  88.1155900  64.6847990  26.0880580  88.5901400  64.9644750
  26.5771720  87.2110730  64.5761170  31.4229860  88.8179000  62.7297080
  31.8637950  88.7624100  61.8818680  31.1537450  89.7337010  62.8007260
  33.2868430  88.4494240  60.7405900  33.2256830  87.5055460  60.5936920
  34.0660460  88.5574330  61.2859360  18.2149200  88.4203380  57.2061710
  18.9728560  88.5332260  56.6325740  17.7526370  89.2572580  57.1605140
  24.7563010  90.5342650  60.1964020  23.9437520  90.1599540  59.8559900
  25.2604650  89.7787730  60.4985210  29.2587990  87.1985100  61.4347090
  29.8617360  87.7705310  61.9095610  28.5180980  87.7624540  61.2120990
  32.4022590  87.6006660  56.7087370  32.5973220  88.4990110  56.9754800
  31.6152460  87.3693740  57.2020320  20.5874350  88.9467430  55.7463680
  21.1167110  88.1597230  55.6171630  21.2202670  89.6258620  55.9799210
  22.7812190  88.6842570  58.8009070  22.1514930  87.9829880  58.9679200
  22.2417330  89.4446700  58.5842230  22.9067750  87.9626550  71.2361560
  22.6252020  88.4660150  70.4722380  23.2887450  87.1648300  70.8703690
  29.5083210  87.3780130  71.8142030  29.3948660  87.6974740  72.7093550
  30.3252950  87.7792640  71.5179310  28.4141360  95.3972600  42.1776770
  28.3335410  94.4827210  41.9068480  28.0005780  95.8939670  41.4716480
  18.9717180  92.4473320  38.7204190  18.0833880  92.7889290  38.6184070
  19.2558370  92.2473640  37.8285020  16.9350190  95.0478970  44.6043890
  17.5066300  94.2801170  44.6047530  16.9351730  95.3467730  43.6950500
  18.1775060  90.4563330  46.3912820  17.9977900  89.5589080  46.6715580
  17.7755140  91.0035200  47.0659770  27.0173560  92.6579190  44.2925130
  27.3938380  91.7851070  44.1798800  26.9193070  92.9937890  43.4015570
  21.1478570  91.0304820  39.7542570  21.2545320  91.9308550  40.0611330
  20.2370930  90.9822790  39.4637220  30.7997680  90.1529630  41.2253470
  31.6207300  89.6626200  41.2678950  30.8331760  90.7427290  41.9785310
  18.7961730  92.9523830  44.9995160  19.4771840  93.2162200  45.6182560
  18.4809780  92.1124700  45.3333170  22.9886300  93.9991190  44.0867750
  23.4964520  94.4972160  44.7272770  23.5199540  93.2226390  43.9107110
  35.0897230  92.1696380  47.7897100  34.3849400  92.5578090  47.2712210
  35.3555150  92.8646670  48.3918030  21.2722400  88.6389750  48.3531170
  21.2740840  89.1562140  47.5477070  20.4426710  88.1619930  48.3301100
  31.0359160  92.0930010  43.9981010  30.3314730  92.3814900  44.5784120
  31.3971320  92.9030120  43.6380570  20.9537730  90.3499710  46.3601620
  21.2954540  91.1941760  46.0655490  20.0153540  90.4983450  46.4766960
  34.1046080  91.5384800  44.3890220  33.1570990  91.5723780  44.5205650
  34.4296070  92.3523750  44.7739580  24.6365620  87.8381980  42.6846210
  24.9440600  87.2828870  41.9681710  23.7066320  87.9726440  42.5019200
  27.0246380  95.9030810  39.4206330  26.0975660  95.8368190  39.6494800
  27.1771200  96.8410940  39.3061570  27.0115460  92.1747810  36.4173490
  26.0719130  92.3361770  36.5025950  27.3298720  92.8933490  35.8709480
  30.4970230  93.6435650  47.3407390  30.0841410  94.4689360  47.5947380
  29.7646180  93.0580690  47.1483750  22.6303020  96.4295550  42.2026060
  22.2260020  95.7172800  41.7071960  22.7166140  96.0848790  43.0914100
  21.3431640  93.2038760  45.9825100  21.8946230  93.3134100  45.2078350
  21.8575150  93.5776360  46.6980330  32.8125510  87.9580730  35.2455370
  32.4998170  88.0507560  36.1454440  33.5737980  88.5361760  35.1952800
  19.3307650  95.3240530  39.7032710  19.2105250  96.0502620  39.0913980
  19.0208540  94.5543440  39.2260620  34.0226800  92.6952230  51.2229510
  33.4071070  93.2031900  50.6944970  33.7023220  91.7950560  51.1655450
  21.7971310  88.6675600  43.0856380  21.3539460  89.4485140  42.7540900
  22.3556300  88.9905490  43.7927320  26.0841120  91.5344120  48.6891700
  25.6220490  91.7427140  49.5011640  25.6819230  90.7203470  48.3862370
  31.0845630  92.7553070  49.8188360  30.2339220  92.4558820  50.1397430
  30.9247420  92.9995080  48.9072180  28.1795340  94.2554820  51.9187150
  28.5048750  93.4218570  51.5789380  28.9675670  94.7783340  52.0665480
  24.9130130  88.2886300  37.9662210  24.2884310  88.2846170  38.6915520
  24.8260250  87.4217260  37.5698180  23.8347210  89.2122930  44.9445980
  24.1319540  90.1185760  44.8638000  24.3832770  88.7241710  44.3305550
  21.5885530  93.7909170  40.8137630  21.3626450  93.5746340  41.7184250
  20.8078060  94.2237630  40.4683600  28.8183290  93.7972540  39.4128280
  28.2192180  94.5208340  39.2291900  29.3662900  93.7349320  38.6304730
  24.0284740  94.6894750  51.4797900  23.9328340  93.7489480  51.3298300
  24.8716720  94.9109820  51.0845970  27.4248160  92.4336080  41.4431560
  27.8177730  92.7508280  40.6300250  27.7865010  91.5547960  41.5576080
  19.1595280  91.1008420  49.6331680  18.7658670  91.9483630  49.8404460
  18.4713680  90.4634790  49.8240320  25.7340330  91.1843390  52.7028420
  25.0438650  90.9915590  53.3374510  26.4772630  91.4678030  53.2352720
  16.4612330  89.0236880  43.6661760  16.1725380  89.5939740  44.3786740
  17.2058090  88.5441330  44.0292990  16.6482560  92.9657000  34.8764480
  16.5657230  93.9087760  35.0179470  16.2965620  92.8231910  33.9976830
  28.0103300  95.0241830  45.5382340  27.2784420  95.5328640  45.8872440
  27.6127640  94.2071810  45.2371120  24.4480690  91.6996030  43.9434830
  24.4516750  91.2585980  43.0939370  25.3431810  92.0213360  44.0506650
  20.2983070  91.5822520  42.9029040  19.9583120  92.0597750  43.6596090
  19.5360390  91.1287640  42.5430140  24.5100840  92.7008110  36.9341590
  24.6313660  92.6594590  37.8827410  24.1249350  93.5632260  36.7788320
  28.4729210  90.4775510  44.9505280  28.4901950  90.9284160  45.7947130
  28.2244790  89.5781150  45.1638720  23.5222340  95.0109250  36.3324890
  22.9539240  94.5627500  35.7060800  24.2311340  95.3702030  35.7990040
  31.8999960  87.8907690  50.7891660  32.2245730  87.1597350  51.3149640
  31.9356470  87.5721330  49.8872650  24.7488660  95.7597810  45.6900240
  25.1158790  95.2856380  46.4361580  24.5593720  96.6339380  46.0308580
  17.6129150  90.5041500  41.8193710  17.3276070  90.1397170  42.6572330
  17.5508010  89.7721960  41.2056850  22.5388030  94.8006450  48.0084450
  22.2345100  95.6798430  48.2334810  23.4934490  94.8606240  48.0441890
  27.2867740  89.3970760  38.5407080  26.4732350  88.8983930  38.4652390
  27.0929690  90.2369010  38.1243430  30.0016130  93.7690410  36.8369240
  30.8895750  94.0807640  36.6620580  29.9721220  92.8962660  36.4449820
  18.5951760  95.6409190  49.1555810  18.2366700  96.3063040  49.7429150
  18.3006320  94.8092740  49.5268430  21.7964880  96.0993430  52.0395360
  21.4965020  96.2450610  51.1423180  22.5676120  95.5398720  51.9468750
  32.2730400  95.0802250  36.3049100  32.1894120  95.5116470  35.4545540
  32.9924590  95.5400600  36.7375920  17.1059810  95.6400450  35.7790410
  17.9754660  95.9225250  36.0626330  16.6150130  96.4536320  35.6639220
  20.1706400  87.3711310  40.3721210  20.0421030  87.3629210  41.3206130
  19.3468420  87.7094400  40.0212220  17.1700330  89.1302430  49.8327910
  16.4558850  89.3299350  50.4380520  17.5895370  88.3542000  50.2042710
  28.6639110  91.6224740  47.5829360  29.0319930  90.8019950  47.9108930
  27.8037310  91.6826630  47.9985010  32.0301140  90.5781680  38.3916920
  31.4014300  90.6827350  37.6775150  31.5353060  90.7978460  39.1810800
  23.9985170  92.8567630  39.8074800  23.2901320  93.3253970  40.2488410
  24.2829650  92.1989640  40.4419990  25.6241100  94.2764330  47.8067330
  26.1226350  94.7510150  48.4719180  25.7664050  93.3527850  48.0137360
  28.0300600  89.5818290  41.2470590  27.9068380  89.6004420  40.2980100
  28.9785160  89.6297230  41.3668990  22.2020190  91.1652710  37.1825510
  23.0510720  91.6022860  37.1165700  21.8351460  91.4772970  38.0097570
  32.8307960  90.4932290  48.6495720  32.3281560  91.2337690  48.9889530
  33.6464620  90.8816290  48.3332510  31.1229970  95.7365470  42.0957080
  30.1820110  95.7515700  42.2704770  31.4374040  94.9501430  42.5417380
  19.7958370  94.8510140  36.3393930  19.8761960  93.9037650  36.4511330
  20.6878120  95.1817020  36.4454590  17.3229170  96.6725060  51.5750100
  17.8268190  96.0932340  52.1466330  16.5836590  96.9565290  52.1126470
  19.3552250  94.8154650  52.4700170  19.3957590  94.5168520  53.3785400
  20.2097750  95.2162260  52.3107690  21.2958060  93.3946750  50.4374660
  20.7654520  92.9037700  49.8098000  21.9646130  93.8230950  49.9032590
  30.6658290  95.2012370  52.2055000  31.2479060  94.4464690  52.1175480
  30.8420060  95.7319810  51.4286480  21.7830360  90.3609120  50.5171950
  21.6887230  89.7429870  49.7922820  21.2027750  91.0875410  50.2901860
  24.5491800  88.9182360  47.5499340  24.1009100  88.9406620  46.7044890
  23.9157000  88.5201380  48.1469640  27.2915250  95.5452870  49.5549620
  27.4111460  94.9494010  50.2944460  28.1509250  95.5822560  49.1350920
  29.6303150  96.0990060  48.1312130  29.1038370  96.6232680  47.5277270
  29.9734490  96.7317450  48.7621860  22.0289540  93.4883430  34.5761840
  21.8278600  92.6250790  34.9375180  21.8581590  93.4016790  33.6383440
  24.0584020  92.0874220  50.8125440  24.6483710  91.7790070  51.5003260
  23.2404260  91.6153970  50.9685340  28.8777450  91.7040030  51.0458460
  28.1892970  91.0421570  50.9808450  29.5983470  91.2578300  51.4906920
  29.5077850  88.2991660  37.1048720  29.7880140  87.4559560  37.4608140
  28.7343580  88.5314770  37.6187470  20.8272340  90.5884050  34.5639720
  21.1298240  90.5951480  33.6558870  21.5666930  90.2381910  35.0607380
  24.0457270  89.5318670  35.5495920  23.6979270  88.8542660  34.9698370
  24.2470040  89.0708180  36.3639310  17.3862910  96.0606320  41.9460290
  16.7311750  95.7917960  41.3019990  18.2240860  95.9510800  41.4962270
  30.3353350  90.8547610  36.1678780  30.7538230  90.6678590  35.3275440
  30.0289410  90.0026660  36.4781710  33.8343080  95.7671750  39.8654580
  33.4586680  94.9999680  39.4335870  33.1046200  96.1494450  40.3529510
  18.4238840  96.4458890  46.4863630  18.7911880  96.3586290  47.3659650
  17.8549660  95.6825440  46.3870490  33.2242700  94.9143270  49.4994100
  32.9928790  94.6856020  48.5992050  33.4847250  95.8342820  49.4538990
  17.9754840  93.3567980  50.3922050  17.0810890  93.3234740  50.7315760
  18.5152390  93.5554770  51.1573300  31.6630770  90.1399700  52.2773800
  32.5400950  90.1483100  52.6607800  31.6751610  89.4030540  51.6666150
  16.6000990  93.2705250  37.8885620  15.6965070  93.5335450  37.7137280
  17.0841610  93.5416420  37.1085580  33.1094040  93.9929240  43.1661820
  33.6331520  93.4991890  42.5351990  33.6953460  94.1279600  43.9109390
  33.2883760  94.0769110  46.6881370  32.3386470  94.0432650  46.8026360
  33.4696770  94.9869220  46.4531140  19.1428200  92.3270790  35.7980000
  19.8519900  91.9054010  35.3127280  18.4268140  92.3946020  35.1663350
  18.7902360  88.3810120  34.8382650  19.5130490  88.9219060  35.1563870
  19.0626880  88.1073540  33.9624190  32.5994010  93.2502590  39.1054230
  33.0953130  93.0173460  39.8903110  32.4010080  92.4114430  38.6891870
  18.4794550  87.6316310  44.7405270  19.1270740  87.0813690  44.3000430
  18.8996390  87.8859460  45.5621080  34.0281170  91.8863540  41.6391910
  33.9180450  91.7319580  42.5774180  34.7888760  91.3584480  41.3967320
  32.3746890  87.8257670  48.0974910  33.0119110  88.4391810  48.4634100
  32.5221780  87.8618330  47.1524140  34.9171440  89.7171460  34.8798050
  35.8420750  89.5852640  34.6716340  34.8947230  89.7964280  35.8334500
  34.9909930  90.4882120  37.5054760  34.1961430  90.4227240  38.0347670
  35.1953210  91.4232760  37.4940110  18.2326550  87.7871980  47.4830590
  17.8841370  88.2435800  48.2488770  17.9014250  86.8929110  47.5653020
  25.7451370  88.9783860  51.0050010  25.6840260  89.5705690  51.7545420
  26.6851750  88.8709820  50.8600270  28.3825930  88.6353920  50.6442300
  28.9966340  88.9533210  49.9823380  28.9275490  88.1502510  51.2638160
  18.9047190  87.3148180  50.7581360  19.4530180  87.1336230  49.9947470
  18.9702500  86.5242290  51.2937670  29.1233970  87.1986060  46.9711590
  28.2493810  87.5321170  46.7684520  29.0144720  86.7259240  47.7963460
  30.0305950  89.4056930  48.3553310  29.7019310  88.5908690  47.9755040
  30.9788250  89.3626740  48.2319000  26.8708790  88.1155900  45.9104500
  26.0880580  88.5901400  46.1901260  26.5771720  87.2110730  45.8017680
  31.4229860  88.8179000  43.9553590  31.8637950  88.7624100  43.1075190
  31.1537450  89.7337010  44.0263770  33.2868430  88.4494240  41.9662410
  33.2256830  87.5055460  41.8193430  34.0660460  88.5574330  42.5115870
  18.2149200  88.4203380  38.4318220  18.9728560  88.5332260  37.8582250
  17.7526370  89.2572580  38.3861650  24.7563010  90.5342650  41.4220530
  23.9437520  90.1599540  41.0816410  25.2604650  89.7787730  41.7241720
  29.2587990  87.1985100  42.6603600  29.8617360  87.7705310  43.1352120
  28.5180980  87.7624540  42.4377500  32.4022590  87.6006660  37.9343880
  32.5973220  88.4990110  38.2011310  31.6152460  87.3693740  38.4276830
  20.5874350  88.9467430  36.9720190  21.1167110  88.1597230  36.8428140
  21.2202670  89.6258620  37.2055720  22.7812190  88.6842570  40.0265580
  22.1514930  87.9829880  40.1935710  22.2417330  89.4446700  39.8098740
  22.9067750  87.9626550  52.4618070  22.6252020  88.4660150  51.6978890
  23.2887450  87.1648300  52.0960200  29.5083210  87.3780130  53.0398540
  29.3948660  87.6974740  53.9350060  30.3252950  87.7792640  52.7435820
  28.4141360  95.3972600  23.4033280  28.3335410  94.4827210  23.1324990
  28.0005780  95.8939670  22.6972990  18.9717180  92.4473320  19.9460700
  18.0833880  92.7889290  19.8440580  19.2558370  92.2473640  19.0541530
  16.9350190  95.0478970  25.8300400  17.5066300  94.2801170  25.8304040
  16.9351730  95.3467730  24.9207010  18.1775060  90.4563330  27.6169330
  17.9977900  89.5589080  27.8972090  17.7755140  91.0035200  28.2916280
  27.0173560  92.6579190  25.5181640  27.3938380  91.7851070  25.4055310
  26.9193070  92.9937890  24.6272080  21.1478570  91.0304820  20.9799080
  21.2545320  91.9308550  21.2867840  20.2370930  90.9822790  20.6893730
  30.7997680  90.1529630  22.4509980  31.6207300  89.6626200  22.4935460
  30.8331760  90.7427290  23.2041820  18.7961730  92.9523830  26.2251670
  19.4771840  93.2162200  26.8439070  18.4809780  92.1124700  26.5589680
  22.9886300  93.9991190  25.3124260  23.4964520  94.4972160  25.9529280
  23.5199540  93.2226390  25.1363620  35.0897230  92.1696380  29.0153610
  34.3849400  92.5578090  28.4968720  35.3555150  92.8646670  29.6174540
  21.2722400  88.6389750  29.5787680  21.2740840  89.1562140  28.7733580
  20.4426710  88.1619930  29.5557610  31.0359160  92.0930010  25.2237520
  30.3314730  92.3814900  25.8040630  31.3971320  92.9030120  24.8637080
  20.9537730  90.3499710  27.5858130  21.2954540  91.1941760  27.2912000
  20.0153540  90.4983450  27.7023470  34.1046080  91.5384800  25.6146730
  33.1570990  91.5723780  25.7462160  34.4296070  92.3523750  25.9996090
  24.6365620  87.8381980  23.9102720  24.9440600  87.2828870  23.1938220
  23.7066320  87.9726440  23.7275710  27.0246380  95.9030810  20.6462840
  26.0975660  95.8368190  20.8751310  27.1771200  96.8410940  20.5318080
  27.0115460  92.1747810  17.6430000  26.0719130  92.3361770  17.7282460
  27.3298720  92.8933490  17.0965990  30.4970230  93.6435650  28.5663900
  30.0841410  94.4689360  28.8203890  29.7646180  93.0580690  28.3740260
  22.6303020  96.4295550  23.4282570  22.2260020  95.7172800  22.9328470
  22.7166140  96.0848790  24.3170610  21.3431640  93.2038760  27.2081610
  21.8946230  93.3134100  26.4334860  21.8575150  93.5776360  27.9236840
  32.8125510  87.9580730  16.4711880  32.4998170  88.0507560  17.3710950
  33.5737980  88.5361760  16.4209310  19.3307650  95.3240530  20.9289220
  19.2105250  96.0502620  20.3170490  19.0208540  94.5543440  20.4517130
  34.0226800  92.6952230  32.4486020  33.4071070  93.2031900  31.9201480
  33.7023220  91.7950560  32.3911960  21.7971310  88.6675600  24.3112890
  21.3539460  89.4485140  23.9797410  22.3556300  88.9905490  25.0183830
  26.0841120  91.5344120  29.9148210  25.6220490  91.7427140  30.7268150
  25.6819230  90.7203470  29.6118880  31.0845630  92.7553070  31.0444870
  30.2339220  92.4558820  31.3653940  30.9247420  92.9995080  30.1328690
  28.1795340  94.2554820  33.1443660  28.5048750  93.4218570  32.8045890
  28.9675670  94.7783340  33.2921990  24.9130130  88.2886300  19.1918720
  24.2884310  88.2846170  19.9172030  24.8260250  87.4217260  18.7954690
  23.8347210  89.2122930  26.1702490  24.1319540  90.1185760  26.0894510
  24.3832770  88.7241710  25.5562060  21.5885530  93.7909170  22.0394140
  21.3626450  93.5746340  22.9440760  20.8078060  94.2237630  21.6940110
  28.8183290  93.7972540  20.6384790  28.2192180  94.5208340  20.4548410
  29.3662900  93.7349320  19.8561240  24.0284740  94.6894750  32.7054410
  23.9328340  93.7489480  32.5554810  24.8716720  94.9109820  32.3102480
  27.4248160  92.4336080  22.6688070  27.8177730  92.7508280  21.8556760
  27.7865010  91.5547960  22.7832590  19.1595280  91.1008420  30.8588190
  18.7658670  91.9483630  31.0660970  18.4713680  90.4634790  31.0496830
  25.7340330  91.1843390  33.9284930  25.0438650  90.9915590  34.5631020
  26.4772630  91.4678030  34.4609230  16.4612330  89.0236880  24.8918270
  16.1725380  89.5939740  25.6043250  17.2058090  88.5441330  25.2549500
  16.6482560  92.9657000  16.1020990  16.5657230  93.9087760  16.2435980
  16.2965620  92.8231910  15.2233340  28.0103300  95.0241830  26.7638850
  27.2784420  95.5328640  27.1128950  27.6127640  94.2071810  26.4627630
  24.4480690  91.6996030  25.1691340  24.4516750  91.2585980  24.3195880
  25.3431810  92.0213360  25.2763160  20.2983070  91.5822520  24.1285550
  19.9583120  92.0597750  24.8852600  19.5360390  91.1287640  23.7686650
  24.5100840  92.7008110  18.1598100  24.6313660  92.6594590  19.1083920
  24.1249350  93.5632260  18.0044830  28.4729210  90.4775510  26.1761790
  28.4901950  90.9284160  27.0203640  28.2244790  89.5781150  26.3895230
  23.5222340  95.0109250  17.5581400  22.9539240  94.5627500  16.9317310
  24.2311340  95.3702030  17.0246550  31.8999960  87.8907690  32.0148170
  32.2245730  87.1597350  32.5406150  31.9356470  87.5721330  31.1129160
  24.7488660  95.7597810  26.9156750  25.1158790  95.2856380  27.6618090
  24.5593720  96.6339380  27.2565090  17.6129150  90.5041500  23.0450220
  17.3276070  90.1397170  23.8828840  17.5508010  89.7721960  22.4313360
  22.5388030  94.8006450  29.2340960  22.2345100  95.6798430  29.4591320
  23.4934490  94.8606240  29.2698400  27.2867740  89.3970760  19.7663590
  26.4732350  88.8983930  19.6908900  27.0929690  90.2369010  19.3499940
  30.0016130  93.7690410  18.0625750  30.8895750  94.0807640  17.8877090
  29.9721220  92.8962660  17.6706330  18.5951760  95.6409190  30.3812320
  18.2366700  96.3063040  30.9685660  18.3006320  94.8092740  30.7524940
  21.7964880  96.0993430  33.2651870  21.4965020  96.2450610  32.3679690
  22.5676120  95.5398720  33.1725260  32.2730400  95.0802250  17.5305610
  32.1894120  95.5116470  16.6802050  32.9924590  95.5400600  17.9632430
  17.1059810  95.6400450  17.0046920  17.9754660  95.9225250  17.2882840
  16.6150130  96.4536320  16.8895730  20.1706400  87.3711310  21.5977720
  20.0421030  87.3629210  22.5462640  19.3468420  87.7094400  21.2468730
  17.1700330  89.1302430  31.0584420  16.4558850  89.3299350  31.6637030
  17.5895370  88.3542000  31.4299220  28.6639110  91.6224740  28.8085870
  29.0319930  90.8019950  29.1365440  27.8037310  91.6826630  29.2241520
  32.0301140  90.5781680  19.6173430  31.4014300  90.6827350  18.9031660
  31.5353060  90.7978460  20.4067310  23.9985170  92.8567630  21.0331310
  23.2901320  93.3253970  21.4744920  24.2829650  92.1989640  21.6676500
  25.6241100  94.2764330  29.0323840  26.1226350  94.7510150  29.6975690
  25.7664050  93.3527850  29.2393870  28.0300600  89.5818290  22.4727100
  27.9068380  89.6004420  21.5236610  28.9785160  89.6297230  22.5925500
  22.2020190  91.1652710  18.4082020  23.0510720  91.6022860  18.3422210
  21.8351460  91.4772970  19.2354080  32.8307960  90.4932290  29.8752230
  32.3281560  91.2337690  30.2146040  33.6464620  90.8816290  29.5589020
  31.1229970  95.7365470  23.3213590  30.1820110  95.7515700  23.4961280
  31.4374040  94.9501430  23.7673890  19.7958370  94.8510140  17.5650440
  19.8761960  93.9037650  17.6767840  20.6878120  95.1817020  17.6711100
  17.3229170  96.6725060  32.8006610  17.8268190  96.0932340  33.3722840
  16.5836590  96.9565290  33.3382980  19.3552250  94.8154650  33.6956680
  19.3957590  94.5168520  34.6041910  20.2097750  95.2162260  33.5364200
  21.2958060  93.3946750  31.6631170  20.7654520  92.9037700  31.0354510
  21.9646130  93.8230950  31.1289100  30.6658290  95.2012370  33.4311510
  31.2479060  94.4464690  33.3431990  30.8420060  95.7319810  32.6542990
  21.7830360  90.3609120  31.7428460  21.6887230  89.7429870  31.0179330
  21.2027750  91.0875410  31.5158370  24.5491800  88.9182360  28.7755850
  24.1009100  88.9406620  27.9301400  23.9157000  88.5201380  29.3726150
  27.2915250  95.5452870  30.7806130  27.4111460  94.9494010  31.5200970
  28.1509250  95.5822560  30.3607430  29.6303150  96.0990060  29.3568640
  29.1038370  96.6232680  28.7533780  29.9734490  96.7317450  29.9878370
  22.0289540  93.4883430  15.8018350  21.8278600  92.6250790  16.1631690
  21.8581590  93.4016790  14.8639950  24.0584020  92.0874220  32.0381950
  24.6483710  91.7790070  32.7259770  23.2404260  91.6153970  32.1941850
  28.8777450  91.7040030  32.2714970  28.1892970  91.0421570  32.2064960
  29.5983470  91.2578300  32.7163430  29.5077850  88.2991660  18.3305230
  29.7880140  87.4559560  18.6864650  28.7343580  88.5314770  18.8443980
  20.8272340  90.5884050  15.7896230  21.1298240  90.5951480  14.8815380
  21.5666930  90.2381910  16.2863890  24.0457270  89.5318670  16.7752430
  23.6979270  88.8542660  16.1954880  24.2470040  89.0708180  17.5895820
  17.3862910  96.0606320  23.1716800  16.7311750  95.7917960  22.5276500
  18.2240860  95.9510800  22.7218780  30.3353350  90.8547610  17.3935290
  30.7538230  90.6678590  16.5531950  30.0289410  90.0026660  17.7038220
  33.8343080  95.7671750  21.0911090  33.4586680  94.9999680  20.6592380
  33.1046200  96.1494450  21.5786020  18.4238840  96.4458890  27.7120140
  18.7911880  96.3586290  28.5916160  17.8549660  95.6825440  27.6127000
  33.2242700  94.9143270  30.7250610  32.9928790  94.6856020  29.8248560
  33.4847250  95.8342820  30.6795500  17.9754840  93.3567980  31.6178560
  17.0810890  93.3234740  31.9572270  18.5152390  93.5554770  32.3829810
  31.6630770  90.1399700  33.5030310  32.5400950  90.1483100  33.8864310
  31.6751610  89.4030540  32.8922660  16.6000990  93.2705250  19.1142130
  15.6965070  93.5335450  18.9393790  17.0841610  93.5416420  18.3342090
  33.1094040  93.9929240  24.3918330  33.6331520  93.4991890  23.7608500
  33.6953460  94.1279600  25.1365900  33.2883760  94.0769110  27.9137880
  32.3386470  94.0432650  28.0282870  33.4696770  94.9869220  27.6787650
  19.1428200  92.3270790  17.0236510  19.8519900  91.9054010  16.5383790
  18.4268140  92.3946020  16.3919860  18.7902360  88.3810120  16.0639160
  19.5130490  88.9219060  16.3820380  19.0626880  88.1073540  15.1880700
  32.5994010  93.2502590  20.3310740  33.0953130  93.0173460  21.1159620
  32.4010080  92.4114430  19.9148380  18.4794550  87.6316310  25.9661780
  19.1270740  87.0813690  25.5256940  18.8996390  87.8859460  26.7877590
  34.0281170  91.8863540  22.8648420  33.9180450  91.7319580  23.8030690
  34.7888760  91.3584480  22.6223830  32.3746890  87.8257670  29.3231420
  33.0119110  88.4391810  29.6890610  32.5221780  87.8618330  28.3780650
  34.9171440  89.7171460  16.1054560  35.8420750  89.5852640  15.8972850
  34.8947230  89.7964280  17.0591010  34.9909930  90.4882120  18.7311270
  34.1961430  90.4227240  19.2604180  35.1953210  91.4232760  18.7196620
  18.2326550  87.7871980  28.7087100  17.8841370  88.2435800  29.4745280
  17.9014250  86.8929110  28.7909530  25.7451370  88.9783860  32.2306520
  25.6840260  89.5705690  32.9801930  26.6851750  88.8709820  32.0856780
  28.3825930  88.6353920  31.8698810  28.9966340  88.9533210  31.2079890
  28.9275490  88.1502510  32.4894670  18.9047190  87.3148180  31.9837870
  19.4530180  87.1336230  31.2203980  18.9702500  86.5242290  32.5194180
  29.1233970  87.1986060  28.1968100  28.2493810  87.5321170  27.9941030
  29.0144720  86.7259240  29.0219970  30.0305950  89.4056930  29.5809820
  29.7019310  88.5908690  29.2011550  30.9788250  89.3626740  29.4575510
  26.8708790  88.1155900  27.1361010  26.0880580  88.5901400  27.4157770
  26.5771720  87.2110730  27.0274190  31.4229860  88.8179000  25.1810100
  31.8637950  88.7624100  24.3331700  31.1537450  89.7337010  25.2520280
  33.2868430  88.4494240  23.1918920  33.2256830  87.5055460  23.0449940
  34.0660460  88.5574330  23.7372380  18.2149200  88.4203380  19.6574730
  18.9728560  88.5332260  19.0838760  17.7526370  89.2572580  19.6118160
  24.7563010  90.5342650  22.6477040  23.9437520  90.1599540  22.3072920
  25.2604650  89.7787730  22.9498230  29.2587990  87.1985100  23.8860110
  29.8617360  87.7705310  24.3608630  28.5180980  87.7624540  23.6634010
  32.4022590  87.6006660  19.1600390  32.5973220  88.4990110  19.4267820
  31.6152460  87.3693740  19.6533340  20.5874350  88.9467430  18.1976700
  21.1167110  88.1597230  18.0684650  21.2202670  89.6258620  18.4312230
  22.7812190  88.6842570  21.2522090  22.1514930  87.9829880  21.4192220
  22.2417330  89.4446700  21.0355250  22.9067750  87.9626550  33.6874580
  22.6252020  88.4660150  32.9235400  23.2887450  87.1648300  33.3216710
  29.5083210  87.3780130  34.2655050  29.3948660  87.6974740  35.1606570
  30.3252950  87.7792640  33.9692330  28.4141360  95.3972600   4.6289790
  28.3335410  94.4827210   4.3581500  28.0005780  95.8939670   3.9229500
  16.9350190  95.0478970   7.0556910  17.5066300  94.2801170   7.0560550
  16.9351730  95.3467730   6.1463520  18.1775060  90.4563330   8.8425840
  17.9977900  89.5589080   9.1228600  17.7755140  91.0035200   9.5172790
  27.0173560  92.6579190   6.7438150  27.3938380  91.7851070   6.6311820
  26.9193070  92.9937890   5.8528590  21.1478570  91.0304820   2.2055590
  21.2545320  91.9308550   2.5124350  20.2370930  90.9822790   1.9150240
  30.7997680  90.1529630   3.6766490  31.6207300  89.6626200   3.7191970
  30.8331760  90.7427290   4.4298330  18.7961730  92.9523830   7.4508180
  19.4771840  93.2162200   8.0695580  18.4809780  92.1124700   7.7846190
  22.9886300  93.9991190   6.5380770  23.4964520  94.4972160   7.1785790
  23.5199540  93.2226390   6.3620130  35.0897230  92.1696380  10.2410120
  34.3849400  92.5578090   9.7225230  35.3555150  92.8646670  10.8431050
  21.2722400  88.6389750  10.8044190  21.2740840  89.1562140   9.9990090
  20.4426710  88.1619930  10.7814120  31.0359160  92.0930010   6.4494030
  30.3314730  92.3814900   7.0297140  31.3971320  92.9030120   6.0893590
  20.9537730  90.3499710   8.8114640  21.2954540  91.1941760   8.5168510
  20.0153540  90.4983450   8.9279980  34.1046080  91.5384800   6.8403240
  33.1570990  91.5723780   6.9718670  34.4296070  92.3523750   7.2252600
  24.6365620  87.8381980   5.1359230  24.9440600  87.2828870   4.4194730
  23.7066320  87.9726440   4.9532220  27.0246380  95.9030810   1.8719350
  26.0975660  95.8368190   2.1007820  27.1771200  96.8410940   1.7574590
  30.4970230  93.6435650   9.7920410  30.0841410  94.4689360  10.0460400
  29.7646180  93.0580690   9.5996770  22.6303020  96.4295550   4.6539080
  22.2260020  95.7172800   4.1584980  22.7166140  96.0848790   5.5427120
  21.3431640  93.2038760   8.4338120  21.8946230  93.3134100   7.6591370
  21.8575150  93.5776360   9.1493350  19.3307650  95.3240530   2.1545730
  19.2105250  96.0502620   1.5427000  19.0208540  94.5543440   1.6773640
  34.0226800  92.6952230  13.6742530  33.4071070  93.2031900  13.1457990
  33.7023220  91.7950560  13.6168470  21.7971310  88.6675600   5.5369400
  21.3539460  89.4485140   5.2053920  22.3556300  88.9905490   6.2440340
  26.0841120  91.5344120  11.1404720  25.6220490  91.7427140  11.9524660
  25.6819230  90.7203470  10.8375390  31.0845630  92.7553070  12.2701380
  30.2339220  92.4558820  12.5910450  30.9247420  92.9995080  11.3585200
  28.1795340  94.2554820  14.3700170  28.5048750  93.4218570  14.0302400
  28.9675670  94.7783340  14.5178500  23.8347210  89.2122930   7.3959000
  24.1319540  90.1185760   7.3151020  24.3832770  88.7241710   6.7818570
  21.5885530  93.7909170   3.2650650  21.3626450  93.5746340   4.1697270
  20.8078060  94.2237630   2.9196620  24.0284740  94.6894750  13.9310920
  23.9328340  93.7489480  13.7811320  24.8716720  94.9109820  13.5358990
  27.4248160  92.4336080   3.8944580  27.8177730  92.7508280   3.0813270
  27.7865010  91.5547960   4.0089100  19.1595280  91.1008420  12.0844700
  18.7658670  91.9483630  12.2917480  18.4713680  90.4634790  12.2753340
  25.7340330  91.1843390  15.1541440  25.0438650  90.9915590  15.7887530
  26.4772630  91.4678030  15.6865740  16.4612330  89.0236880   6.1174780
  16.1725380  89.5939740   6.8299760  17.2058090  88.5441330   6.4806010
  28.0103300  95.0241830   7.9895360  27.2784420  95.5328640   8.3385460
  27.6127640  94.2071810   7.6884140  24.4480690  91.6996030   6.3947850
  24.4516750  91.2585980   5.5452390  25.3431810  92.0213360   6.5019670
  20.2983070  91.5822520   5.3542060  19.9583120  92.0597750   6.1109110
  19.5360390  91.1287640   4.9943160  28.4729210  90.4775510   7.4018300
  28.4901950  90.9284160   8.2460150  28.2244790  89.5781150   7.6151740
  31.8999960  87.8907690  13.2404680  32.2245730  87.1597350  13.7662660
  31.9356470  87.5721330  12.3385670  24.7488660  95.7597810   8.1413260
  25.1158790  95.2856380   8.8874600  24.5593720  96.6339380   8.4821600
  17.6129150  90.5041500   4.2706730  17.3276070  90.1397170   5.1085350
  17.5508010  89.7721960   3.6569870  22.5388030  94.8006450  10.4597470
  22.2345100  95.6798430  10.6847830  23.4934490  94.8606240  10.4954910
  18.5951760  95.6409190  11.6068830  18.2366700  96.3063040  12.1942170
  18.3006320  94.8092740  11.9781450  21.7964880  96.0993430  14.4908380
  21.4965020  96.2450610  13.5936200  22.5676120  95.5398720  14.3981770
  20.1706400  87.3711310   2.8234230  20.0421030  87.3629210   3.7719150
  19.3468420  87.7094400   2.4725240  17.1700330  89.1302430  12.2840930
  16.4558850  89.3299350  12.8893540  17.5895370  88.3542000  12.6555730
  28.6639110  91.6224740  10.0342380  29.0319930  90.8019950  10.3621950
  27.8037310  91.6826630  10.4498030  23.9985170  92.8567630   2.2587820
  23.2901320  93.3253970   2.7001430  24.2829650  92.1989640   2.8933010
  25.6241100  94.2764330  10.2580350  26.1226350  94.7510150  10.9232200
  25.7664050  93.3527850  10.4650380  28.0300600  89.5818290   3.6983610
  27.9068380  89.6004420   2.7493120  28.9785160  89.6297230   3.8182010
  32.8307960  90.4932290  11.1008740  32.3281560  91.2337690  11.4402550
  33.6464620  90.8816290  10.7845530  31.1229970  95.7365470   4.5470100
  30.1820110  95.7515700   4.7217790  31.4374040  94.9501430   4.9930400
  17.3229170  96.6725060  14.0263120  17.8268190  96.0932340  14.5979350
  16.5836590  96.9565290  14.5639490  19.3552250  94.8154650  14.9213190
  19.3957590  94.5168520  15.8298420  20.2097750  95.2162260  14.7620710
  21.2958060  93.3946750  12.8887680  20.7654520  92.9037700  12.2611020
  21.9646130  93.8230950  12.3545610  30.6658290  95.2012370  14.6568020
  31.2479060  94.4464690  14.5688500  30.8420060  95.7319810  13.8799500
  21.7830360  90.3609120  12.9684970  21.6887230  89.7429870  12.2435840
  21.2027750  91.0875410  12.7414880  24.5491800  88.9182360  10.0012360
  24.1009100  88.9406620   9.1557910  23.9157000  88.5201380  10.5982660
  27.2915250  95.5452870  12.0062640  27.4111460  94.9494010  12.7457480
  28.1509250  95.5822560  11.5863940  29.6303150  96.0990060  10.5825150
  29.1038370  96.6232680   9.9790290  29.9734490  96.7317450  11.2134880
  24.0584020  92.0874220  13.2638460  24.6483710  91.7790070  13.9516280
  23.2404260  91.6153970  13.4198360  28.8777450  91.7040030  13.4971480
  28.1892970  91.0421570  13.4321470  29.5983470  91.2578300  13.9419940
  17.3862910  96.0606320   4.3973310  16.7311750  95.7917960   3.7533010
  18.2240860  95.9510800   3.9475290  33.8343080  95.7671750   2.3167600
  33.4586680  94.9999680   1.8848890  33.1046200  96.1494450   2.8042530
  18.4238840  96.4458890   8.9376650  18.7911880  96.3586290   9.8172670
  17.8549660  95.6825440   8.8383510  33.2242700  94.9143270  11.9507120
  32.9928790  94.6856020  11.0505070  33.4847250  95.8342820  11.9052010
  17.9754840  93.3567980  12.8435070  17.0810890  93.3234740  13.1828780
  18.5152390  93.5554770  13.6086320  31.6630770  90.1399700  14.7286820
  32.5400950  90.1483100  15.1120820  31.6751610  89.4030540  14.1179170
  33.1094040  93.9929240   5.6174840  33.6331520  93.4991890   4.9865010
  33.6953460  94.1279600   6.3622410  33.2883760  94.0769110   9.1394390
  32.3386470  94.0432650   9.2539380  33.4696770  94.9869220   8.9044160
  18.4794550  87.6316310   7.1918290  19.1270740  87.0813690   6.7513450
  18.8996390  87.8859460   8.0134100  34.0281170  91.8863540   4.0904930
  33.9180450  91.7319580   5.0287200  34.7888760  91.3584480   3.8480340
  32.3746890  87.8257670  10.5487930  33.0119110  88.4391810  10.9147120
  32.5221780  87.8618330   9.6037160  18.2326550  87.7871980   9.9343610
  17.8841370  88.2435800  10.7001790  17.9014250  86.8929110  10.0166040
  25.7451370  88.9783860  13.4563030  25.6840260  89.5705690  14.2058440
  26.6851750  88.8709820  13.3113290  28.3825930  88.6353920  13.0955320
  28.9966340  88.9533210  12.4336400  28.9275490  88.1502510  13.7151180
  18.9047190  87.3148180  13.2094380  19.4530180  87.1336230  12.4460490
  18.9702500  86.5242290  13.7450690  29.1233970  87.1986060   9.4224610
  28.2493810  87.5321170   9.2197540  29.0144720  86.7259240  10.2476480
  30.0305950  89.4056930  10.8066330  29.7019310  88.5908690  10.4268060
  30.9788250  89.3626740  10.6832020  26.8708790  88.1155900   8.3617520
  26.0880580  88.5901400   8.6414280  26.5771720  87.2110730   8.2530700
  31.4229860  88.8179000   6.4066610  31.8637950  88.7624100   5.5588210
  31.1537450  89.7337010   6.4776790  33.2868430  88.4494240   4.4175430
  33.2256830  87.5055460   4.2706450  34.0660460  88.5574330   4.9628890
  24.7563010  90.5342650   3.8733550  23.9437520  90.1599540   3.5329430
  25.2604650  89.7787730   4.1754740  29.2587990  87.1985100   5.1116620
  29.8617360  87.7705310   5.5865140  28.5180980  87.7624540   4.8890520
  22.7812190  88.6842570   2.4778600  22.1514930  87.9829880   2.6448730
  22.2417330  89.4446700   2.2611760  22.9067750  87.9626550  14.9131090
  22.6252020  88.4660150  14.1491910  23.2887450  87.1648300  14.5473220
  29.5083210  87.3780130  15.4911560  29.3948660  87.6974740  16.3863080
  30.3252950  87.7792640  15.1948840  28.4141360  76.6229110  98.5007240
  28.3335410  75.7083720  98.2298950  28.0005780  77.1196180  97.7946950
  26.5459400  78.4008130 100.3816510  25.7701500  77.9208570 100.6715080
  27.1972330  77.7213780 100.2072670  20.5625230  78.7127940 101.2592270
  19.7310110  78.4576650 101.6588780  21.1706210  78.7838710 101.9950190
  30.5666830  82.8068320  99.1615640  30.1048360  82.0355560  99.4902810
  31.3792380  82.8334390  99.6668090  20.5426490  82.7468030 101.4550290
  20.8454530  81.8565770 101.2760510  21.2870080  83.3038250 101.2272540
  18.9717180  73.6729830  95.0434660  18.0833880  74.0145800  94.9414540
  19.2558370  73.4730150  94.1515490  16.9350190  76.2735480 100.9274360
  17.5066300  75.5057680 100.9278000  16.9351730  76.5724240 100.0180970
  26.7930140  85.0926330  98.7819630  26.1741580  85.5483830  98.2114070
  27.6481920  85.2477790  98.3809330  25.9868390  81.0765320 100.3886670
  25.9176670  80.1355260 100.2275800  26.7488250  81.1666730 100.9609240
  18.1775060  71.6819840 102.7143290  17.9977900  70.7845590 102.9946050
  17.7755140  72.2291710 103.3890240  27.0173560  73.8835700 100.6155600
  27.3938380  73.0107580 100.5029270  26.9193070  74.2194400  99.7246040
  21.1478570  72.2561330  96.0773040  21.2545320  73.1565060  96.3841800
  20.2370930  72.2079300  95.7867690  30.7997680  71.3786140  97.5483940
  31.6207300  70.8882710  97.5909420  30.8331760  71.9683800  98.3015780
  18.7961730  74.1780340 101.3225630  19.4771840  74.4418710 101.9413030
  18.4809780  73.3381210 101.6563640  22.9886300  75.2247700 100.4098220
  23.4964520  75.7228670 101.0503240  23.5199540  74.4482900 100.2337580
  35.0897230  73.3952890 104.1127570  34.3849400  73.7834600 103.5942680
  35.3555150  74.0903180 104.7148500  21.2722400  69.8646260 104.6761640
  21.2740840  70.3818650 103.8707540  20.4426710  69.3876440 104.6531570
  27.6593490  79.9765570  96.1751540  27.0410760  80.4415020  95.6114260
  28.1716740  80.6693050  96.5921050  22.5225250  79.5041440 102.8535140
  22.1894630  80.1310360 103.4956210  22.6991930  80.0303320 102.0736810
  31.0359160  73.3186520 100.3211480  30.3314730  73.6071410 100.9014590
  31.3971320  74.1286630  99.9611040  20.9537730  71.5756220 102.6832090
  21.2954540  72.4198270 102.3885960  20.0153540  71.7239960 102.7997430
  21.7344350  81.4722240 104.6684320  22.3518350  82.1473320 104.3868770
  20.8737470  81.8810220 104.5771820  17.0276690  80.6622100  93.5491170
  16.6504670  81.1509200  92.8176070  17.2849760  81.3347380  94.1797700
  32.6521940  82.9361650 102.5838960  31.9685460  83.6060760 102.5755630
  33.1916230  83.1342300 101.8183820  34.1046080  72.7641310 100.7120690
  33.1570990  72.7980290 100.8436120  34.4296070  73.5780260 101.0970050
  24.6365620  69.0638490  99.0076680  24.9440600  68.5085380  98.2912180
  23.7066320  69.1982950  98.8249670  30.1880680  84.7805780 101.2984140
  30.2007840  84.3768070 100.4306400  29.6355900  85.5553070 101.1945570
  31.4826100  81.5022000  96.3874310  31.3722430  80.5596330  96.5123730
  31.4794350  81.8637640  97.2737070  29.5866120  79.6835620 102.6266750
  30.0034910  79.4695730 101.7920210  30.3105940  79.9408410 103.1975370
  27.0246380  77.1287320  95.7436800  26.0975660  77.0624700  95.9725270
  27.1771200  78.0667450  95.6292040  27.0115460  73.4004320  92.7403960
  26.0719130  73.5618280  92.8256420  27.3298720  74.1190000  92.1939950
  33.5328220  78.0822840 102.7182990  32.7046850  78.1515930 102.2433120
  34.1278700  78.6677150 102.2498820  31.0543670  78.6907620  96.2472050
  30.4356090  78.3527170  95.5998350  31.0368120  78.0467380  96.9551240
  30.4970230  74.8692160 103.6637860  30.0841410  75.6945870 103.9177850
  29.7646180  74.2837200 103.4714220  22.6303020  77.6552060  98.5256530
  22.2260020  76.9429310  98.0302430  22.7166140  77.3105300  99.4144570
  23.0984720  81.3419620 100.6895740  22.8013010  80.7365090 100.0103520
  24.0484540  81.3796930 100.5785100  21.3431640  74.4295270 102.3055570
  21.8946230  74.5390610 101.5308820  21.8575150  74.8032870 103.0210800
  31.1870330  84.9151490 104.3518840  30.7100890  85.7223680 104.1591450
  30.5032120  84.2629820 104.5045050  29.2308370  77.9294430  93.2544800
  29.6701650  77.0916860  93.1082620  29.9436790  78.5623830  93.3408940
  27.3403750  82.8690500  97.2226040  27.7799660  83.6114830  96.8081430
  27.2790640  83.1117070  98.1465000  32.8125510  69.1837240  91.5685840
  32.4998170  69.2764070  92.4684910  33.5737980  69.7618270  91.5183270
  19.3307650  76.5497040  96.0263180  19.2105250  77.2759130  95.4144450
  19.0208540  75.7799950  95.5491090  16.9693020  79.7212180 101.8331820
  17.0473440  79.8560950 100.8887540  17.5834700  79.0128070 102.0259940
  18.2140650  81.4212370  98.2438000  17.8068730  81.5626960  97.3891600
  19.1053660  81.1372530  98.0409210  30.0073930  85.8559620  94.5789050
  29.8475070  85.5662560  95.4770880  29.8420640  85.0799750  94.0434280
  22.4862310  85.6358150  96.3560670  22.3104790  84.7193690  96.1428470
  21.6318050  85.9945440  96.5958470  29.7100060  83.3647180  93.1387050
  29.0165220  83.3624470  92.4789330  30.4522920  82.9406500  92.7081220
  29.2749990  84.9909890  97.2135540  29.7306940  84.2099270  97.5274160
  29.6142510  85.7016710  97.7576720  21.7971310  69.8932110  99.4086850
  21.3539460  70.6741650  99.0771370  22.3556300  70.2162000 100.1157790
  24.9130130  69.5142810  94.2892680  24.2884310  69.5102680  95.0145990
  24.8260250  68.6473770  93.8928650  23.8347210  70.4379440 101.2676450
  24.1319540  71.3442270 101.1868470  24.3832770  69.9498220 100.6536020
  21.5885530  75.0165680  97.1368100  21.3626450  74.8002850  98.0414720
  20.8078060  75.4494140  96.7914070  28.8183290  75.0229050  95.7358750
  28.2192180  75.7464850  95.5522370  29.3662900  74.9605830  94.9535200
  27.4248160  73.6592590  97.7662030  27.8177730  73.9764790  96.9530720
  27.7865010  72.7804470  97.8806550  16.4612330  70.2493390  99.9892230
  16.1725380  70.8196250 100.7017210  17.2058090  69.7697840 100.3523460
  16.6482560  74.1913510  91.1994950  16.5657230  75.1344270  91.3409940
  16.2965620  74.0488420  90.3207300  28.0103300  76.2498340 101.8612810
  27.2784420  76.7585150 102.2102910  27.6127640  75.4328320 101.5601590
  24.4480690  72.9252540 100.2665300  24.4516750  72.4842490  99.4169840
  25.3431810  73.2469870 100.3737120  20.2983070  72.8079030  99.2259510
  19.9583120  73.2854260  99.9826560  19.5360390  72.3544150  98.8660610
  24.5100840  73.9264620  93.2572060  24.6313660  73.8851100  94.2057880
  24.1249350  74.7888770  93.1018790  28.4729210  71.7032020 101.2735750
  28.4901950  72.1540670 102.1177600  28.2244790  70.8037660 101.4869190
  23.5222340  76.2365760  92.6555360  22.9539240  75.7884010  92.0291270
  24.2311340  76.5958540  92.1220510  24.7488660  76.9854320 102.0130710
  25.1158790  76.5112890 102.7592050  24.5593720  77.8595890 102.3539050
  17.6129150  71.7298010  98.1424180  17.3276070  71.3653680  98.9802800
  17.5508010  70.9978470  97.5287320  22.5388030  76.0262960 104.3314920
  22.2345100  76.9054940 104.5565280  23.4934490  76.0862750 104.3672360
  21.0669820  80.2323950  94.9281770  20.2932080  79.6921570  94.7680490
  21.7964450  79.7130560  94.5899530  31.8257800  79.2289310 100.7208160
  32.5456920  79.7244600 100.3304270  31.6239620  78.5507200 100.0762030
  27.2867740  70.6227270  94.8637550  26.4732350  70.1240440  94.7882860
  27.0929690  71.4625520  94.4473900  30.0016130  74.9946920  93.1599710
  30.8895750  75.3064150  92.9851050  29.9721220  74.1219170  92.7680290
  21.1107220  79.9004330  98.5660580  21.6285890  79.0972590  98.5117470
  20.6591240  79.8383470  99.4077410  25.9976720  81.1670610  93.8387880
  26.3392420  81.9112840  93.3431200  25.1689430  81.4801730  94.2012710
  32.2730400  76.3058760  92.6279570  32.1894120  76.7372980  91.7776010
  32.9924590  76.7657110  93.0606390  33.3017650  83.1601020  95.3561700
  32.6593810  82.5056640  95.6305420  32.9148310  83.5656110  94.5802370
  28.8804130  80.4886450  99.2033390  29.2327950  79.8914580  98.5434760
  27.9966460  80.1630680  99.3741640  24.9667410  81.2484140  96.6103800
  25.6538540  81.7953350  96.9911390  24.1799830  81.7924870  96.6453410
  17.1059810  76.8656960  92.1020880  17.9754660  77.1481760  92.3856800
  16.6150130  77.6792830  91.9869690  24.2694620  78.2530170  96.2229160
  24.7257400  79.0635420  96.4489350  23.9182830  77.9353310  97.0547650
  26.5727230  83.7636510 103.4521460  27.2169450  83.9695890 104.1294880
  26.9356670  83.0024910 102.9992310  20.1706400  68.5967820  96.6951680
  20.0421030  68.5885720  97.6436600  19.3468420  68.9350910  96.3442690
  27.8459310  81.7668860 102.1698910  28.4881540  81.0662020 102.2831080
  28.3708660  82.5467300 101.9895800  31.6915030  82.0517480  91.8938050
  31.4652610  81.3347920  92.4862690  31.3011230  81.8029920  91.0559800
  17.4731060  86.0784340  92.6682510  17.8328700  86.6773680  92.0139780
  17.3323400  86.6244230  93.4417540  31.2731280  79.9689420  93.5552210
  30.9852980  80.4302110  94.3430090  32.0683450  79.5087190  93.8236430
  23.4899680  83.4615540  93.4856180  23.4809780  84.1945230  92.8700690
  22.5698040  83.2147120  93.5783140  19.0906320  78.6830430  94.2302940
  18.4834270  79.4229330  94.2398240  19.5655670  78.7729790  93.4041140
  28.6639110  72.8481250 103.9059830  29.0319930  72.0276460 104.2339400
  27.8037310  72.9083140 104.3215480  32.0301140  71.8038190  94.7147390
  31.4014300  71.9083860  94.0005620  31.5353060  72.0234970  95.5041270
  26.4759280  83.5243780  92.1481370  26.5771260  83.3207770  91.2183350
  25.5761020  83.2702060  92.3529150  23.9985170  74.0824140  96.1305270
  23.2901320  74.5510480  96.5718880  24.2829650  73.4246150  96.7650460
  25.6241100  75.5020840 104.1297800  26.1226350  75.9766660 104.7949650
  25.7664050  74.5784360 104.3367830  28.0300600  70.8074800  97.5701060
  27.9068380  70.8260930  96.6210570  28.9785160  70.8553740  97.6899460
  25.1177390  86.0430100  96.8429040  25.3718890  86.0051490  95.9208410
  24.1689870  85.9163430  96.8357290  22.2020190  72.3909220  93.5055980
  23.0510720  72.8279370  93.4396170  21.8351460  72.7029480  94.3328040
  31.1229970  76.9621980  98.4187550  30.1820110  76.9772210  98.5935240
  31.4374040  76.1757940  98.8647850  21.1011610  78.6441580  91.9791510
  21.8674880  78.5322940  92.5416940  21.1786300  77.9479550  91.3268280
  19.7958370  76.0766650  92.6624400  19.8761960  75.1294160  92.7741800
  20.6878120  76.4073530  92.7685060  33.1255550  84.1330830 100.0941810
  33.2502970  84.9562000 100.5665620  33.9921110  83.9221560  99.7465960
  20.5973080  86.2262040  99.7658940  21.3335560  85.6777500 100.0367510
  20.9814000  87.0918050  99.6264930  17.4818560  82.2935610  95.6400450
  16.5558340  82.5356750  95.6305860  17.9474990  83.1209870  95.5185200
  23.7075390  85.3992350  91.5884510  24.5004000  85.6881180  91.1366300
  23.1879740  84.9684520  90.9096990  32.7605560  84.6262480  93.0121250
  32.4747070  84.2127620  92.1975430  32.5625110  85.5550190  92.8921770
  24.2252790  80.6195760  91.4526860  24.1203430  80.0048110  92.1788240
  24.0577010  80.0961650  90.6689870  27.4655520  79.6815790  92.0568850
  26.9165620  80.1285090  92.7011590  28.0874780  79.1765040  92.5806520
  23.1330640  78.6406710  93.9534150  23.5547060  78.4746580  94.7965540
  23.2581480  77.8306940  93.4589290  25.6458280  77.6644320  91.2011250
  26.1663940  76.9493340  90.8352400  26.2926680  78.3030190  91.5011760
  24.5491800  70.1438870 103.8729810  24.1009100  70.1663130 103.0275360
  23.9157000  69.7457890 104.4700110  24.9551350  79.0393200 104.4942250
  25.3739460  79.8825930 104.3218490  24.0359980  79.1765240 104.2649030
  22.0289540  74.7139940  90.8992310  21.8278600  73.8507300  91.2605650
  21.8581590  74.6273300  89.9613910  29.5077850  69.5248170  93.4279190
  29.7880140  68.6816070  93.7838610  28.7343580  69.7571280  93.9417940
  20.8272340  71.8140560  90.8870190  21.1298240  71.8207990  89.9789340
  21.5666930  71.4638420  91.3837850  24.0457270  70.7575180  91.8726390
  23.6979270  70.0799170  91.2928840  24.2470040  70.2964690  92.6869780
  26.2106310  85.7455930  93.4912990  27.1057100  86.0840900  93.5131750
  26.2423940  85.0235340  92.8637270  19.8502470  81.1182980  91.7199990
  20.2877340  81.6612650  92.3757570  20.3350200  80.2929930  91.7296330
  17.0648270  83.9072010  99.1720250  17.3951280  83.0393070  98.9398890
  17.4939270  84.1130530 100.0025210  21.6610190  82.2381020  96.8322220
  21.3605730  82.1145990  97.7326130  21.5547680  81.3789610  96.4237950
  17.5538480  84.7742600 101.9101880  17.1169470  84.9543400 102.7426030
  18.1216160  85.5317220 101.7683600  34.4302110  82.0177420  91.5348900
  33.5995070  82.0854070  92.0056130  34.6073940  82.9081540  91.2315760
  33.8858570  78.7624900  94.0383100  34.6477480  79.3321550  94.1442790
  33.9012940  78.1952100  94.8091410  17.3862910  77.2862830  98.2690760
  16.7311750  77.0174470  97.6250460  18.2240860  77.1767310  97.8192740
  34.8918540  79.6175000  98.8825030  35.2627370  78.8342320  98.4761000
  35.5320470  80.3064100  98.7042330  31.8752300  81.0011580 104.2955350
  31.0612140  81.4308740 104.5581140  32.2826500  81.6129990 103.6824400
  33.9377740  79.0559270  91.1955620  34.2126580  79.9638150  91.0674840
  33.7488480  78.9921800  92.1317610  30.3353350  72.0804120  92.4909250
  30.7538230  71.8935100  91.6505910  30.0289410  71.2283170  92.8012180
  33.8343080  76.9928260  96.1885050  33.4586680  76.2256190  95.7566340
  33.1046200  77.3750960  96.6759980  18.4238840  77.6715400 102.8094100
  18.7911880  77.5842800 103.6890120  17.8549660  76.9081950 102.7100960
  16.6000990  74.4961760  94.2116090  15.6965070  74.7591960  94.0367750
  17.0841610  74.7672930  93.4316050  33.1094040  75.2185750  99.4892290
  33.6331520  74.7248400  98.8582460  33.6953460  75.3536110 100.2339860
  33.2883760  75.3025620 103.0111840  32.3386470  75.2689160 103.1256830
  33.4696770  76.2125730 102.7761610  19.1428200  73.5527300  92.1210470
  19.8519900  73.1310520  91.6357750  18.4268140  73.6202530  91.4893820
  18.7902360  69.6066630  91.1613120  19.5130490  70.1475570  91.4794340
  19.0626880  69.3330050  90.2854660  32.5994010  74.4759100  95.4284700
  33.0953130  74.2429970  96.2133580  32.4010080  73.6370940  95.0122340
  18.4794550  68.8572820 101.0635740  19.1270740  68.3070200 100.6230900
  18.8996390  69.1115970 101.8851550  34.0281170  73.1120050  97.9622380
  33.9180450  72.9576090  98.9004650  34.7888760  72.5840990  97.7197790
  32.3746890  69.0514180 104.4205380  33.0119110  69.6648320 104.7864570
  32.5221780  69.0874840 103.4754610  34.9171440  70.9427970  91.2028520
  35.8420750  70.8109150  90.9946810  34.8947230  71.0220790  92.1564970
  34.9909930  71.7138630  93.8285230  34.1961430  71.6483750  94.3578140
  35.1953210  72.6489270  93.8170580  31.9328350  85.7530180  97.8223620
  32.5287420  85.4314750  97.1458040  32.1906500  85.2802000  98.6136890
  18.2326550  69.0128490 103.8061060  17.8841370  69.4692310 104.5719240
  17.9014250  68.1185620 103.8883490  23.5396950  83.7407680 103.5723970
  23.2988310  84.0082240 102.6854490  24.4799590  83.9113410 103.6274830
  34.8001110  85.7602060 104.3734610  34.3059390  86.1570930 103.6561740
  34.1914400  85.1351270 104.7671890  29.1233970  68.4242570 103.2942060
  28.2493810  68.7577680 103.0914990  29.0144720  67.9515750 104.1193930
  30.0305950  70.6313440 104.6783780  29.7019310  69.8165200 104.2985510
  30.9788250  70.5883250 104.5549470  32.4840560  86.4025480 101.6521350
  32.0243530  87.1541290 101.2779370  31.8553020  85.6831950 101.5936150
  19.3091180  82.4968720 104.0420070  18.5825240  81.8774010 103.9746020
  19.3700330  82.8909330 103.1718150  22.9136280  84.7113720 100.8269480
  23.4301300  84.1001080 100.3017740  23.5633660  85.2142500 101.3180490
  25.6531780  85.6022210 101.6538460  25.9409590  85.3476510 100.7771470
  26.1655000  85.0499570 102.2444030  26.8708790  69.3412410 102.2334970
  26.0880580  69.8157910 102.5131730  26.5771720  68.4367240 102.1248150
  31.4229860  70.0435510 100.2784060  31.8637950  69.9880610  99.4305660
  31.1537450  70.9593520 100.3494240  33.2868430  69.6750750  98.2892880
  33.2256830  68.7311970  98.1423900  34.0660460  69.7830840  98.8346340
  17.5921180  85.8143110  97.2516830  17.4243220  85.1813790  97.9498720
  16.7255690  86.0202510  96.9011020  18.2149200  69.6459890  94.7548690
  18.9728560  69.7588770  94.1812720  17.7526370  70.4829090  94.7092120
  24.7563010  71.7599160  97.7451000  23.9437520  71.3856050  97.4046880
  25.2604650  71.0044240  98.0472190  29.2587990  68.4241610  98.9834070
  29.8617360  68.9961820  99.4582590  28.5180980  68.9881050  98.7607970
  32.4022590  68.8263170  94.2574350  32.5973220  69.7246620  94.5241780
  31.6152460  68.5950250  94.7507300  19.1983880  84.5076340  94.6966970
  18.6731500  84.8884370  93.9928930  19.1228460  85.1327110  95.4176680
  20.5874350  70.1723940  93.2950660  21.1167110  69.3853740  93.1658610
  21.2202670  70.8515130  93.5286190  22.7812190  69.9099080  96.3496050
  22.1514930  69.2086390  96.5166180  22.2417330  70.6703210  96.1329210
  33.9549200  86.0663880  96.0180910  34.1301390  85.3801620  95.3741830
  33.2570770  86.5910930  95.6257580  21.7976850  86.4558720  93.5716220
  22.5295670  86.1718000  93.0240110  22.0570520  86.2172000  94.4615600
  20.9591640  82.5723450  93.5762550  20.3300520  83.0408550  94.1248380
  21.0739470  81.7272670  94.0108740  28.4141360  76.6229110  79.7263750
  28.3335410  75.7083720  79.4555460  28.0005780  77.1196180  79.0203460
  26.5459400  78.4008130  81.6073020  25.7701500  77.9208570  81.8971590
  27.1972330  77.7213780  81.4329180  20.5625230  78.7127940  82.4848780
  19.7310110  78.4576650  82.8845290  21.1706210  78.7838710  83.2206700
  30.5666830  82.8068320  80.3872150  30.1048360  82.0355560  80.7159320
  31.3792380  82.8334390  80.8924600  20.5426490  82.7468030  82.6806800
  20.8454530  81.8565770  82.5017020  21.2870080  83.3038250  82.4529050
  18.9717180  73.6729830  76.2691170  18.0833880  74.0145800  76.1671050
  19.2558370  73.4730150  75.3772000  16.9350190  76.2735480  82.1530870
  17.5066300  75.5057680  82.1534510  16.9351730  76.5724240  81.2437480
  26.7930140  85.0926330  80.0076140  26.1741580  85.5483830  79.4370580
  27.6481920  85.2477790  79.6065840  25.9868390  81.0765320  81.6143180
  25.9176670  80.1355260  81.4532310  26.7488250  81.1666730  82.1865750
  18.1775060  71.6819840  83.9399800  17.9977900  70.7845590  84.2202560
  17.7755140  72.2291710  84.6146750  27.0173560  73.8835700  81.8412110
  27.3938380  73.0107580  81.7285780  26.9193070  74.2194400  80.9502550
  21.1478570  72.2561330  77.3029550  21.2545320  73.1565060  77.6098310
  20.2370930  72.2079300  77.0124200  30.7997680  71.3786140  78.7740450
  31.6207300  70.8882710  78.8165930  30.8331760  71.9683800  79.5272290
  18.7961730  74.1780340  82.5482140  19.4771840  74.4418710  83.1669540
  18.4809780  73.3381210  82.8820150  22.9886300  75.2247700  81.6354730
  23.4964520  75.7228670  82.2759750  23.5199540  74.4482900  81.4594090
  35.0897230  73.3952890  85.3384080  34.3849400  73.7834600  84.8199190
  35.3555150  74.0903180  85.9405010  21.2722400  69.8646260  85.9018150
  21.2740840  70.3818650  85.0964050  20.4426710  69.3876440  85.8788080
  27.6593490  79.9765570  77.4008050  27.0410760  80.4415020  76.8370770
  28.1716740  80.6693050  77.8177560  22.5225250  79.5041440  84.0791650
  22.1894630  80.1310360  84.7212720  22.6991930  80.0303320  83.2993320
  31.0359160  73.3186520  81.5467990  30.3314730  73.6071410  82.1271100
  31.3971320  74.1286630  81.1867550  20.9537730  71.5756220  83.9088600
  21.2954540  72.4198270  83.6142470  20.0153540  71.7239960  84.0253940
  21.7344350  81.4722240  85.8940830  22.3518350  82.1473320  85.6125280
  20.8737470  81.8810220  85.8028330  17.0276690  80.6622100  74.7747680
  16.6504670  81.1509200  74.0432580  17.2849760  81.3347380  75.4054210
  32.6521940  82.9361650  83.8095470  31.9685460  83.6060760  83.8012140
  33.1916230  83.1342300  83.0440330  34.1046080  72.7641310  81.9377200
  33.1570990  72.7980290  82.0692630  34.4296070  73.5780260  82.3226560
  24.6365620  69.0638490  80.2333190  24.9440600  68.5085380  79.5168690
  23.7066320  69.1982950  80.0506180  30.1880680  84.7805780  82.5240650
  30.2007840  84.3768070  81.6562910  29.6355900  85.5553070  82.4202080
  31.4826100  81.5022000  77.6130820  31.3722430  80.5596330  77.7380240
  31.4794350  81.8637640  78.4993580  29.5866120  79.6835620  83.8523260
  30.0034910  79.4695730  83.0176720  30.3105940  79.9408410  84.4231880
  27.0246380  77.1287320  76.9693310  26.0975660  77.0624700  77.1981780
  27.1771200  78.0667450  76.8548550  27.0115460  73.4004320  73.9660470
  26.0719130  73.5618280  74.0512930  27.3298720  74.1190000  73.4196460
  33.5328220  78.0822840  83.9439500  32.7046850  78.1515930  83.4689630
  34.1278700  78.6677150  83.4755330  31.0543670  78.6907620  77.4728560
  30.4356090  78.3527170  76.8254860  31.0368120  78.0467380  78.1807750
  30.4970230  74.8692160  84.8894370  30.0841410  75.6945870  85.1434360
  29.7646180  74.2837200  84.6970730  22.6303020  77.6552060  79.7513040
  22.2260020  76.9429310  79.2558940  22.7166140  77.3105300  80.6401080
  23.0984720  81.3419620  81.9152250  22.8013010  80.7365090  81.2360030
  24.0484540  81.3796930  81.8041610  21.3431640  74.4295270  83.5312080
  21.8946230  74.5390610  82.7565330  21.8575150  74.8032870  84.2467310
  31.1870330  84.9151490  85.5775350  30.7100890  85.7223680  85.3847960
  30.5032120  84.2629820  85.7301560  22.1903150  81.0801310  88.5660050
  21.2931680  81.3041280  88.8133450  22.2156020  81.2036250  87.6171450
  29.2308370  77.9294430  74.4801310  29.6701650  77.0916860  74.3339130
  29.9436790  78.5623830  74.5665450  21.0174370  77.9514630  87.1417420
  20.8782140  78.8237430  87.5104820  20.1355730  77.6087440  86.9965360
  27.3403750  82.8690500  78.4482550  27.7799660  83.6114830  78.0337940
  27.2790640  83.1117070  79.3721510  22.8154720  83.8936330  89.3502570
  22.7870150  84.2979280  88.4831000  22.6519690  82.9646690  89.1874170
  32.8125510  69.1837240  72.7942350  32.4998170  69.2764070  73.6941420
  33.5737980  69.7618270  72.7439780  19.3307650  76.5497040  77.2519690
  19.2105250  77.2759130  76.6400960  19.0208540  75.7799950  76.7747600
  34.7669540  84.6763430  90.6466740  35.2429260  85.1546320  91.3255820
  35.3876700  84.6080920  89.9212240  16.9693020  79.7212180  83.0588330
  17.0473440  79.8560950  82.1144050  17.5834700  79.0128070  83.2516450
  18.2140650  81.4212370  79.4694510  17.8068730  81.5626960  78.6148110
  19.1053660  81.1372530  79.2665720  34.1702790  81.8676280  87.8066750
  34.2965850  81.6288160  86.8883930  34.2124170  81.0360820  88.2788830
  28.0319530  85.5704280  86.3761560  28.5464200  85.4812290  87.1783990
  27.1888610  85.9163980  86.6689470  30.0073930  85.8559620  75.8045560
  29.8475070  85.5662560  76.7027390  29.8420640  85.0799750  75.2690790
  22.4862310  85.6358150  77.5817180  22.3104790  84.7193690  77.3684980
  21.6318050  85.9945440  77.8214980  29.7100060  83.3647180  74.3643560
  29.0165220  83.3624470  73.7045840  30.4522920  82.9406500  73.9337730
  29.2749990  84.9909890  78.4392050  29.7306940  84.2099270  78.7530670
  29.6142510  85.7016710  78.9833230  34.0226800  73.9208740  88.7716490
  33.4071070  74.4288410  88.2431950  33.7023220  73.0207070  88.7142430
  17.0252540  80.7626350  85.5982790  17.1883580  80.2931710  84.7802160
  17.4904990  80.2549910  86.2631630  21.7971310  69.8932110  80.6343360
  21.3539460  70.6741650  80.3027880  22.3556300  70.2162000  81.3414300
  26.0841120  72.7600630  86.2378680  25.6220490  72.9683650  87.0498620
  25.6819230  71.9459980  85.9349350  31.0845630  73.9809580  87.3675340
  30.2339220  73.6815330  87.6884410  30.9247420  74.2251590  86.4559160
  28.1795340  75.4811330  89.4674130  28.5048750  74.6475080  89.1276360
  28.9675670  76.0039850  89.6152460  24.9130130  69.5142810  75.5149190
  24.2884310  69.5102680  76.2402500  24.8260250  68.6473770  75.1185160
  23.8347210  70.4379440  82.4932960  24.1319540  71.3442270  82.4124980
  24.3832770  69.9498220  81.8792530  21.5885530  75.0165680  78.3624610
  21.3626450  74.8002850  79.2671230  20.8078060  75.4494140  78.0170580
  28.8183290  75.0229050  76.9615260  28.2192180  75.7464850  76.7778880
  29.3662900  74.9605830  76.1791710  24.0284740  75.9151260  89.0284880
  23.9328340  74.9745990  88.8785280  24.8716720  76.1366330  88.6332950
  27.4248160  73.6592590  78.9918540  27.8177730  73.9764790  78.1787230
  27.7865010  72.7804470  79.1063060  19.1595280  72.3264930  87.1818660
  18.7658670  73.1740140  87.3891440  18.4713680  71.6891300  87.3727300
  25.7340330  72.4099900  90.2515400  25.0438650  72.2172100  90.8861490
  26.4772630  72.6934540  90.7839700  16.4612330  70.2493390  81.2148740
  16.1725380  70.8196250  81.9273720  17.2058090  69.7697840  81.5779970
  16.6482560  74.1913510  72.4251460  16.5657230  75.1344270  72.5666450
  16.2965620  74.0488420  71.5463810  28.0103300  76.2498340  83.0869320
  27.2784420  76.7585150  83.4359420  27.6127640  75.4328320  82.7858100
  24.4480690  72.9252540  81.4921810  24.4516750  72.4842490  80.6426350
  25.3431810  73.2469870  81.5993630  20.2983070  72.8079030  80.4516020
  19.9583120  73.2854260  81.2083070  19.5360390  72.3544150  80.0917120
  24.5100840  73.9264620  74.4828570  24.6313660  73.8851100  75.4314390
  24.1249350  74.7888770  74.3275300  28.4729210  71.7032020  82.4992260
  28.4901950  72.1540670  83.3434110  28.2244790  70.8037660  82.7125700
  23.5222340  76.2365760  73.8811870  22.9539240  75.7884010  73.2547780
  24.2311340  76.5958540  73.3477020  31.8999960  69.1164200  88.3378640
  32.2245730  68.3853860  88.8636620  31.9356470  68.7977840  87.4359630
  18.5991520  80.1377780  87.7578600  18.2146310  79.4971450  88.3561560
  18.9103710  80.8413900  88.3273330  24.7488660  76.9854320  83.2387220
  25.1158790  76.5112890  83.9848560  24.5593720  77.8595890  83.5795560
  17.6129150  71.7298010  79.3680690  17.3276070  71.3653680  80.2059310
  17.5508010  70.9978470  78.7543830  22.5388030  76.0262960  85.5571430
  22.2345100  76.9054940  85.7821790  23.4934490  76.0862750  85.5928870
  21.0669820  80.2323950  76.1538280  20.2932080  79.6921570  75.9937000
  21.7964450  79.7130560  75.8156040  31.8257800  79.2289310  81.9464670
  32.5456920  79.7244600  81.5560780  31.6239620  78.5507200  81.3018540
  27.2867740  70.6227270  76.0894060  26.4732350  70.1240440  76.0139370
  27.0929690  71.4625520  75.6730410  27.2076600  79.2998370  87.8333670
  27.1413910  78.3794040  87.5791260  26.5781740  79.3973810  88.5478310
  30.0016130  74.9946920  74.3856220  30.8895750  75.3064150  74.2107560
  29.9721220  74.1219170  73.9936800  21.1107220  79.9004330  79.7917090
  21.6285890  79.0972590  79.7373980  20.6591240  79.8383470  80.6333920
  25.9976720  81.1670610  75.0644390  26.3392420  81.9112840  74.5687710
  25.1689430  81.4801730  75.4269220  18.5951760  76.8665700  86.7042790
  18.2366700  77.5319550  87.2916130  18.3006320  76.0349250  87.0755410
  21.7964880  77.3249940  89.5882340  21.4965020  77.4707120  88.6910160
  22.5676120  76.7655230  89.4955730  27.1393330  82.1218940  87.5837470
  27.1537870  81.1899900  87.3656380  26.4318430  82.2078700  88.2227240
  32.2730400  76.3058760  73.8536080  32.1894120  76.7372980  73.0032520
  32.9924590  76.7657110  74.2862900  33.3504540  78.7626280  86.9306050
  32.6252730  79.3555060  86.7335440  33.8780000  78.7549820  86.1319420
  33.3017650  83.1601020  76.5818210  32.6593810  82.5056640  76.8561930
  32.9148310  83.5656110  75.8058880  28.8804130  80.4886450  80.4289900
  29.2327950  79.8914580  79.7691270  27.9966460  80.1630680  80.5998150
  24.9667410  81.2484140  77.8360310  25.6538540  81.7953350  78.2167900
  24.1799830  81.7924870  77.8709920  17.1059810  76.8656960  73.3277390
  17.9754660  77.1481760  73.6113310  16.6150130  77.6792830  73.2126200
  24.2694620  78.2530170  77.4485670  24.7257400  79.0635420  77.6745860
  23.9182830  77.9353310  78.2804160  26.5727230  83.7636510  84.6777970
  27.2169450  83.9695890  85.3551390  26.9356670  83.0024910  84.2248820
  20.1706400  68.5967820  77.9208190  20.0421030  68.5885720  78.8693110
  19.3468420  68.9350910  77.5699200  27.8459310  81.7668860  83.3955420
  28.4881540  81.0662020  83.5087590  28.3708660  82.5467300  83.2152310
  31.6915030  82.0517480  73.1194560  31.4652610  81.3347920  73.7119200
  31.3011230  81.8029920  72.2816310  29.6196930  82.5663760  86.5991480
  29.9553170  83.1530450  87.2769400  28.6997270  82.4356470  86.8289270
  17.4731060  86.0784340  73.8939020  17.8328700  86.6773680  73.2396290
  17.3323400  86.6244230  74.6674050  17.1700330  70.3558940  87.3814890
  16.4558850  70.5555860  87.9867500  17.5895370  69.5798510  87.7529690
  31.2731280  79.9689420  74.7808720  30.9852980  80.4302110  75.5686600
  32.0683450  79.5087190  75.0492940  17.4572920  84.3439200  88.3681420
  17.5664040  83.4033940  88.2276810  16.8053480  84.6093950  87.7195150
  25.4485510  82.6155090  89.7679540  25.1282380  81.8964330  90.3125230
  24.7743870  83.2910160  89.8415600  23.4899680  83.4615540  74.7112690
  23.4809780  84.1945230  74.0957200  22.5698040  83.2147120  74.8039650
  19.0906320  78.6830430  75.4559450  18.4834270  79.4229330  75.4654750
  19.5655670  78.7729790  74.6297650  28.6639110  72.8481250  85.1316340
  29.0319930  72.0276460  85.4595910  27.8037310  72.9083140  85.5471990
  32.0301140  71.8038190  75.9403900  31.4014300  71.9083860  75.2262130
  31.5353060  72.0234970  76.7297780  26.4759280  83.5243780  73.3737880
  26.5771260  83.3207770  72.4439860  25.5761020  83.2702060  73.5785660
  23.9985170  74.0824140  77.3561780  23.2901320  74.5510480  77.7975390
  24.2829650  73.4246150  77.9906970  25.6241100  75.5020840  85.3554310
  26.1226350  75.9766660  86.0206160  25.7664050  74.5784360  85.5624340
  28.0300600  70.8074800  78.7957570  27.9068380  70.8260930  77.8467080
  28.9785160  70.8553740  78.9155970  25.1177390  86.0430100  78.0685550
  25.3718890  86.0051490  77.1464920  24.1689870  85.9163430  78.0613800
  22.2020190  72.3909220  74.7312490  23.0510720  72.8279370  74.6652680
  21.8351460  72.7029480  75.5584550  32.8307960  71.7188800  86.1982700
  32.3281560  72.4594200  86.5376510  33.6464620  72.1072800  85.8819490
  31.1229970  76.9621980  79.6444060  30.1820110  76.9772210  79.8191750
  31.4374040  76.1757940  80.0904360  21.1011610  78.6441580  73.2048020
  21.8674880  78.5322940  73.7673450  21.1786300  77.9479550  72.5524790
  19.7958370  76.0766650  73.8880910  19.8761960  75.1294160  73.9998310
  20.6878120  76.4073530  73.9941570  33.1255550  84.1330830  81.3198320
  33.2502970  84.9562000  81.7922130  33.9921110  83.9221560  80.9722470
  20.5973080  86.2262040  80.9915450  21.3335560  85.6777500  81.2624020
  20.9814000  87.0918050  80.8521440  17.4818560  82.2935610  76.8656960
  16.5558340  82.5356750  76.8562370  17.9474990  83.1209870  76.7441710
  19.6031360  85.4108110  90.1801030  20.4044090  85.7320160  90.5936430
  19.0883180  85.0503690  90.9020940  23.7075390  85.3992350  72.8141020
  24.5004000  85.6881180  72.3622810  23.1879740  84.9684520  72.1353500
  28.4395990  81.5187980  90.1276440  27.8334150  81.5419580  89.3872190
  28.1350100  80.7871020  90.6643690  29.8696360  85.2468270  88.7385850
  30.8218110  85.1626290  88.6886090  29.7224580  85.9109980  89.4119640
  32.7605560  84.6262480  74.2377760  32.4747070  84.2127620  73.4231940
  32.5625110  85.5550190  74.1178280  17.3229170  77.8981570  89.1237080
  17.8268190  77.3188850  89.6953310  16.5836590  78.1821800  89.6613450
  24.2252790  80.6195760  72.6783370  24.1203430  80.0048110  73.4044750
  24.0577010  80.0961650  71.8946380  24.3767110  79.3052560  88.6572600
  23.6112780  79.8737560  88.5727270  24.5583070  79.0128770  87.7640830
  27.4655520  79.6815790  73.2825360  26.9165620  80.1285090  73.9268100
  28.0874780  79.1765040  73.8063030  31.5190460  81.0357890  89.2147620
  32.2599930  81.3733650  88.7115080  30.7563140  81.2049950  88.6617390
  19.3552250  76.0411160  90.0187150  19.3957590  75.7425030  90.9272380
  20.2097750  76.4418770  89.8594670  23.1330640  78.6406710  75.1790660
  23.5547060  78.4746580  76.0222050  23.2581480  77.8306940  74.6845800
  21.2958060  74.6203260  87.9861640  20.7654520  74.1294210  87.3584980
  21.9646130  75.0487460  87.4519570  25.6458280  77.6644320  72.4267760
  26.1663940  76.9493340  72.0608910  26.2926680  78.3030190  72.7268270
  30.1936120  79.0872720  87.7502830  30.6077140  79.2417800  88.5993250
  29.2587120  79.2127940  87.9128610  30.6658290  76.4268880  89.7541980
  31.2479060  75.6721200  89.6662460  30.8420060  76.9576320  88.9773460
  21.7830360  71.5865630  88.0658930  21.6887230  70.9686380  87.3409800
  21.2027750  72.3131920  87.8388840  24.5491800  70.1438870  85.0986320
  24.1009100  70.1663130  84.2531870  23.9157000  69.7457890  85.6956620
  24.9551350  79.0393200  85.7198760  25.3739460  79.8825930  85.5475000
  24.0359980  79.1765240  85.4905540  27.2915250  76.7709380  87.1036600
  27.4111460  76.1750520  87.8431440  28.1509250  76.8079070  86.6837900
  29.6303150  77.3246570  85.6799110  29.1038370  77.8489190  85.0764250
  29.9734490  77.9573960  86.3108840  22.0289540  74.7139940  72.1248820
  21.8278600  73.8507300  72.4862160  21.8581590  74.6273300  71.1870420
  22.8058770  85.3446210  86.8356490  22.2679860  86.0692270  86.5165190
  23.0592730  84.8676550  86.0453830  24.0584020  73.3130730  88.3612420
  24.6483710  73.0046580  89.0490240  23.2404260  72.8410480  88.5172320
  28.8777450  72.9296540  88.5945440  28.1892970  72.2678080  88.5295430
  29.5983470  72.4834810  89.0393900  29.5077850  69.5248170  74.6535700
  29.7880140  68.6816070  75.0095120  28.7343580  69.7571280  75.1674450
  20.8272340  71.8140560  72.1126700  21.1298240  71.8207990  71.2045850
  21.5666930  71.4638420  72.6094360  25.6620980  86.5797420  87.0943140
  25.5879680  87.4832560  87.4015510  24.7599820  86.2609320  87.0665210
  24.0457270  70.7575180  73.0982900  23.6979270  70.0799170  72.5185350
  24.2470040  70.2964690  73.9126290  26.2106310  85.7455930  74.7169500
  27.1057100  86.0840900  74.7388260  26.2423940  85.0235340  74.0893780
  19.8502470  81.1182980  72.9456500  20.2877340  81.6612650  73.6014080
  20.3350200  80.2929930  72.9552840  17.0648270  83.9072010  80.3976760
  17.3951280  83.0393070  80.1655400  17.4939270  84.1130530  81.2281720
  21.6610190  82.2381020  78.0578730  21.3605730  82.1145990  78.9582640
  21.5547680  81.3789610  77.6494460  17.5538480  84.7742600  83.1358390
  17.1169470  84.9543400  83.9682540  18.1216160  85.5317220  82.9940110
  33.1900660  84.2759600  87.4235700  32.5902650  84.3352160  86.6799620
  33.3194560  83.3364580  87.5532550  34.4302110  82.0177420  72.7605410
  33.5995070  82.0854070  73.2312640  34.6073940  82.9081540  72.4572270
  33.8858570  78.7624900  75.2639610  34.6477480  79.3321550  75.3699300
  33.9012940  78.1952100  76.0347920  17.3862910  77.2862830  79.4947270
  16.7311750  77.0174470  78.8506970  18.2240860  77.1767310  79.0449250
  34.8918540  79.6175000  80.1081540  35.2627370  78.8342320  79.7017510
  35.5320470  80.3064100  79.9298840  31.8752300  81.0011580  85.5211860
  31.0612140  81.4308740  85.7837650  32.2826500  81.6129990  84.9080910
  33.9377740  79.0559270  72.4212130  34.2126580  79.9638150  72.2931350
  33.7488480  78.9921800  73.3574120  30.3353350  72.0804120  73.7165760
  30.7538230  71.8935100  72.8762420  30.0289410  71.2283170  74.0268690
  33.8343080  76.9928260  77.4141560  33.4586680  76.2256190  76.9822850
  33.1046200  77.3750960  77.9016490  18.4238840  77.6715400  84.0350610
  18.7911880  77.5842800  84.9146630  17.8549660  76.9081950  83.9357470
  33.2242700  76.1399780  87.0481080  32.9928790  75.9112530  86.1479030
  33.4847250  77.0599330  87.0025970  17.9754840  74.5824490  87.9409030
  17.0810890  74.5491250  88.2802740  18.5152390  74.7811280  88.7060280
  31.6630770  71.3656210  89.8260780  32.5400950  71.3739610  90.2094780
  31.6751610  70.6287050  89.2153130  16.6000990  74.4961760  75.4372600
  15.6965070  74.7591960  75.2624260  17.0841610  74.7672930  74.6572560
  33.1094040  75.2185750  80.7148800  33.6331520  74.7248400  80.0838970
  33.6953460  75.3536110  81.4596370  33.2883760  75.3025620  84.2368350
  32.3386470  75.2689160  84.3513340  33.4696770  76.2125730  84.0018120
  19.1428200  73.5527300  73.3466980  19.8519900  73.1310520  72.8614260
  18.4268140  73.6202530  72.7150330  18.7902360  69.6066630  72.3869630
  19.5130490  70.1475570  72.7050850  19.0626880  69.3330050  71.5111170
  32.5994010  74.4759100  76.6541210  33.0953130  74.2429970  77.4390090
  32.4010080  73.6370940  76.2378850  18.4794550  68.8572820  82.2892250
  19.1270740  68.3070200  81.8487410  18.8996390  69.1115970  83.1108060
  34.0281170  73.1120050  79.1878890  33.9180450  72.9576090  80.1261160
  34.7888760  72.5840990  78.9454300  32.3746890  69.0514180  85.6461890
  33.0119110  69.6648320  86.0121080  32.5221780  69.0874840  84.7011120
  34.9171440  70.9427970  72.4285030  35.8420750  70.8109150  72.2203320
  34.8947230  71.0220790  73.3821480  34.9909930  71.7138630  75.0541740
  34.1961430  71.6483750  75.5834650  35.1953210  72.6489270  75.0427090
  31.9328350  85.7530180  79.0480130  32.5287420  85.4314750  78.3714550
  32.1906500  85.2802000  79.8393400  18.2326550  69.0128490  85.0317570
  17.8841370  69.4692310  85.7975750  17.9014250  68.1185620  85.1140000
  19.8390920  82.1848090  89.1970760  19.7960550  81.8141000  90.0785220
  19.9701930  83.1225660  89.3372580  23.5396950  83.7407680  84.7980480
  23.2988310  84.0082240  83.9111000  24.4799590  83.9113410  84.8531340
  25.7451370  70.2040370  88.5536990  25.6840260  70.7962200  89.3032400
  26.6851750  70.0966330  88.4087250  28.3825930  69.8610430  88.1929280
  28.9966340  70.1789720  87.5310360  28.9275490  69.3759020  88.8125140
  34.8001110  85.7602060  85.5991120  34.3059390  86.1570930  84.8818250
  34.1914400  85.1351270  85.9928400  18.9047190  68.5404690  88.3068340
  19.4530180  68.3592740  87.5434450  18.9702500  67.7498800  88.8424650
  19.6778950  85.1310340  86.3168540  19.0839270  84.9995040  87.0558580
  19.6702790  84.2948480  85.8510640  29.1233970  68.4242570  84.5198570
  28.2493810  68.7577680  84.3171500  29.0144720  67.9515750  85.3450440
  30.0305950  70.6313440  85.9040290  29.7019310  69.8165200  85.5242020
  30.9788250  70.5883250  85.7805980  32.4840560  86.4025480  82.8777860
  32.0243530  87.1541290  82.5035880  31.8553020  85.6831950  82.8192660
  19.3091180  82.4968720  85.2676580  18.5825240  81.8774010  85.2002530
  19.3700330  82.8909330  84.3974660  22.9136280  84.7113720  82.0525990
  23.4301300  84.1001080  81.5274250  23.5633660  85.2142500  82.5437000
  25.6531780  85.6022210  82.8794970  25.9409590  85.3476510  82.0027980
  26.1655000  85.0499570  83.4700540  26.8708790  69.3412410  83.4591480
  26.0880580  69.8157910  83.7388240  26.5771720  68.4367240  83.3504660
  31.4229860  70.0435510  81.5040570  31.8637950  69.9880610  80.6562170
  31.1537450  70.9593520  81.5750750  33.2868430  69.6750750  79.5149390
  33.2256830  68.7311970  79.3680410  34.0660460  69.7830840  80.0602850
  17.5921180  85.8143110  78.4773340  17.4243220  85.1813790  79.1755230
  16.7255690  86.0202510  78.1267530  18.2149200  69.6459890  75.9805200
  18.9728560  69.7588770  75.4069230  17.7526370  70.4829090  75.9348630
  24.7563010  71.7599160  78.9707510  23.9437520  71.3856050  78.6303390
  25.2604650  71.0044240  79.2728700  29.2587990  68.4241610  80.2090580
  29.8617360  68.9961820  80.6839100  28.5180980  68.9881050  79.9864480
  32.4022590  68.8263170  75.4830860  32.5973220  69.7246620  75.7498290
  31.6152460  68.5950250  75.9763810  19.1983880  84.5076340  75.9223480
  18.6731500  84.8884370  75.2185440  19.1228460  85.1327110  76.6433190
  20.5874350  70.1723940  74.5207170  21.1167110  69.3853740  74.3915120
  21.2202670  70.8515130  74.7542700  22.7812190  69.9099080  77.5752560
  22.1514930  69.2086390  77.7422690  22.2417330  70.6703210  77.3585720
  25.7204140  86.5238310  90.2463170  26.6471450  86.2882580  90.2899130
  25.7054570  87.3510310  89.7649200  33.9549200  86.0663880  77.2437420
  34.1301390  85.3801620  76.5998340  33.2570770  86.5910930  76.8514090
  22.9067750  69.1883060  90.0105050  22.6252020  69.6916660  89.2465870
  23.2887450  68.3904810  89.6447180  21.7976850  86.4558720  74.7972730
  22.5295670  86.1718000  74.2496620  22.0570520  86.2172000  75.6872110
  20.9591640  82.5723450  74.8019060  20.3300520  83.0408550  75.3504890
  21.0739470  81.7272670  75.2365250  29.5083210  68.6036640  90.5885520
  29.3948660  68.9231250  91.4837040  30.3252950  69.0049150  90.2922800
  32.2881700  85.7508170  90.0704210  33.0807020  85.2557400  89.8630170
  32.5814850  86.4298310  90.6779820  28.4141360  76.6229110  60.9520260
  28.3335410  75.7083720  60.6811970  28.0005780  77.1196180  60.2459970
  26.5459400  78.4008130  62.8329530  25.7701500  77.9208570  63.1228100
  27.1972330  77.7213780  62.6585690  20.5625230  78.7127940  63.7105290
  19.7310110  78.4576650  64.1101800  21.1706210  78.7838710  64.4463210
  30.5666830  82.8068320  61.6128660  30.1048360  82.0355560  61.9415830
  31.3792380  82.8334390  62.1181110  20.5426490  82.7468030  63.9063310
  20.8454530  81.8565770  63.7273530  21.2870080  83.3038250  63.6785560
  18.9717180  73.6729830  57.4947680  18.0833880  74.0145800  57.3927560
  19.2558370  73.4730150  56.6028510  16.9350190  76.2735480  63.3787380
  17.5066300  75.5057680  63.3791020  16.9351730  76.5724240  62.4693990
  26.7930140  85.0926330  61.2332650  26.1741580  85.5483830  60.6627090
  27.6481920  85.2477790  60.8322350  25.9868390  81.0765320  62.8399690
  25.9176670  80.1355260  62.6788820  26.7488250  81.1666730  63.4122260
  18.1775060  71.6819840  65.1656310  17.9977900  70.7845590  65.4459070
  17.7755140  72.2291710  65.8403260  27.0173560  73.8835700  63.0668620
  27.3938380  73.0107580  62.9542290  26.9193070  74.2194400  62.1759060
  21.1478570  72.2561330  58.5286060  21.2545320  73.1565060  58.8354820
  20.2370930  72.2079300  58.2380710  30.7997680  71.3786140  59.9996960
  31.6207300  70.8882710  60.0422440  30.8331760  71.9683800  60.7528800
  18.7961730  74.1780340  63.7738650  19.4771840  74.4418710  64.3926050
  18.4809780  73.3381210  64.1076660  22.9886300  75.2247700  62.8611240
  23.4964520  75.7228670  63.5016260  23.5199540  74.4482900  62.6850600
  35.0897230  73.3952890  66.5640590  34.3849400  73.7834600  66.0455700
  35.3555150  74.0903180  67.1661520  21.2722400  69.8646260  67.1274660
  21.2740840  70.3818650  66.3220560  20.4426710  69.3876440  67.1044590
  27.6593490  79.9765570  58.6264560  27.0410760  80.4415020  58.0627280
  28.1716740  80.6693050  59.0434070  22.5225250  79.5041440  65.3048160
  22.1894630  80.1310360  65.9469230  22.6991930  80.0303320  64.5249830
  31.0359160  73.3186520  62.7724500  30.3314730  73.6071410  63.3527610
  31.3971320  74.1286630  62.4124060  20.9537730  71.5756220  65.1345110
  21.2954540  72.4198270  64.8398980  20.0153540  71.7239960  65.2510450
  21.7344350  81.4722240  67.1197340  22.3518350  82.1473320  66.8381790
  20.8737470  81.8810220  67.0284840  17.0276690  80.6622100  56.0004190
  16.6504670  81.1509200  55.2689090  17.2849760  81.3347380  56.6310720
  32.6521940  82.9361650  65.0351980  31.9685460  83.6060760  65.0268650
  33.1916230  83.1342300  64.2696840  34.1046080  72.7641310  63.1633710
  33.1570990  72.7980290  63.2949140  34.4296070  73.5780260  63.5483070
  24.6365620  69.0638490  61.4589700  24.9440600  68.5085380  60.7425200
  23.7066320  69.1982950  61.2762690  30.1880680  84.7805780  63.7497160
  30.2007840  84.3768070  62.8819420  29.6355900  85.5553070  63.6458590
  31.4826100  81.5022000  58.8387330  31.3722430  80.5596330  58.9636750
  31.4794350  81.8637640  59.7250090  29.5866120  79.6835620  65.0779770
  30.0034910  79.4695730  64.2433230  30.3105940  79.9408410  65.6488390
  27.0246380  77.1287320  58.1949820  26.0975660  77.0624700  58.4238290
  27.1771200  78.0667450  58.0805060  27.0115460  73.4004320  55.1916980
  26.0719130  73.5618280  55.2769440  27.3298720  74.1190000  54.6452970
  33.5328220  78.0822840  65.1696010  32.7046850  78.1515930  64.6946140
  34.1278700  78.6677150  64.7011840  31.0543670  78.6907620  58.6985070
  30.4356090  78.3527170  58.0511370  31.0368120  78.0467380  59.4064260
  30.4970230  74.8692160  66.1150880  30.0841410  75.6945870  66.3690870
  29.7646180  74.2837200  65.9227240  22.6303020  77.6552060  60.9769550
  22.2260020  76.9429310  60.4815450  22.7166140  77.3105300  61.8657590
  23.0984720  81.3419620  63.1408760  22.8013010  80.7365090  62.4616540
  24.0484540  81.3796930  63.0298120  21.3431640  74.4295270  64.7568590
  21.8946230  74.5390610  63.9821840  21.8575150  74.8032870  65.4723820
  31.1870330  84.9151490  66.8031860  30.7100890  85.7223680  66.6104470
  30.5032120  84.2629820  66.9558070  22.1903150  81.0801310  69.7916560
  21.2931680  81.3041280  70.0389960  22.2156020  81.2036250  68.8427960
  29.2308370  77.9294430  55.7057820  29.6701650  77.0916860  55.5595640
  29.9436790  78.5623830  55.7921960  21.0174370  77.9514630  68.3673930
  20.8782140  78.8237430  68.7361330  20.1355730  77.6087440  68.2221870
  27.3403750  82.8690500  59.6739060  27.7799660  83.6114830  59.2594450
  27.2790640  83.1117070  60.5978020  22.8154720  83.8936330  70.5759080
  22.7870150  84.2979280  69.7087510  22.6519690  82.9646690  70.4130680
  32.8125510  69.1837240  54.0198860  32.4998170  69.2764070  54.9197930
  33.5737980  69.7618270  53.9696290  19.3307650  76.5497040  58.4776200
  19.2105250  77.2759130  57.8657470  19.0208540  75.7799950  58.0004110
  34.7669540  84.6763430  71.8723250  35.2429260  85.1546320  72.5512330
  35.3876700  84.6080920  71.1468750  16.9693020  79.7212180  64.2844840
  17.0473440  79.8560950  63.3400560  17.5834700  79.0128070  64.4772960
  18.2140650  81.4212370  60.6951020  17.8068730  81.5626960  59.8404620
  19.1053660  81.1372530  60.4922230  34.1702790  81.8676280  69.0323260
  34.2965850  81.6288160  68.1140440  34.2124170  81.0360820  69.5045340
  28.0319530  85.5704280  67.6018070  28.5464200  85.4812290  68.4040500
  27.1888610  85.9163980  67.8945980  30.0073930  85.8559620  57.0302070
  29.8475070  85.5662560  57.9283900  29.8420640  85.0799750  56.4947300
  22.4862310  85.6358150  58.8073690  22.3104790  84.7193690  58.5941490
  21.6318050  85.9945440  59.0471490  29.7100060  83.3647180  55.5900070
  29.0165220  83.3624470  54.9302350  30.4522920  82.9406500  55.1594240
  29.2749990  84.9909890  59.6648560  29.7306940  84.2099270  59.9787180
  29.6142510  85.7016710  60.2089740  34.0226800  73.9208740  69.9973000
  33.4071070  74.4288410  69.4688460  33.7023220  73.0207070  69.9398940
  17.0252540  80.7626350  66.8239300  17.1883580  80.2931710  66.0058670
  17.4904990  80.2549910  67.4888140  21.7971310  69.8932110  61.8599870
  21.3539460  70.6741650  61.5284390  22.3556300  70.2162000  62.5670810
  26.0841120  72.7600630  67.4635190  25.6220490  72.9683650  68.2755130
  25.6819230  71.9459980  67.1605860  31.0845630  73.9809580  68.5931850
  30.2339220  73.6815330  68.9140920  30.9247420  74.2251590  67.6815670
  28.1795340  75.4811330  70.6930640  28.5048750  74.6475080  70.3532870
  28.9675670  76.0039850  70.8408970  24.9130130  69.5142810  56.7405700
  24.2884310  69.5102680  57.4659010  24.8260250  68.6473770  56.3441670
  23.8347210  70.4379440  63.7189470  24.1319540  71.3442270  63.6381490
  24.3832770  69.9498220  63.1049040  21.5885530  75.0165680  59.5881120
  21.3626450  74.8002850  60.4927740  20.8078060  75.4494140  59.2427090
  28.8183290  75.0229050  58.1871770  28.2192180  75.7464850  58.0035390
  29.3662900  74.9605830  57.4048220  24.0284740  75.9151260  70.2541390
  23.9328340  74.9745990  70.1041790  24.8716720  76.1366330  69.8589460
  27.4248160  73.6592590  60.2175050  27.8177730  73.9764790  59.4043740
  27.7865010  72.7804470  60.3319570  19.1595280  72.3264930  68.4075170
  18.7658670  73.1740140  68.6147950  18.4713680  71.6891300  68.5983810
  25.7340330  72.4099900  71.4771910  25.0438650  72.2172100  72.1118000
  26.4772630  72.6934540  72.0096210  16.4612330  70.2493390  62.4405250
  16.1725380  70.8196250  63.1530230  17.2058090  69.7697840  62.8036480
  16.6482560  74.1913510  53.6507970  16.5657230  75.1344270  53.7922960
  16.2965620  74.0488420  52.7720320  28.0103300  76.2498340  64.3125830
  27.2784420  76.7585150  64.6615930  27.6127640  75.4328320  64.0114610
  24.4480690  72.9252540  62.7178320  24.4516750  72.4842490  61.8682860
  25.3431810  73.2469870  62.8250140  20.2983070  72.8079030  61.6772530
  19.9583120  73.2854260  62.4339580  19.5360390  72.3544150  61.3173630
  24.5100840  73.9264620  55.7085080  24.6313660  73.8851100  56.6570900
  24.1249350  74.7888770  55.5531810  28.4729210  71.7032020  63.7248770
  28.4901950  72.1540670  64.5690620  28.2244790  70.8037660  63.9382210
  23.5222340  76.2365760  55.1068380  22.9539240  75.7884010  54.4804290
  24.2311340  76.5958540  54.5733530  31.8999960  69.1164200  69.5635150
  32.2245730  68.3853860  70.0893130  31.9356470  68.7977840  68.6616140
  18.5991520  80.1377780  68.9835110  18.2146310  79.4971450  69.5818070
  18.9103710  80.8413900  69.5529840  24.7488660  76.9854320  64.4643730
  25.1158790  76.5112890  65.2105070  24.5593720  77.8595890  64.8052070
  17.6129150  71.7298010  60.5937200  17.3276070  71.3653680  61.4315820
  17.5508010  70.9978470  59.9800340  22.5388030  76.0262960  66.7827940
  22.2345100  76.9054940  67.0078300  23.4934490  76.0862750  66.8185380
  21.0669820  80.2323950  57.3794790  20.2932080  79.6921570  57.2193510
  21.7964450  79.7130560  57.0412550  31.8257800  79.2289310  63.1721180
  32.5456920  79.7244600  62.7817290  31.6239620  78.5507200  62.5275050
  27.2867740  70.6227270  57.3150570  26.4732350  70.1240440  57.2395880
  27.0929690  71.4625520  56.8986920  27.2076600  79.2998370  69.0590180
  27.1413910  78.3794040  68.8047770  26.5781740  79.3973810  69.7734820
  30.0016130  74.9946920  55.6112730  30.8895750  75.3064150  55.4364070
  29.9721220  74.1219170  55.2193310  21.1107220  79.9004330  61.0173600
  21.6285890  79.0972590  60.9630490  20.6591240  79.8383470  61.8590430
  25.9976720  81.1670610  56.2900900  26.3392420  81.9112840  55.7944220
  25.1689430  81.4801730  56.6525730  18.5951760  76.8665700  67.9299300
  18.2366700  77.5319550  68.5172640  18.3006320  76.0349250  68.3011920
  21.7964880  77.3249940  70.8138850  21.4965020  77.4707120  69.9166670
  22.5676120  76.7655230  70.7212240  27.1393330  82.1218940  68.8093980
  27.1537870  81.1899900  68.5912890  26.4318430  82.2078700  69.4483750
  32.2730400  76.3058760  55.0792590  32.1894120  76.7372980  54.2289030
  32.9924590  76.7657110  55.5119410  33.3504540  78.7626280  68.1562560
  32.6252730  79.3555060  67.9591950  33.8780000  78.7549820  67.3575930
  33.3017650  83.1601020  57.8074720  32.6593810  82.5056640  58.0818440
  32.9148310  83.5656110  57.0315390  28.8804130  80.4886450  61.6546410
  29.2327950  79.8914580  60.9947780  27.9966460  80.1630680  61.8254660
  24.9667410  81.2484140  59.0616820  25.6538540  81.7953350  59.4424410
  24.1799830  81.7924870  59.0966430  17.1059810  76.8656960  54.5533900
  17.9754660  77.1481760  54.8369820  16.6150130  77.6792830  54.4382710
  24.2694620  78.2530170  58.6742180  24.7257400  79.0635420  58.9002370
  23.9182830  77.9353310  59.5060670  26.5727230  83.7636510  65.9034480
  27.2169450  83.9695890  66.5807900  26.9356670  83.0024910  65.4505330
  20.1706400  68.5967820  59.1464700  20.0421030  68.5885720  60.0949620
  19.3468420  68.9350910  58.7955710  27.8459310  81.7668860  64.6211930
  28.4881540  81.0662020  64.7344100  28.3708660  82.5467300  64.4408820
  31.6915030  82.0517480  54.3451070  31.4652610  81.3347920  54.9375710
  31.3011230  81.8029920  53.5072820  29.6196930  82.5663760  67.8247990
  29.9553170  83.1530450  68.5025910  28.6997270  82.4356470  68.0545780
  17.4731060  86.0784340  55.1195530  17.8328700  86.6773680  54.4652800
  17.3323400  86.6244230  55.8930560  17.1700330  70.3558940  68.6071400
  16.4558850  70.5555860  69.2124010  17.5895370  69.5798510  68.9786200
  31.2731280  79.9689420  56.0065230  30.9852980  80.4302110  56.7943110
  32.0683450  79.5087190  56.2749450  17.4572920  84.3439200  69.5937930
  17.5664040  83.4033940  69.4533320  16.8053480  84.6093950  68.9451660
  25.4485510  82.6155090  70.9936050  25.1282380  81.8964330  71.5381740
  24.7743870  83.2910160  71.0672110  23.4899680  83.4615540  55.9369200
  23.4809780  84.1945230  55.3213710  22.5698040  83.2147120  56.0296160
  19.0906320  78.6830430  56.6815960  18.4834270  79.4229330  56.6911260
  19.5655670  78.7729790  55.8554160  28.6639110  72.8481250  66.3572850
  29.0319930  72.0276460  66.6852420  27.8037310  72.9083140  66.7728500
  32.0301140  71.8038190  57.1660410  31.4014300  71.9083860  56.4518640
  31.5353060  72.0234970  57.9554290  26.4759280  83.5243780  54.5994390
  26.5771260  83.3207770  53.6696370  25.5761020  83.2702060  54.8042170
  23.9985170  74.0824140  58.5818290  23.2901320  74.5510480  59.0231900
  24.2829650  73.4246150  59.2163480  25.6241100  75.5020840  66.5810820
  26.1226350  75.9766660  67.2462670  25.7664050  74.5784360  66.7880850
  28.0300600  70.8074800  60.0214080  27.9068380  70.8260930  59.0723590
  28.9785160  70.8553740  60.1412480  25.1177390  86.0430100  59.2942060
  25.3718890  86.0051490  58.3721430  24.1689870  85.9163430  59.2870310
  22.2020190  72.3909220  55.9569000  23.0510720  72.8279370  55.8909190
  21.8351460  72.7029480  56.7841060  32.8307960  71.7188800  67.4239210
  32.3281560  72.4594200  67.7633020  33.6464620  72.1072800  67.1076000
  31.1229970  76.9621980  60.8700570  30.1820110  76.9772210  61.0448260
  31.4374040  76.1757940  61.3160870  21.1011610  78.6441580  54.4304530
  21.8674880  78.5322940  54.9929960  21.1786300  77.9479550  53.7781300
  19.7958370  76.0766650  55.1137420  19.8761960  75.1294160  55.2254820
  20.6878120  76.4073530  55.2198080  33.1255550  84.1330830  62.5454830
  33.2502970  84.9562000  63.0178640  33.9921110  83.9221560  62.1978980
  20.5973080  86.2262040  62.2171960  21.3335560  85.6777500  62.4880530
  20.9814000  87.0918050  62.0777950  17.4818560  82.2935610  58.0913470
  16.5558340  82.5356750  58.0818880  17.9474990  83.1209870  57.9698220
  19.6031360  85.4108110  71.4057540  20.4044090  85.7320160  71.8192940
  19.0883180  85.0503690  72.1277450  23.7075390  85.3992350  54.0397530
  24.5004000  85.6881180  53.5879320  23.1879740  84.9684520  53.3610010
  28.4395990  81.5187980  71.3532950  27.8334150  81.5419580  70.6128700
  28.1350100  80.7871020  71.8900200  29.8696360  85.2468270  69.9642360
  30.8218110  85.1626290  69.9142600  29.7224580  85.9109980  70.6376150
  32.7605560  84.6262480  55.4634270  32.4747070  84.2127620  54.6488450
  32.5625110  85.5550190  55.3434790  17.3229170  77.8981570  70.3493590
  17.8268190  77.3188850  70.9209820  16.5836590  78.1821800  70.8869960
  24.2252790  80.6195760  53.9039880  24.1203430  80.0048110  54.6301260
  24.0577010  80.0961650  53.1202890  24.3767110  79.3052560  69.8829110
  23.6112780  79.8737560  69.7983780  24.5583070  79.0128770  68.9897340
  27.4655520  79.6815790  54.5081870  26.9165620  80.1285090  55.1524610
  28.0874780  79.1765040  55.0319540  31.5190460  81.0357890  70.4404130
  32.2599930  81.3733650  69.9371590  30.7563140  81.2049950  69.8873900
  19.3552250  76.0411160  71.2443660  19.3957590  75.7425030  72.1528890
  20.2097750  76.4418770  71.0851180  23.1330640  78.6406710  56.4047170
  23.5547060  78.4746580  57.2478560  23.2581480  77.8306940  55.9102310
  21.2958060  74.6203260  69.2118150  20.7654520  74.1294210  68.5841490
  21.9646130  75.0487460  68.6776080  25.6458280  77.6644320  53.6524270
  26.1663940  76.9493340  53.2865420  26.2926680  78.3030190  53.9524780
  30.1936120  79.0872720  68.9759340  30.6077140  79.2417800  69.8249760
  29.2587120  79.2127940  69.1385120  30.6658290  76.4268880  70.9798490
  31.2479060  75.6721200  70.8918970  30.8420060  76.9576320  70.2029970
  21.7830360  71.5865630  69.2915440  21.6887230  70.9686380  68.5666310
  21.2027750  72.3131920  69.0645350  24.5491800  70.1438870  66.3242830
  24.1009100  70.1663130  65.4788380  23.9157000  69.7457890  66.9213130
  24.9551350  79.0393200  66.9455270  25.3739460  79.8825930  66.7731510
  24.0359980  79.1765240  66.7162050  27.2915250  76.7709380  68.3293110
  27.4111460  76.1750520  69.0687950  28.1509250  76.8079070  67.9094410
  29.6303150  77.3246570  66.9055620  29.1038370  77.8489190  66.3020760
  29.9734490  77.9573960  67.5365350  22.0289540  74.7139940  53.3505330
  21.8278600  73.8507300  53.7118670  21.8581590  74.6273300  52.4126930
  22.8058770  85.3446210  68.0613000  22.2679860  86.0692270  67.7421700
  23.0592730  84.8676550  67.2710340  24.0584020  73.3130730  69.5868930
  24.6483710  73.0046580  70.2746750  23.2404260  72.8410480  69.7428830
  28.8777450  72.9296540  69.8201950  28.1892970  72.2678080  69.7551940
  29.5983470  72.4834810  70.2650410  29.5077850  69.5248170  55.8792210
  29.7880140  68.6816070  56.2351630  28.7343580  69.7571280  56.3930960
  20.8272340  71.8140560  53.3383210  21.1298240  71.8207990  52.4302360
  21.5666930  71.4638420  53.8350870  25.6620980  86.5797420  68.3199650
  25.5879680  87.4832560  68.6272020  24.7599820  86.2609320  68.2921720
  24.0457270  70.7575180  54.3239410  23.6979270  70.0799170  53.7441860
  24.2470040  70.2964690  55.1382800  26.2106310  85.7455930  55.9426010
  27.1057100  86.0840900  55.9644770  26.2423940  85.0235340  55.3150290
  19.8502470  81.1182980  54.1713010  20.2877340  81.6612650  54.8270590
  20.3350200  80.2929930  54.1809350  17.0648270  83.9072010  61.6233270
  17.3951280  83.0393070  61.3911910  17.4939270  84.1130530  62.4538230
  21.6610190  82.2381020  59.2835240  21.3605730  82.1145990  60.1839150
  21.5547680  81.3789610  58.8750970  17.5538480  84.7742600  64.3614900
  17.1169470  84.9543400  65.1939050  18.1216160  85.5317220  64.2196620
  33.1900660  84.2759600  68.6492210  32.5902650  84.3352160  67.9056130
  33.3194560  83.3364580  68.7789060  34.4302110  82.0177420  53.9861920
  33.5995070  82.0854070  54.4569150  34.6073940  82.9081540  53.6828780
  33.8858570  78.7624900  56.4896120  34.6477480  79.3321550  56.5955810
  33.9012940  78.1952100  57.2604430  17.3862910  77.2862830  60.7203780
  16.7311750  77.0174470  60.0763480  18.2240860  77.1767310  60.2705760
  34.8918540  79.6175000  61.3338050  35.2627370  78.8342320  60.9274020
  35.5320470  80.3064100  61.1555350  31.8752300  81.0011580  66.7468370
  31.0612140  81.4308740  67.0094160  32.2826500  81.6129990  66.1337420
  33.9377740  79.0559270  53.6468640  34.2126580  79.9638150  53.5187860
  33.7488480  78.9921800  54.5830630  30.3353350  72.0804120  54.9422270
  30.7538230  71.8935100  54.1018930  30.0289410  71.2283170  55.2525200
  33.8343080  76.9928260  58.6398070  33.4586680  76.2256190  58.2079360
  33.1046200  77.3750960  59.1273000  18.4238840  77.6715400  65.2607120
  18.7911880  77.5842800  66.1403140  17.8549660  76.9081950  65.1613980
  33.2242700  76.1399780  68.2737590  32.9928790  75.9112530  67.3735540
  33.4847250  77.0599330  68.2282480  17.9754840  74.5824490  69.1665540
  17.0810890  74.5491250  69.5059250  18.5152390  74.7811280  69.9316790
  31.6630770  71.3656210  71.0517290  32.5400950  71.3739610  71.4351290
  31.6751610  70.6287050  70.4409640  16.6000990  74.4961760  56.6629110
  15.6965070  74.7591960  56.4880770  17.0841610  74.7672930  55.8829070
  33.1094040  75.2185750  61.9405310  33.6331520  74.7248400  61.3095480
  33.6953460  75.3536110  62.6852880  33.2883760  75.3025620  65.4624860
  32.3386470  75.2689160  65.5769850  33.4696770  76.2125730  65.2274630
  19.1428200  73.5527300  54.5723490  19.8519900  73.1310520  54.0870770
  18.4268140  73.6202530  53.9406840  18.7902360  69.6066630  53.6126140
  19.5130490  70.1475570  53.9307360  19.0626880  69.3330050  52.7367680
  32.5994010  74.4759100  57.8797720  33.0953130  74.2429970  58.6646600
  32.4010080  73.6370940  57.4635360  18.4794550  68.8572820  63.5148760
  19.1270740  68.3070200  63.0743920  18.8996390  69.1115970  64.3364570
  34.0281170  73.1120050  60.4135400  33.9180450  72.9576090  61.3517670
  34.7888760  72.5840990  60.1710810  32.3746890  69.0514180  66.8718400
  33.0119110  69.6648320  67.2377590  32.5221780  69.0874840  65.9267630
  34.9171440  70.9427970  53.6541540  35.8420750  70.8109150  53.4459830
  34.8947230  71.0220790  54.6077990  34.9909930  71.7138630  56.2798250
  34.1961430  71.6483750  56.8091160  35.1953210  72.6489270  56.2683600
  31.9328350  85.7530180  60.2736640  32.5287420  85.4314750  59.5971060
  32.1906500  85.2802000  61.0649910  18.2326550  69.0128490  66.2574080
  17.8841370  69.4692310  67.0232260  17.9014250  68.1185620  66.3396510
  19.8390920  82.1848090  70.4227270  19.7960550  81.8141000  71.3041730
  19.9701930  83.1225660  70.5629090  23.5396950  83.7407680  66.0236990
  23.2988310  84.0082240  65.1367510  24.4799590  83.9113410  66.0787850
  25.7451370  70.2040370  69.7793500  25.6840260  70.7962200  70.5288910
  26.6851750  70.0966330  69.6343760  28.3825930  69.8610430  69.4185790
  28.9966340  70.1789720  68.7566870  28.9275490  69.3759020  70.0381650
  34.8001110  85.7602060  66.8247630  34.3059390  86.1570930  66.1074760
  34.1914400  85.1351270  67.2184910  18.9047190  68.5404690  69.5324850
  19.4530180  68.3592740  68.7690960  18.9702500  67.7498800  70.0681160
  19.6778950  85.1310340  67.5425050  19.0839270  84.9995040  68.2815090
  19.6702790  84.2948480  67.0767150  29.1233970  68.4242570  65.7455080
  28.2493810  68.7577680  65.5428010  29.0144720  67.9515750  66.5706950
  30.0305950  70.6313440  67.1296800  29.7019310  69.8165200  66.7498530
  30.9788250  70.5883250  67.0062490  32.4840560  86.4025480  64.1034370
  32.0243530  87.1541290  63.7292390  31.8553020  85.6831950  64.0449170
  19.3091180  82.4968720  66.4933090  18.5825240  81.8774010  66.4259040
  19.3700330  82.8909330  65.6231170  22.9136280  84.7113720  63.2782500
  23.4301300  84.1001080  62.7530760  23.5633660  85.2142500  63.7693510
  25.6531780  85.6022210  64.1051480  25.9409590  85.3476510  63.2284490
  26.1655000  85.0499570  64.6957050  26.8708790  69.3412410  64.6847990
  26.0880580  69.8157910  64.9644750  26.5771720  68.4367240  64.5761170
  31.4229860  70.0435510  62.7297080  31.8637950  69.9880610  61.8818680
  31.1537450  70.9593520  62.8007260  33.2868430  69.6750750  60.7405900
  33.2256830  68.7311970  60.5936920  34.0660460  69.7830840  61.2859360
  17.5921180  85.8143110  59.7029850  17.4243220  85.1813790  60.4011740
  16.7255690  86.0202510  59.3524040  18.2149200  69.6459890  57.2061710
  18.9728560  69.7588770  56.6325740  17.7526370  70.4829090  57.1605140
  24.7563010  71.7599160  60.1964020  23.9437520  71.3856050  59.8559900
  25.2604650  71.0044240  60.4985210  29.2587990  68.4241610  61.4347090
  29.8617360  68.9961820  61.9095610  28.5180980  68.9881050  61.2120990
  32.4022590  68.8263170  56.7087370  32.5973220  69.7246620  56.9754800
  31.6152460  68.5950250  57.2020320  19.1983880  84.5076340  57.1479990
  18.6731500  84.8884370  56.4441950  19.1228460  85.1327110  57.8689700
  20.5874350  70.1723940  55.7463680  21.1167110  69.3853740  55.6171630
  21.2202670  70.8515130  55.9799210  22.7812190  69.9099080  58.8009070
  22.1514930  69.2086390  58.9679200  22.2417330  70.6703210  58.5842230
  25.7204140  86.5238310  71.4719680  26.6471450  86.2882580  71.5155640
  25.7054570  87.3510310  70.9905710  33.9549200  86.0663880  58.4693930
  34.1301390  85.3801620  57.8254850  33.2570770  86.5910930  58.0770600
  22.9067750  69.1883060  71.2361560  22.6252020  69.6916660  70.4722380
  23.2887450  68.3904810  70.8703690  21.7976850  86.4558720  56.0229240
  22.5295670  86.1718000  55.4753130  22.0570520  86.2172000  56.9128620
  20.9591640  82.5723450  56.0275570  20.3300520  83.0408550  56.5761400
  21.0739470  81.7272670  56.4621760  29.5083210  68.6036640  71.8142030
  29.3948660  68.9231250  72.7093550  30.3252950  69.0049150  71.5179310
  32.2881700  85.7508170  71.2960720  33.0807020  85.2557400  71.0886680
  32.5814850  86.4298310  71.9036330  28.4141360  76.6229110  42.1776770
  28.3335410  75.7083720  41.9068480  28.0005780  77.1196180  41.4716480
  26.5459400  78.4008130  44.0586040  25.7701500  77.9208570  44.3484610
  27.1972330  77.7213780  43.8842200  20.5625230  78.7127940  44.9361800
  19.7310110  78.4576650  45.3358310  21.1706210  78.7838710  45.6719720
  30.5666830  82.8068320  42.8385170  30.1048360  82.0355560  43.1672340
  31.3792380  82.8334390  43.3437620  20.5426490  82.7468030  45.1319820
  20.8454530  81.8565770  44.9530040  21.2870080  83.3038250  44.9042070
  18.9717180  73.6729830  38.7204190  18.0833880  74.0145800  38.6184070
  19.2558370  73.4730150  37.8285020  16.9350190  76.2735480  44.6043890
  17.5066300  75.5057680  44.6047530  16.9351730  76.5724240  43.6950500
  26.7930140  85.0926330  42.4589160  26.1741580  85.5483830  41.8883600
  27.6481920  85.2477790  42.0578860  25.9868390  81.0765320  44.0656200
  25.9176670  80.1355260  43.9045330  26.7488250  81.1666730  44.6378770
  18.1775060  71.6819840  46.3912820  17.9977900  70.7845590  46.6715580
  17.7755140  72.2291710  47.0659770  27.0173560  73.8835700  44.2925130
  27.3938380  73.0107580  44.1798800  26.9193070  74.2194400  43.4015570
  21.1478570  72.2561330  39.7542570  21.2545320  73.1565060  40.0611330
  20.2370930  72.2079300  39.4637220  30.7997680  71.3786140  41.2253470
  31.6207300  70.8882710  41.2678950  30.8331760  71.9683800  41.9785310
  18.7961730  74.1780340  44.9995160  19.4771840  74.4418710  45.6182560
  18.4809780  73.3381210  45.3333170  22.9886300  75.2247700  44.0867750
  23.4964520  75.7228670  44.7272770  23.5199540  74.4482900  43.9107110
  35.0897230  73.3952890  47.7897100  34.3849400  73.7834600  47.2712210
  35.3555150  74.0903180  48.3918030  21.2722400  69.8646260  48.3531170
  21.2740840  70.3818650  47.5477070  20.4426710  69.3876440  48.3301100
  27.6593490  79.9765570  39.8521070  27.0410760  80.4415020  39.2883790
  28.1716740  80.6693050  40.2690580  22.5225250  79.5041440  46.5304670
  22.1894630  80.1310360  47.1725740  22.6991930  80.0303320  45.7506340
  31.0359160  73.3186520  43.9981010  30.3314730  73.6071410  44.5784120
  31.3971320  74.1286630  43.6380570  20.9537730  71.5756220  46.3601620
  21.2954540  72.4198270  46.0655490  20.0153540  71.7239960  46.4766960
  21.7344350  81.4722240  48.3453850  22.3518350  82.1473320  48.0638300
  20.8737470  81.8810220  48.2541350  17.0276690  80.6622100  37.2260700
  16.6504670  81.1509200  36.4945600  17.2849760  81.3347380  37.8567230
  32.6521940  82.9361650  46.2608490  31.9685460  83.6060760  46.2525160
  33.1916230  83.1342300  45.4953350  34.1046080  72.7641310  44.3890220
  33.1570990  72.7980290  44.5205650  34.4296070  73.5780260  44.7739580
  24.6365620  69.0638490  42.6846210  24.9440600  68.5085380  41.9681710
  23.7066320  69.1982950  42.5019200  30.1880680  84.7805780  44.9753670
  30.2007840  84.3768070  44.1075930  29.6355900  85.5553070  44.8715100
  31.4826100  81.5022000  40.0643840  31.3722430  80.5596330  40.1893260
  31.4794350  81.8637640  40.9506600  29.5866120  79.6835620  46.3036280
  30.0034910  79.4695730  45.4689740  30.3105940  79.9408410  46.8744900
  27.0246380  77.1287320  39.4206330  26.0975660  77.0624700  39.6494800
  27.1771200  78.0667450  39.3061570  27.0115460  73.4004320  36.4173490
  26.0719130  73.5618280  36.5025950  27.3298720  74.1190000  35.8709480
  33.5328220  78.0822840  46.3952520  32.7046850  78.1515930  45.9202650
  34.1278700  78.6677150  45.9268350  31.0543670  78.6907620  39.9241580
  30.4356090  78.3527170  39.2767880  31.0368120  78.0467380  40.6320770
  30.4970230  74.8692160  47.3407390  30.0841410  75.6945870  47.5947380
  29.7646180  74.2837200  47.1483750  22.6303020  77.6552060  42.2026060
  22.2260020  76.9429310  41.7071960  22.7166140  77.3105300  43.0914100
  23.0984720  81.3419620  44.3665270  22.8013010  80.7365090  43.6873050
  24.0484540  81.3796930  44.2554630  21.3431640  74.4295270  45.9825100
  21.8946230  74.5390610  45.2078350  21.8575150  74.8032870  46.6980330
  31.1870330  84.9151490  48.0288370  30.7100890  85.7223680  47.8360980
  30.5032120  84.2629820  48.1814580  22.1903150  81.0801310  51.0173070
  21.2931680  81.3041280  51.2646470  22.2156020  81.2036250  50.0684470
  29.2308370  77.9294430  36.9314330  29.6701650  77.0916860  36.7852150
  29.9436790  78.5623830  37.0178470  21.0174370  77.9514630  49.5930440
  20.8782140  78.8237430  49.9617840  20.1355730  77.6087440  49.4478380
  27.3403750  82.8690500  40.8995570  27.7799660  83.6114830  40.4850960
  27.2790640  83.1117070  41.8234530  22.8154720  83.8936330  51.8015590
  22.7870150  84.2979280  50.9344020  22.6519690  82.9646690  51.6387190
  32.8125510  69.1837240  35.2455370  32.4998170  69.2764070  36.1454440
  33.5737980  69.7618270  35.1952800  19.3307650  76.5497040  39.7032710
  19.2105250  77.2759130  39.0913980  19.0208540  75.7799950  39.2260620
  34.7669540  84.6763430  53.0979760  35.2429260  85.1546320  53.7768840
  35.3876700  84.6080920  52.3725260  16.9693020  79.7212180  45.5101350
  17.0473440  79.8560950  44.5657070  17.5834700  79.0128070  45.7029470
  18.2140650  81.4212370  41.9207530  17.8068730  81.5626960  41.0661130
  19.1053660  81.1372530  41.7178740  34.1702790  81.8676280  50.2579770
  34.2965850  81.6288160  49.3396950  34.2124170  81.0360820  50.7301850
  28.0319530  85.5704280  48.8274580  28.5464200  85.4812290  49.6297010
  27.1888610  85.9163980  49.1202490  30.0073930  85.8559620  38.2558580
  29.8475070  85.5662560  39.1540410  29.8420640  85.0799750  37.7203810
  22.4862310  85.6358150  40.0330200  22.3104790  84.7193690  39.8198000
  21.6318050  85.9945440  40.2728000  29.7100060  83.3647180  36.8156580
  29.0165220  83.3624470  36.1558860  30.4522920  82.9406500  36.3850750
  29.2749990  84.9909890  40.8905070  29.7306940  84.2099270  41.2043690
  29.6142510  85.7016710  41.4346250  34.0226800  73.9208740  51.2229510
  33.4071070  74.4288410  50.6944970  33.7023220  73.0207070  51.1655450
  17.0252540  80.7626350  48.0495810  17.1883580  80.2931710  47.2315180
  17.4904990  80.2549910  48.7144650  21.7971310  69.8932110  43.0856380
  21.3539460  70.6741650  42.7540900  22.3556300  70.2162000  43.7927320
  26.0841120  72.7600630  48.6891700  25.6220490  72.9683650  49.5011640
  25.6819230  71.9459980  48.3862370  31.0845630  73.9809580  49.8188360
  30.2339220  73.6815330  50.1397430  30.9247420  74.2251590  48.9072180
  28.1795340  75.4811330  51.9187150  28.5048750  74.6475080  51.5789380
  28.9675670  76.0039850  52.0665480  24.9130130  69.5142810  37.9662210
  24.2884310  69.5102680  38.6915520  24.8260250  68.6473770  37.5698180
  23.8347210  70.4379440  44.9445980  24.1319540  71.3442270  44.8638000
  24.3832770  69.9498220  44.3305550  21.5885530  75.0165680  40.8137630
  21.3626450  74.8002850  41.7184250  20.8078060  75.4494140  40.4683600
  28.8183290  75.0229050  39.4128280  28.2192180  75.7464850  39.2291900
  29.3662900  74.9605830  38.6304730  24.0284740  75.9151260  51.4797900
  23.9328340  74.9745990  51.3298300  24.8716720  76.1366330  51.0845970
  27.4248160  73.6592590  41.4431560  27.8177730  73.9764790  40.6300250
  27.7865010  72.7804470  41.5576080  19.1595280  72.3264930  49.6331680
  18.7658670  73.1740140  49.8404460  18.4713680  71.6891300  49.8240320
  25.7340330  72.4099900  52.7028420  25.0438650  72.2172100  53.3374510
  26.4772630  72.6934540  53.2352720  16.4612330  70.2493390  43.6661760
  16.1725380  70.8196250  44.3786740  17.2058090  69.7697840  44.0292990
  16.6482560  74.1913510  34.8764480  16.5657230  75.1344270  35.0179470
  16.2965620  74.0488420  33.9976830  28.0103300  76.2498340  45.5382340
  27.2784420  76.7585150  45.8872440  27.6127640  75.4328320  45.2371120
  24.4480690  72.9252540  43.9434830  24.4516750  72.4842490  43.0939370
  25.3431810  73.2469870  44.0506650  20.2983070  72.8079030  42.9029040
  19.9583120  73.2854260  43.6596090  19.5360390  72.3544150  42.5430140
  24.5100840  73.9264620  36.9341590  24.6313660  73.8851100  37.8827410
  24.1249350  74.7888770  36.7788320  28.4729210  71.7032020  44.9505280
  28.4901950  72.1540670  45.7947130  28.2244790  70.8037660  45.1638720
  23.5222340  76.2365760  36.3324890  22.9539240  75.7884010  35.7060800
  24.2311340  76.5958540  35.7990040  31.8999960  69.1164200  50.7891660
  32.2245730  68.3853860  51.3149640  31.9356470  68.7977840  49.8872650
  18.5991520  80.1377780  50.2091620  18.2146310  79.4971450  50.8074580
  18.9103710  80.8413900  50.7786350  24.7488660  76.9854320  45.6900240
  25.1158790  76.5112890  46.4361580  24.5593720  77.8595890  46.0308580
  17.6129150  71.7298010  41.8193710  17.3276070  71.3653680  42.6572330
  17.5508010  70.9978470  41.2056850  22.5388030  76.0262960  48.0084450
  22.2345100  76.9054940  48.2334810  23.4934490  76.0862750  48.0441890
  21.0669820  80.2323950  38.6051300  20.2932080  79.6921570  38.4450020
  21.7964450  79.7130560  38.2669060  31.8257800  79.2289310  44.3977690
  32.5456920  79.7244600  44.0073800  31.6239620  78.5507200  43.7531560
  27.2867740  70.6227270  38.5407080  26.4732350  70.1240440  38.4652390
  27.0929690  71.4625520  38.1243430  27.2076600  79.2998370  50.2846690
  27.1413910  78.3794040  50.0304280  26.5781740  79.3973810  50.9991330
  30.0016130  74.9946920  36.8369240  30.8895750  75.3064150  36.6620580
  29.9721220  74.1219170  36.4449820  21.1107220  79.9004330  42.2430110
  21.6285890  79.0972590  42.1887000  20.6591240  79.8383470  43.0846940
  25.9976720  81.1670610  37.5157410  26.3392420  81.9112840  37.0200730
  25.1689430  81.4801730  37.8782240  18.5951760  76.8665700  49.1555810
  18.2366700  77.5319550  49.7429150  18.3006320  76.0349250  49.5268430
  21.7964880  77.3249940  52.0395360  21.4965020  77.4707120  51.1423180
  22.5676120  76.7655230  51.9468750  27.1393330  82.1218940  50.0350490
  27.1537870  81.1899900  49.8169400  26.4318430  82.2078700  50.6740260
  32.2730400  76.3058760  36.3049100  32.1894120  76.7372980  35.4545540
  32.9924590  76.7657110  36.7375920  33.3504540  78.7626280  49.3819070
  32.6252730  79.3555060  49.1848460  33.8780000  78.7549820  48.5832440
  33.3017650  83.1601020  39.0331230  32.6593810  82.5056640  39.3074950
  32.9148310  83.5656110  38.2571900  28.8804130  80.4886450  42.8802920
  29.2327950  79.8914580  42.2204290  27.9966460  80.1630680  43.0511170
  24.9667410  81.2484140  40.2873330  25.6538540  81.7953350  40.6680920
  24.1799830  81.7924870  40.3222940  17.1059810  76.8656960  35.7790410
  17.9754660  77.1481760  36.0626330  16.6150130  77.6792830  35.6639220
  24.2694620  78.2530170  39.8998690  24.7257400  79.0635420  40.1258880
  23.9182830  77.9353310  40.7317180  26.5727230  83.7636510  47.1290990
  27.2169450  83.9695890  47.8064410  26.9356670  83.0024910  46.6761840
  20.1706400  68.5967820  40.3721210  20.0421030  68.5885720  41.3206130
  19.3468420  68.9350910  40.0212220  27.8459310  81.7668860  45.8468440
  28.4881540  81.0662020  45.9600610  28.3708660  82.5467300  45.6665330
  31.6915030  82.0517480  35.5707580  31.4652610  81.3347920  36.1632220
  31.3011230  81.8029920  34.7329330  29.6196930  82.5663760  49.0504500
  29.9553170  83.1530450  49.7282420  28.6997270  82.4356470  49.2802290
  17.4731060  86.0784340  36.3452040  17.8328700  86.6773680  35.6909310
  17.3323400  86.6244230  37.1187070  17.1700330  70.3558940  49.8327910
  16.4558850  70.5555860  50.4380520  17.5895370  69.5798510  50.2042710
  31.2731280  79.9689420  37.2321740  30.9852980  80.4302110  38.0199620
  32.0683450  79.5087190  37.5005960  17.4572920  84.3439200  50.8194440
  17.5664040  83.4033940  50.6789830  16.8053480  84.6093950  50.1708170
  25.4485510  82.6155090  52.2192560  25.1282380  81.8964330  52.7638250
  24.7743870  83.2910160  52.2928620  23.4899680  83.4615540  37.1625710
  23.4809780  84.1945230  36.5470220  22.5698040  83.2147120  37.2552670
  19.0906320  78.6830430  37.9072470  18.4834270  79.4229330  37.9167770
  19.5655670  78.7729790  37.0810670  28.6639110  72.8481250  47.5829360
  29.0319930  72.0276460  47.9108930  27.8037310  72.9083140  47.9985010
  32.0301140  71.8038190  38.3916920  31.4014300  71.9083860  37.6775150
  31.5353060  72.0234970  39.1810800  26.4759280  83.5243780  35.8250900
  26.5771260  83.3207770  34.8952880  25.5761020  83.2702060  36.0298680
  23.9985170  74.0824140  39.8074800  23.2901320  74.5510480  40.2488410
  24.2829650  73.4246150  40.4419990  25.6241100  75.5020840  47.8067330
  26.1226350  75.9766660  48.4719180  25.7664050  74.5784360  48.0137360
  28.0300600  70.8074800  41.2470590  27.9068380  70.8260930  40.2980100
  28.9785160  70.8553740  41.3668990  25.1177390  86.0430100  40.5198570
  25.3718890  86.0051490  39.5977940  24.1689870  85.9163430  40.5126820
  22.2020190  72.3909220  37.1825510  23.0510720  72.8279370  37.1165700
  21.8351460  72.7029480  38.0097570  32.8307960  71.7188800  48.6495720
  32.3281560  72.4594200  48.9889530  33.6464620  72.1072800  48.3332510
  31.1229970  76.9621980  42.0957080  30.1820110  76.9772210  42.2704770
  31.4374040  76.1757940  42.5417380  21.1011610  78.6441580  35.6561040
  21.8674880  78.5322940  36.2186470  21.1786300  77.9479550  35.0037810
  19.7958370  76.0766650  36.3393930  19.8761960  75.1294160  36.4511330
  20.6878120  76.4073530  36.4454590  33.1255550  84.1330830  43.7711340
  33.2502970  84.9562000  44.2435150  33.9921110  83.9221560  43.4235490
  20.5973080  86.2262040  43.4428470  21.3335560  85.6777500  43.7137040
  20.9814000  87.0918050  43.3034460  17.4818560  82.2935610  39.3169980
  16.5558340  82.5356750  39.3075390  17.9474990  83.1209870  39.1954730
  19.6031360  85.4108110  52.6314050  20.4044090  85.7320160  53.0449450
  19.0883180  85.0503690  53.3533960  23.7075390  85.3992350  35.2654040
  24.5004000  85.6881180  34.8135830  23.1879740  84.9684520  34.5866520
  28.4395990  81.5187980  52.5789460  27.8334150  81.5419580  51.8385210
  28.1350100  80.7871020  53.1156710  29.8696360  85.2468270  51.1898870
  30.8218110  85.1626290  51.1399110  29.7224580  85.9109980  51.8632660
  32.7605560  84.6262480  36.6890780  32.4747070  84.2127620  35.8744960
  32.5625110  85.5550190  36.5691300  17.3229170  77.8981570  51.5750100
  17.8268190  77.3188850  52.1466330  16.5836590  78.1821800  52.1126470
  24.2252790  80.6195760  35.1296390  24.1203430  80.0048110  35.8557770
  24.0577010  80.0961650  34.3459400  24.3767110  79.3052560  51.1085620
  23.6112780  79.8737560  51.0240290  24.5583070  79.0128770  50.2153850
  27.4655520  79.6815790  35.7338380  26.9165620  80.1285090  36.3781120
  28.0874780  79.1765040  36.2576050  31.5190460  81.0357890  51.6660640
  32.2599930  81.3733650  51.1628100  30.7563140  81.2049950  51.1130410
  19.3552250  76.0411160  52.4700170  19.3957590  75.7425030  53.3785400
  20.2097750  76.4418770  52.3107690  23.1330640  78.6406710  37.6303680
  23.5547060  78.4746580  38.4735070  23.2581480  77.8306940  37.1358820
  21.2958060  74.6203260  50.4374660  20.7654520  74.1294210  49.8098000
  21.9646130  75.0487460  49.9032590  25.6458280  77.6644320  34.8780780
  26.1663940  76.9493340  34.5121930  26.2926680  78.3030190  35.1781290
  30.1936120  79.0872720  50.2015850  30.6077140  79.2417800  51.0506270
  29.2587120  79.2127940  50.3641630  30.6658290  76.4268880  52.2055000
  31.2479060  75.6721200  52.1175480  30.8420060  76.9576320  51.4286480
  21.7830360  71.5865630  50.5171950  21.6887230  70.9686380  49.7922820
  21.2027750  72.3131920  50.2901860  24.5491800  70.1438870  47.5499340
  24.1009100  70.1663130  46.7044890  23.9157000  69.7457890  48.1469640
  24.9551350  79.0393200  48.1711780  25.3739460  79.8825930  47.9988020
  24.0359980  79.1765240  47.9418560  27.2915250  76.7709380  49.5549620
  27.4111460  76.1750520  50.2944460  28.1509250  76.8079070  49.1350920
  29.6303150  77.3246570  48.1312130  29.1038370  77.8489190  47.5277270
  29.9734490  77.9573960  48.7621860  22.0289540  74.7139940  34.5761840
  21.8278600  73.8507300  34.9375180  21.8581590  74.6273300  33.6383440
  22.8058770  85.3446210  49.2869510  22.2679860  86.0692270  48.9678210
  23.0592730  84.8676550  48.4966850  24.0584020  73.3130730  50.8125440
  24.6483710  73.0046580  51.5003260  23.2404260  72.8410480  50.9685340
  28.8777450  72.9296540  51.0458460  28.1892970  72.2678080  50.9808450
  29.5983470  72.4834810  51.4906920  29.5077850  69.5248170  37.1048720
  29.7880140  68.6816070  37.4608140  28.7343580  69.7571280  37.6187470
  20.8272340  71.8140560  34.5639720  21.1298240  71.8207990  33.6558870
  21.5666930  71.4638420  35.0607380  25.6620980  86.5797420  49.5456160
  25.5879680  87.4832560  49.8528530  24.7599820  86.2609320  49.5178230
  24.0457270  70.7575180  35.5495920  23.6979270  70.0799170  34.9698370
  24.2470040  70.2964690  36.3639310  26.2106310  85.7455930  37.1682520
  27.1057100  86.0840900  37.1901280  26.2423940  85.0235340  36.5406800
  19.8502470  81.1182980  35.3969520  20.2877340  81.6612650  36.0527100
  20.3350200  80.2929930  35.4065860  17.0648270  83.9072010  42.8489780
  17.3951280  83.0393070  42.6168420  17.4939270  84.1130530  43.6794740
  21.6610190  82.2381020  40.5091750  21.3605730  82.1145990  41.4095660
  21.5547680  81.3789610  40.1007480  17.5538480  84.7742600  45.5871410
  17.1169470  84.9543400  46.4195560  18.1216160  85.5317220  45.4453130
  33.1900660  84.2759600  49.8748720  32.5902650  84.3352160  49.1312640
  33.3194560  83.3364580  50.0045570  34.4302110  82.0177420  35.2118430
  33.5995070  82.0854070  35.6825660  34.6073940  82.9081540  34.9085290
  33.8858570  78.7624900  37.7152630  34.6477480  79.3321550  37.8212320
  33.9012940  78.1952100  38.4860940  17.3862910  77.2862830  41.9460290
  16.7311750  77.0174470  41.3019990  18.2240860  77.1767310  41.4962270
  34.8918540  79.6175000  42.5594560  35.2627370  78.8342320  42.1530530
  35.5320470  80.3064100  42.3811860  31.8752300  81.0011580  47.9724880
  31.0612140  81.4308740  48.2350670  32.2826500  81.6129990  47.3593930
  33.9377740  79.0559270  34.8725150  34.2126580  79.9638150  34.7444370
  33.7488480  78.9921800  35.8087140  30.3353350  72.0804120  36.1678780
  30.7538230  71.8935100  35.3275440  30.0289410  71.2283170  36.4781710
  33.8343080  76.9928260  39.8654580  33.4586680  76.2256190  39.4335870
  33.1046200  77.3750960  40.3529510  18.4238840  77.6715400  46.4863630
  18.7911880  77.5842800  47.3659650  17.8549660  76.9081950  46.3870490
  33.2242700  76.1399780  49.4994100  32.9928790  75.9112530  48.5992050
  33.4847250  77.0599330  49.4538990  17.9754840  74.5824490  50.3922050
  17.0810890  74.5491250  50.7315760  18.5152390  74.7811280  51.1573300
  31.6630770  71.3656210  52.2773800  32.5400950  71.3739610  52.6607800
  31.6751610  70.6287050  51.6666150  16.6000990  74.4961760  37.8885620
  15.6965070  74.7591960  37.7137280  17.0841610  74.7672930  37.1085580
  33.1094040  75.2185750  43.1661820  33.6331520  74.7248400  42.5351990
  33.6953460  75.3536110  43.9109390  33.2883760  75.3025620  46.6881370
  32.3386470  75.2689160  46.8026360  33.4696770  76.2125730  46.4531140
  19.1428200  73.5527300  35.7980000  19.8519900  73.1310520  35.3127280
  18.4268140  73.6202530  35.1663350  18.7902360  69.6066630  34.8382650
  19.5130490  70.1475570  35.1563870  19.0626880  69.3330050  33.9624190
  32.5994010  74.4759100  39.1054230  33.0953130  74.2429970  39.8903110
  32.4010080  73.6370940  38.6891870  18.4794550  68.8572820  44.7405270
  19.1270740  68.3070200  44.3000430  18.8996390  69.1115970  45.5621080
  34.0281170  73.1120050  41.6391910  33.9180450  72.9576090  42.5774180
  34.7888760  72.5840990  41.3967320  32.3746890  69.0514180  48.0974910
  33.0119110  69.6648320  48.4634100  32.5221780  69.0874840  47.1524140
  34.9171440  70.9427970  34.8798050  35.8420750  70.8109150  34.6716340
  34.8947230  71.0220790  35.8334500  34.9909930  71.7138630  37.5054760
  34.1961430  71.6483750  38.0347670  35.1953210  72.6489270  37.4940110
  31.9328350  85.7530180  41.4993150  32.5287420  85.4314750  40.8227570
  32.1906500  85.2802000  42.2906420  18.2326550  69.0128490  47.4830590
  17.8841370  69.4692310  48.2488770  17.9014250  68.1185620  47.5653020
  19.8390920  82.1848090  51.6483780  19.7960550  81.8141000  52.5298240
  19.9701930  83.1225660  51.7885600  23.5396950  83.7407680  47.2493500
  23.2988310  84.0082240  46.3624020  24.4799590  83.9113410  47.3044360
  25.7451370  70.2040370  51.0050010  25.6840260  70.7962200  51.7545420
  26.6851750  70.0966330  50.8600270  28.3825930  69.8610430  50.6442300
  28.9966340  70.1789720  49.9823380  28.9275490  69.3759020  51.2638160
  34.8001110  85.7602060  48.0504140  34.3059390  86.1570930  47.3331270
  34.1914400  85.1351270  48.4441420  18.9047190  68.5404690  50.7581360
  19.4530180  68.3592740  49.9947470  18.9702500  67.7498800  51.2937670
  19.6778950  85.1310340  48.7681560  19.0839270  84.9995040  49.5071600
  19.6702790  84.2948480  48.3023660  29.1233970  68.4242570  46.9711590
  28.2493810  68.7577680  46.7684520  29.0144720  67.9515750  47.7963460
  30.0305950  70.6313440  48.3553310  29.7019310  69.8165200  47.9755040
  30.9788250  70.5883250  48.2319000  32.4840560  86.4025480  45.3290880
  32.0243530  87.1541290  44.9548900  31.8553020  85.6831950  45.2705680
  19.3091180  82.4968720  47.7189600  18.5825240  81.8774010  47.6515550
  19.3700330  82.8909330  46.8487680  22.9136280  84.7113720  44.5039010
  23.4301300  84.1001080  43.9787270  23.5633660  85.2142500  44.9950020
  25.6531780  85.6022210  45.3307990  25.9409590  85.3476510  44.4541000
  26.1655000  85.0499570  45.9213560  26.8708790  69.3412410  45.9104500
  26.0880580  69.8157910  46.1901260  26.5771720  68.4367240  45.8017680
  31.4229860  70.0435510  43.9553590  31.8637950  69.9880610  43.1075190
  31.1537450  70.9593520  44.0263770  33.2868430  69.6750750  41.9662410
  33.2256830  68.7311970  41.8193430  34.0660460  69.7830840  42.5115870
  17.5921180  85.8143110  40.9286360  17.4243220  85.1813790  41.6268250
  16.7255690  86.0202510  40.5780550  18.2149200  69.6459890  38.4318220
  18.9728560  69.7588770  37.8582250  17.7526370  70.4829090  38.3861650
  24.7563010  71.7599160  41.4220530  23.9437520  71.3856050  41.0816410
  25.2604650  71.0044240  41.7241720  29.2587990  68.4241610  42.6603600
  29.8617360  68.9961820  43.1352120  28.5180980  68.9881050  42.4377500
  32.4022590  68.8263170  37.9343880  32.5973220  69.7246620  38.2011310
  31.6152460  68.5950250  38.4276830  19.1983880  84.5076340  38.3736500
  18.6731500  84.8884370  37.6698460  19.1228460  85.1327110  39.0946210
  20.5874350  70.1723940  36.9720190  21.1167110  69.3853740  36.8428140
  21.2202670  70.8515130  37.2055720  22.7812190  69.9099080  40.0265580
  22.1514930  69.2086390  40.1935710  22.2417330  70.6703210  39.8098740
  25.7204140  86.5238310  52.6976190  26.6471450  86.2882580  52.7412150
  25.7054570  87.3510310  52.2162220  33.9549200  86.0663880  39.6950440
  34.1301390  85.3801620  39.0511360  33.2570770  86.5910930  39.3027110
  22.9067750  69.1883060  52.4618070  22.6252020  69.6916660  51.6978890
  23.2887450  68.3904810  52.0960200  21.7976850  86.4558720  37.2485750
  22.5295670  86.1718000  36.7009640  22.0570520  86.2172000  38.1385130
  20.9591640  82.5723450  37.2532080  20.3300520  83.0408550  37.8017910
  21.0739470  81.7272670  37.6878270  29.5083210  68.6036640  53.0398540
  29.3948660  68.9231250  53.9350060  30.3252950  69.0049150  52.7435820
  32.2881700  85.7508170  52.5217230  33.0807020  85.2557400  52.3143190
  32.5814850  86.4298310  53.1292840  28.4141360  76.6229110  23.4033280
  28.3335410  75.7083720  23.1324990  28.0005780  77.1196180  22.6972990
  26.5459400  78.4008130  25.2842550  25.7701500  77.9208570  25.5741120
  27.1972330  77.7213780  25.1098710  20.5625230  78.7127940  26.1618310
  19.7310110  78.4576650  26.5614820  21.1706210  78.7838710  26.8976230
  30.5666830  82.8068320  24.0641680  30.1048360  82.0355560  24.3928850
  31.3792380  82.8334390  24.5694130  20.5426490  82.7468030  26.3576330
  20.8454530  81.8565770  26.1786550  21.2870080  83.3038250  26.1298580
  18.9717180  73.6729830  19.9460700  18.0833880  74.0145800  19.8440580
  19.2558370  73.4730150  19.0541530  16.9350190  76.2735480  25.8300400
  17.5066300  75.5057680  25.8304040  16.9351730  76.5724240  24.9207010
  26.7930140  85.0926330  23.6845670  26.1741580  85.5483830  23.1140110
  27.6481920  85.2477790  23.2835370  25.9868390  81.0765320  25.2912710
  25.9176670  80.1355260  25.1301840  26.7488250  81.1666730  25.8635280
  18.1775060  71.6819840  27.6169330  17.9977900  70.7845590  27.8972090
  17.7755140  72.2291710  28.2916280  27.0173560  73.8835700  25.5181640
  27.3938380  73.0107580  25.4055310  26.9193070  74.2194400  24.6272080
  21.1478570  72.2561330  20.9799080  21.2545320  73.1565060  21.2867840
  20.2370930  72.2079300  20.6893730  30.7997680  71.3786140  22.4509980
  31.6207300  70.8882710  22.4935460  30.8331760  71.9683800  23.2041820
  18.7961730  74.1780340  26.2251670  19.4771840  74.4418710  26.8439070
  18.4809780  73.3381210  26.5589680  22.9886300  75.2247700  25.3124260
  23.4964520  75.7228670  25.9529280  23.5199540  74.4482900  25.1363620
  35.0897230  73.3952890  29.0153610  34.3849400  73.7834600  28.4968720
  35.3555150  74.0903180  29.6174540  21.2722400  69.8646260  29.5787680
  21.2740840  70.3818650  28.7733580  20.4426710  69.3876440  29.5557610
  27.6593490  79.9765570  21.0777580  27.0410760  80.4415020  20.5140300
  28.1716740  80.6693050  21.4947090  22.5225250  79.5041440  27.7561180
  22.1894630  80.1310360  28.3982250  22.6991930  80.0303320  26.9762850
  31.0359160  73.3186520  25.2237520  30.3314730  73.6071410  25.8040630
  31.3971320  74.1286630  24.8637080  20.9537730  71.5756220  27.5858130
  21.2954540  72.4198270  27.2912000  20.0153540  71.7239960  27.7023470
  21.7344350  81.4722240  29.5710360  22.3518350  82.1473320  29.2894810
  20.8737470  81.8810220  29.4797860  17.0276690  80.6622100  18.4517210
  16.6504670  81.1509200  17.7202110  17.2849760  81.3347380  19.0823740
  32.6521940  82.9361650  27.4865000  31.9685460  83.6060760  27.4781670
  33.1916230  83.1342300  26.7209860  34.1046080  72.7641310  25.6146730
  33.1570990  72.7980290  25.7462160  34.4296070  73.5780260  25.9996090
  24.6365620  69.0638490  23.9102720  24.9440600  68.5085380  23.1938220
  23.7066320  69.1982950  23.7275710  30.1880680  84.7805780  26.2010180
  30.2007840  84.3768070  25.3332440  29.6355900  85.5553070  26.0971610
  31.4826100  81.5022000  21.2900350  31.3722430  80.5596330  21.4149770
  31.4794350  81.8637640  22.1763110  29.5866120  79.6835620  27.5292790
  30.0034910  79.4695730  26.6946250  30.3105940  79.9408410  28.1001410
  27.0246380  77.1287320  20.6462840  26.0975660  77.0624700  20.8751310
  27.1771200  78.0667450  20.5318080  27.0115460  73.4004320  17.6430000
  26.0719130  73.5618280  17.7282460  27.3298720  74.1190000  17.0965990
  33.5328220  78.0822840  27.6209030  32.7046850  78.1515930  27.1459160
  34.1278700  78.6677150  27.1524860  31.0543670  78.6907620  21.1498090
  30.4356090  78.3527170  20.5024390  31.0368120  78.0467380  21.8577280
  30.4970230  74.8692160  28.5663900  30.0841410  75.6945870  28.8203890
  29.7646180  74.2837200  28.3740260  22.6303020  77.6552060  23.4282570
  22.2260020  76.9429310  22.9328470  22.7166140  77.3105300  24.3170610
  23.0984720  81.3419620  25.5921780  22.8013010  80.7365090  24.9129560
  24.0484540  81.3796930  25.4811140  21.3431640  74.4295270  27.2081610
  21.8946230  74.5390610  26.4334860  21.8575150  74.8032870  27.9236840
  31.1870330  84.9151490  29.2544880  30.7100890  85.7223680  29.0617490
  30.5032120  84.2629820  29.4071090  22.1903150  81.0801310  32.2429580
  21.2931680  81.3041280  32.4902980  22.2156020  81.2036250  31.2940980
  29.2308370  77.9294430  18.1570840  29.6701650  77.0916860  18.0108660
  29.9436790  78.5623830  18.2434980  21.0174370  77.9514630  30.8186950
  20.8782140  78.8237430  31.1874350  20.1355730  77.6087440  30.6734890
  27.3403750  82.8690500  22.1252080  27.7799660  83.6114830  21.7107470
  27.2790640  83.1117070  23.0491040  22.8154720  83.8936330  33.0272100
  22.7870150  84.2979280  32.1600530  22.6519690  82.9646690  32.8643700
  32.8125510  69.1837240  16.4711880  32.4998170  69.2764070  17.3710950
  33.5737980  69.7618270  16.4209310  19.3307650  76.5497040  20.9289220
  19.2105250  77.2759130  20.3170490  19.0208540  75.7799950  20.4517130
  34.7669540  84.6763430  34.3236270  35.2429260  85.1546320  35.0025350
  35.3876700  84.6080920  33.5981770  16.9693020  79.7212180  26.7357860
  17.0473440  79.8560950  25.7913580  17.5834700  79.0128070  26.9285980
  18.2140650  81.4212370  23.1464040  17.8068730  81.5626960  22.2917640
  19.1053660  81.1372530  22.9435250  34.1702790  81.8676280  31.4836280
  34.2965850  81.6288160  30.5653460  34.2124170  81.0360820  31.9558360
  28.0319530  85.5704280  30.0531090  28.5464200  85.4812290  30.8553520
  27.1888610  85.9163980  30.3459000  30.0073930  85.8559620  19.4815090
  29.8475070  85.5662560  20.3796920  29.8420640  85.0799750  18.9460320
  22.4862310  85.6358150  21.2586710  22.3104790  84.7193690  21.0454510
  21.6318050  85.9945440  21.4984510  29.7100060  83.3647180  18.0413090
  29.0165220  83.3624470  17.3815370  30.4522920  82.9406500  17.6107260
  29.2749990  84.9909890  22.1161580  29.7306940  84.2099270  22.4300200
  29.6142510  85.7016710  22.6602760  34.0226800  73.9208740  32.4486020
  33.4071070  74.4288410  31.9201480  33.7023220  73.0207070  32.3911960
  17.0252540  80.7626350  29.2752320  17.1883580  80.2931710  28.4571690
  17.4904990  80.2549910  29.9401160  21.7971310  69.8932110  24.3112890
  21.3539460  70.6741650  23.9797410  22.3556300  70.2162000  25.0183830
  26.0841120  72.7600630  29.9148210  25.6220490  72.9683650  30.7268150
  25.6819230  71.9459980  29.6118880  31.0845630  73.9809580  31.0444870
  30.2339220  73.6815330  31.3653940  30.9247420  74.2251590  30.1328690
  28.1795340  75.4811330  33.1443660  28.5048750  74.6475080  32.8045890
  28.9675670  76.0039850  33.2921990  24.9130130  69.5142810  19.1918720
  24.2884310  69.5102680  19.9172030  24.8260250  68.6473770  18.7954690
  23.8347210  70.4379440  26.1702490  24.1319540  71.3442270  26.0894510
  24.3832770  69.9498220  25.5562060  21.5885530  75.0165680  22.0394140
  21.3626450  74.8002850  22.9440760  20.8078060  75.4494140  21.6940110
  28.8183290  75.0229050  20.6384790  28.2192180  75.7464850  20.4548410
  29.3662900  74.9605830  19.8561240  24.0284740  75.9151260  32.7054410
  23.9328340  74.9745990  32.5554810  24.8716720  76.1366330  32.3102480
  27.4248160  73.6592590  22.6688070  27.8177730  73.9764790  21.8556760
  27.7865010  72.7804470  22.7832590  19.1595280  72.3264930  30.8588190
  18.7658670  73.1740140  31.0660970  18.4713680  71.6891300  31.0496830
  25.7340330  72.4099900  33.9284930  25.0438650  72.2172100  34.5631020
  26.4772630  72.6934540  34.4609230  16.4612330  70.2493390  24.8918270
  16.1725380  70.8196250  25.6043250  17.2058090  69.7697840  25.2549500
  16.6482560  74.1913510  16.1020990  16.5657230  75.1344270  16.2435980
  16.2965620  74.0488420  15.2233340  28.0103300  76.2498340  26.7638850
  27.2784420  76.7585150  27.1128950  27.6127640  75.4328320  26.4627630
  24.4480690  72.9252540  25.1691340  24.4516750  72.4842490  24.3195880
  25.3431810  73.2469870  25.2763160  20.2983070  72.8079030  24.1285550
  19.9583120  73.2854260  24.8852600  19.5360390  72.3544150  23.7686650
  24.5100840  73.9264620  18.1598100  24.6313660  73.8851100  19.1083920
  24.1249350  74.7888770  18.0044830  28.4729210  71.7032020  26.1761790
  28.4901950  72.1540670  27.0203640  28.2244790  70.8037660  26.3895230
  23.5222340  76.2365760  17.5581400  22.9539240  75.7884010  16.9317310
  24.2311340  76.5958540  17.0246550  31.8999960  69.1164200  32.0148170
  32.2245730  68.3853860  32.5406150  31.9356470  68.7977840  31.1129160
  18.5991520  80.1377780  31.4348130  18.2146310  79.4971450  32.0331090
  18.9103710  80.8413900  32.0042860  24.7488660  76.9854320  26.9156750
  25.1158790  76.5112890  27.6618090  24.5593720  77.8595890  27.2565090
  17.6129150  71.7298010  23.0450220  17.3276070  71.3653680  23.8828840
  17.5508010  70.9978470  22.4313360  22.5388030  76.0262960  29.2340960
  22.2345100  76.9054940  29.4591320  23.4934490  76.0862750  29.2698400
  21.0669820  80.2323950  19.8307810  20.2932080  79.6921570  19.6706530
  21.7964450  79.7130560  19.4925570  31.8257800  79.2289310  25.6234200
  32.5456920  79.7244600  25.2330310  31.6239620  78.5507200  24.9788070
  27.2867740  70.6227270  19.7663590  26.4732350  70.1240440  19.6908900
  27.0929690  71.4625520  19.3499940  27.2076600  79.2998370  31.5103200
  27.1413910  78.3794040  31.2560790  26.5781740  79.3973810  32.2247840
  30.0016130  74.9946920  18.0625750  30.8895750  75.3064150  17.8877090
  29.9721220  74.1219170  17.6706330  21.1107220  79.9004330  23.4686620
  21.6285890  79.0972590  23.4143510  20.6591240  79.8383470  24.3103450
  25.9976720  81.1670610  18.7413920  26.3392420  81.9112840  18.2457240
  25.1689430  81.4801730  19.1038750  18.5951760  76.8665700  30.3812320
  18.2366700  77.5319550  30.9685660  18.3006320  76.0349250  30.7524940
  21.7964880  77.3249940  33.2651870  21.4965020  77.4707120  32.3679690
  22.5676120  76.7655230  33.1725260  27.1393330  82.1218940  31.2607000
  27.1537870  81.1899900  31.0425910  26.4318430  82.2078700  31.8996770
  32.2730400  76.3058760  17.5305610  32.1894120  76.7372980  16.6802050
  32.9924590  76.7657110  17.9632430  33.3504540  78.7626280  30.6075580
  32.6252730  79.3555060  30.4104970  33.8780000  78.7549820  29.8088950
  33.3017650  83.1601020  20.2587740  32.6593810  82.5056640  20.5331460
  32.9148310  83.5656110  19.4828410  28.8804130  80.4886450  24.1059430
  29.2327950  79.8914580  23.4460800  27.9966460  80.1630680  24.2767680
  24.9667410  81.2484140  21.5129840  25.6538540  81.7953350  21.8937430
  24.1799830  81.7924870  21.5479450  17.1059810  76.8656960  17.0046920
  17.9754660  77.1481760  17.2882840  16.6150130  77.6792830  16.8895730
  24.2694620  78.2530170  21.1255200  24.7257400  79.0635420  21.3515390
  23.9182830  77.9353310  21.9573690  26.5727230  83.7636510  28.3547500
  27.2169450  83.9695890  29.0320920  26.9356670  83.0024910  27.9018350
  20.1706400  68.5967820  21.5977720  20.0421030  68.5885720  22.5462640
  19.3468420  68.9350910  21.2468730  27.8459310  81.7668860  27.0724950
  28.4881540  81.0662020  27.1857120  28.3708660  82.5467300  26.8921840
  31.6915030  82.0517480  16.7964090  31.4652610  81.3347920  17.3888730
  31.3011230  81.8029920  15.9585840  29.6196930  82.5663760  30.2761010
  29.9553170  83.1530450  30.9538930  28.6997270  82.4356470  30.5058800
  17.4731060  86.0784340  17.5708550  17.8328700  86.6773680  16.9165820
  17.3323400  86.6244230  18.3443580  17.1700330  70.3558940  31.0584420
  16.4558850  70.5555860  31.6637030  17.5895370  69.5798510  31.4299220
  31.2731280  79.9689420  18.4578250  30.9852980  80.4302110  19.2456130
  32.0683450  79.5087190  18.7262470  17.4572920  84.3439200  32.0450950
  17.5664040  83.4033940  31.9046340  16.8053480  84.6093950  31.3964680
  25.4485510  82.6155090  33.4449070  25.1282380  81.8964330  33.9894760
  24.7743870  83.2910160  33.5185130  23.4899680  83.4615540  18.3882220
  23.4809780  84.1945230  17.7726730  22.5698040  83.2147120  18.4809180
  19.0906320  78.6830430  19.1328980  18.4834270  79.4229330  19.1424280
  19.5655670  78.7729790  18.3067180  28.6639110  72.8481250  28.8085870
  29.0319930  72.0276460  29.1365440  27.8037310  72.9083140  29.2241520
  32.0301140  71.8038190  19.6173430  31.4014300  71.9083860  18.9031660
  31.5353060  72.0234970  20.4067310  26.4759280  83.5243780  17.0507410
  26.5771260  83.3207770  16.1209390  25.5761020  83.2702060  17.2555190
  23.9985170  74.0824140  21.0331310  23.2901320  74.5510480  21.4744920
  24.2829650  73.4246150  21.6676500  25.6241100  75.5020840  29.0323840
  26.1226350  75.9766660  29.6975690  25.7664050  74.5784360  29.2393870
  28.0300600  70.8074800  22.4727100  27.9068380  70.8260930  21.5236610
  28.9785160  70.8553740  22.5925500  25.1177390  86.0430100  21.7455080
  25.3718890  86.0051490  20.8234450  24.1689870  85.9163430  21.7383330
  22.2020190  72.3909220  18.4082020  23.0510720  72.8279370  18.3422210
  21.8351460  72.7029480  19.2354080  32.8307960  71.7188800  29.8752230
  32.3281560  72.4594200  30.2146040  33.6464620  72.1072800  29.5589020
  31.1229970  76.9621980  23.3213590  30.1820110  76.9772210  23.4961280
  31.4374040  76.1757940  23.7673890  21.1011610  78.6441580  16.8817550
  21.8674880  78.5322940  17.4442980  21.1786300  77.9479550  16.2294320
  19.7958370  76.0766650  17.5650440  19.8761960  75.1294160  17.6767840
  20.6878120  76.4073530  17.6711100  33.1255550  84.1330830  24.9967850
  33.2502970  84.9562000  25.4691660  33.9921110  83.9221560  24.6492000
  20.5973080  86.2262040  24.6684980  21.3335560  85.6777500  24.9393550
  20.9814000  87.0918050  24.5290970  17.4818560  82.2935610  20.5426490
  16.5558340  82.5356750  20.5331900  17.9474990  83.1209870  20.4211240
  19.6031360  85.4108110  33.8570560  20.4044090  85.7320160  34.2705960
  19.0883180  85.0503690  34.5790470  23.7075390  85.3992350  16.4910550
  24.5004000  85.6881180  16.0392340  23.1879740  84.9684520  15.8123030
  28.4395990  81.5187980  33.8045970  27.8334150  81.5419580  33.0641720
  28.1350100  80.7871020  34.3413220  29.8696360  85.2468270  32.4155380
  30.8218110  85.1626290  32.3655620  29.7224580  85.9109980  33.0889170
  32.7605560  84.6262480  17.9147290  32.4747070  84.2127620  17.1001470
  32.5625110  85.5550190  17.7947810  17.3229170  77.8981570  32.8006610
  17.8268190  77.3188850  33.3722840  16.5836590  78.1821800  33.3382980
  24.2252790  80.6195760  16.3552900  24.1203430  80.0048110  17.0814280
  24.0577010  80.0961650  15.5715910  24.3767110  79.3052560  32.3342130
  23.6112780  79.8737560  32.2496800  24.5583070  79.0128770  31.4410360
  27.4655520  79.6815790  16.9594890  26.9165620  80.1285090  17.6037630
  28.0874780  79.1765040  17.4832560  31.5190460  81.0357890  32.8917150
  32.2599930  81.3733650  32.3884610  30.7563140  81.2049950  32.3386920
  19.3552250  76.0411160  33.6956680  19.3957590  75.7425030  34.6041910
  20.2097750  76.4418770  33.5364200  23.1330640  78.6406710  18.8560190
  23.5547060  78.4746580  19.6991580  23.2581480  77.8306940  18.3615330
  21.2958060  74.6203260  31.6631170  20.7654520  74.1294210  31.0354510
  21.9646130  75.0487460  31.1289100  25.6458280  77.6644320  16.1037290
  26.1663940  76.9493340  15.7378440  26.2926680  78.3030190  16.4037800
  30.1936120  79.0872720  31.4272360  30.6077140  79.2417800  32.2762780
  29.2587120  79.2127940  31.5898140  30.6658290  76.4268880  33.4311510
  31.2479060  75.6721200  33.3431990  30.8420060  76.9576320  32.6542990
  21.7830360  71.5865630  31.7428460  21.6887230  70.9686380  31.0179330
  21.2027750  72.3131920  31.5158370  24.5491800  70.1438870  28.7755850
  24.1009100  70.1663130  27.9301400  23.9157000  69.7457890  29.3726150
  24.9551350  79.0393200  29.3968290  25.3739460  79.8825930  29.2244530
  24.0359980  79.1765240  29.1675070  27.2915250  76.7709380  30.7806130
  27.4111460  76.1750520  31.5200970  28.1509250  76.8079070  30.3607430
  29.6303150  77.3246570  29.3568640  29.1038370  77.8489190  28.7533780
  29.9734490  77.9573960  29.9878370  22.0289540  74.7139940  15.8018350
  21.8278600  73.8507300  16.1631690  21.8581590  74.6273300  14.8639950
  22.8058770  85.3446210  30.5126020  22.2679860  86.0692270  30.1934720
  23.0592730  84.8676550  29.7223360  24.0584020  73.3130730  32.0381950
  24.6483710  73.0046580  32.7259770  23.2404260  72.8410480  32.1941850
  28.8777450  72.9296540  32.2714970  28.1892970  72.2678080  32.2064960
  29.5983470  72.4834810  32.7163430  29.5077850  69.5248170  18.3305230
  29.7880140  68.6816070  18.6864650  28.7343580  69.7571280  18.8443980
  20.8272340  71.8140560  15.7896230  21.1298240  71.8207990  14.8815380
  21.5666930  71.4638420  16.2863890  25.6620980  86.5797420  30.7712670
  25.5879680  87.4832560  31.0785040  24.7599820  86.2609320  30.7434740
  24.0457270  70.7575180  16.7752430  23.6979270  70.0799170  16.1954880
  24.2470040  70.2964690  17.5895820  26.2106310  85.7455930  18.3939030
  27.1057100  86.0840900  18.4157790  26.2423940  85.0235340  17.7663310
  19.8502470  81.1182980  16.6226030  20.2877340  81.6612650  17.2783610
  20.3350200  80.2929930  16.6322370  17.0648270  83.9072010  24.0746290
  17.3951280  83.0393070  23.8424930  17.4939270  84.1130530  24.9051250
  21.6610190  82.2381020  21.7348260  21.3605730  82.1145990  22.6352170
  21.5547680  81.3789610  21.3263990  17.5538480  84.7742600  26.8127920
  17.1169470  84.9543400  27.6452070  18.1216160  85.5317220  26.6709640
  33.1900660  84.2759600  31.1005230  32.5902650  84.3352160  30.3569150
  33.3194560  83.3364580  31.2302080  34.4302110  82.0177420  16.4374940
  33.5995070  82.0854070  16.9082170  34.6073940  82.9081540  16.1341800
  33.8858570  78.7624900  18.9409140  34.6477480  79.3321550  19.0468830
  33.9012940  78.1952100  19.7117450  17.3862910  77.2862830  23.1716800
  16.7311750  77.0174470  22.5276500  18.2240860  77.1767310  22.7218780
  34.8918540  79.6175000  23.7851070  35.2627370  78.8342320  23.3787040
  35.5320470  80.3064100  23.6068370  31.8752300  81.0011580  29.1981390
  31.0612140  81.4308740  29.4607180  32.2826500  81.6129990  28.5850440
  33.9377740  79.0559270  16.0981660  34.2126580  79.9638150  15.9700880
  33.7488480  78.9921800  17.0343650  30.3353350  72.0804120  17.3935290
  30.7538230  71.8935100  16.5531950  30.0289410  71.2283170  17.7038220
  33.8343080  76.9928260  21.0911090  33.4586680  76.2256190  20.6592380
  33.1046200  77.3750960  21.5786020  18.4238840  77.6715400  27.7120140
  18.7911880  77.5842800  28.5916160  17.8549660  76.9081950  27.6127000
  33.2242700  76.1399780  30.7250610  32.9928790  75.9112530  29.8248560
  33.4847250  77.0599330  30.6795500  17.9754840  74.5824490  31.6178560
  17.0810890  74.5491250  31.9572270  18.5152390  74.7811280  32.3829810
  31.6630770  71.3656210  33.5030310  32.5400950  71.3739610  33.8864310
  31.6751610  70.6287050  32.8922660  16.6000990  74.4961760  19.1142130
  15.6965070  74.7591960  18.9393790  17.0841610  74.7672930  18.3342090
  33.1094040  75.2185750  24.3918330  33.6331520  74.7248400  23.7608500
  33.6953460  75.3536110  25.1365900  33.2883760  75.3025620  27.9137880
  32.3386470  75.2689160  28.0282870  33.4696770  76.2125730  27.6787650
  19.1428200  73.5527300  17.0236510  19.8519900  73.1310520  16.5383790
  18.4268140  73.6202530  16.3919860  18.7902360  69.6066630  16.0639160
  19.5130490  70.1475570  16.3820380  19.0626880  69.3330050  15.1880700
  32.5994010  74.4759100  20.3310740  33.0953130  74.2429970  21.1159620
  32.4010080  73.6370940  19.9148380  18.4794550  68.8572820  25.9661780
  19.1270740  68.3070200  25.5256940  18.8996390  69.1115970  26.7877590
  34.0281170  73.1120050  22.8648420  33.9180450  72.9576090  23.8030690
  34.7888760  72.5840990  22.6223830  32.3746890  69.0514180  29.3231420
  33.0119110  69.6648320  29.6890610  32.5221780  69.0874840  28.3780650
  34.9171440  70.9427970  16.1054560  35.8420750  70.8109150  15.8972850
  34.8947230  71.0220790  17.0591010  34.9909930  71.7138630  18.7311270
  34.1961430  71.6483750  19.2604180  35.1953210  72.6489270  18.7196620
  31.9328350  85.7530180  22.7249660  32.5287420  85.4314750  22.0484080
  32.1906500  85.2802000  23.5162930  18.2326550  69.0128490  28.7087100
  17.8841370  69.4692310  29.4745280  17.9014250  68.1185620  28.7909530
  19.8390920  82.1848090  32.8740290  19.7960550  81.8141000  33.7554750
  19.9701930  83.1225660  33.0142110  23.5396950  83.7407680  28.4750010
  23.2988310  84.0082240  27.5880530  24.4799590  83.9113410  28.5300870
  25.7451370  70.2040370  32.2306520  25.6840260  70.7962200  32.9801930
  26.6851750  70.0966330  32.0856780  28.3825930  69.8610430  31.8698810
  28.9966340  70.1789720  31.2079890  28.9275490  69.3759020  32.4894670
  34.8001110  85.7602060  29.2760650  34.3059390  86.1570930  28.5587780
  34.1914400  85.1351270  29.6697930  18.9047190  68.5404690  31.9837870
  19.4530180  68.3592740  31.2203980  18.9702500  67.7498800  32.5194180
  19.6778950  85.1310340  29.9938070  19.0839270  84.9995040  30.7328110
  19.6702790  84.2948480  29.5280170  29.1233970  68.4242570  28.1968100
  28.2493810  68.7577680  27.9941030  29.0144720  67.9515750  29.0219970
  30.0305950  70.6313440  29.5809820  29.7019310  69.8165200  29.2011550
  30.9788250  70.5883250  29.4575510  32.4840560  86.4025480  26.5547390
  32.0243530  87.1541290  26.1805410  31.8553020  85.6831950  26.4962190
  19.3091180  82.4968720  28.9446110  18.5825240  81.8774010  28.8772060
  19.3700330  82.8909330  28.0744190  22.9136280  84.7113720  25.7295520
  23.4301300  84.1001080  25.2043780  23.5633660  85.2142500  26.2206530
  25.6531780  85.6022210  26.5564500  25.9409590  85.3476510  25.6797510
  26.1655000  85.0499570  27.1470070  26.8708790  69.3412410  27.1361010
  26.0880580  69.8157910  27.4157770  26.5771720  68.4367240  27.0274190
  31.4229860  70.0435510  25.1810100  31.8637950  69.9880610  24.3331700
  31.1537450  70.9593520  25.2520280  33.2868430  69.6750750  23.1918920
  33.2256830  68.7311970  23.0449940  34.0660460  69.7830840  23.7372380
  17.5921180  85.8143110  22.1542870  17.4243220  85.1813790  22.8524760
  16.7255690  86.0202510  21.8037060  18.2149200  69.6459890  19.6574730
  18.9728560  69.7588770  19.0838760  17.7526370  70.4829090  19.6118160
  24.7563010  71.7599160  22.6477040  23.9437520  71.3856050  22.3072920
  25.2604650  71.0044240  22.9498230  29.2587990  68.4241610  23.8860110
  29.8617360  68.9961820  24.3608630  28.5180980  68.9881050  23.6634010
  32.4022590  68.8263170  19.1600390  32.5973220  69.7246620  19.4267820
  31.6152460  68.5950250  19.6533340  19.1983880  84.5076340  19.5993010
  18.6731500  84.8884370  18.8954970  19.1228460  85.1327110  20.3202720
  20.5874350  70.1723940  18.1976700  21.1167110  69.3853740  18.0684650
  21.2202670  70.8515130  18.4312230  22.7812190  69.9099080  21.2522090
  22.1514930  69.2086390  21.4192220  22.2417330  70.6703210  21.0355250
  25.7204140  86.5238310  33.9232700  26.6471450  86.2882580  33.9668660
  25.7054570  87.3510310  33.4418730  33.9549200  86.0663880  20.9206950
  34.1301390  85.3801620  20.2767870  33.2570770  86.5910930  20.5283620
  22.9067750  69.1883060  33.6874580  22.6252020  69.6916660  32.9235400
  23.2887450  68.3904810  33.3216710  21.7976850  86.4558720  18.4742260
  22.5295670  86.1718000  17.9266150  22.0570520  86.2172000  19.3641640
  20.9591640  82.5723450  18.4788590  20.3300520  83.0408550  19.0274420
  21.0739470  81.7272670  18.9134780  29.5083210  68.6036640  34.2655050
  29.3948660  68.9231250  35.1606570  30.3252950  69.0049150  33.9692330
  32.2881700  85.7508170  33.7473740  33.0807020  85.2557400  33.5399700
  32.5814850  86.4298310  34.3549350  28.4141360  76.6229110   4.6289790
  28.3335410  75.7083720   4.3581500  28.0005780  77.1196180   3.9229500
  26.5459400  78.4008130   6.5099060  25.7701500  77.9208570   6.7997630
  27.1972330  77.7213780   6.3355220  20.5625230  78.7127940   7.3874820
  19.7310110  78.4576650   7.7871330  21.1706210  78.7838710   8.1232740
  30.5666830  82.8068320   5.2898190  30.1048360  82.0355560   5.6185360
  31.3792380  82.8334390   5.7950640  20.5426490  82.7468030   7.5832840
  20.8454530  81.8565770   7.4043060  21.2870080  83.3038250   7.3555090
  16.9350190  76.2735480   7.0556910  17.5066300  75.5057680   7.0560550
  16.9351730  76.5724240   6.1463520  26.7930140  85.0926330   4.9102180
  26.1741580  85.5483830   4.3396620  27.6481920  85.2477790   4.5091880
  25.9868390  81.0765320   6.5169220  25.9176670  80.1355260   6.3558350
  26.7488250  81.1666730   7.0891790  18.1775060  71.6819840   8.8425840
  17.9977900  70.7845590   9.1228600  17.7755140  72.2291710   9.5172790
  27.0173560  73.8835700   6.7438150  27.3938380  73.0107580   6.6311820
  26.9193070  74.2194400   5.8528590  21.1478570  72.2561330   2.2055590
  21.2545320  73.1565060   2.5124350  20.2370930  72.2079300   1.9150240
  30.7997680  71.3786140   3.6766490  31.6207300  70.8882710   3.7191970
  30.8331760  71.9683800   4.4298330  18.7961730  74.1780340   7.4508180
  19.4771840  74.4418710   8.0695580  18.4809780  73.3381210   7.7846190
  22.9886300  75.2247700   6.5380770  23.4964520  75.7228670   7.1785790
  23.5199540  74.4482900   6.3620130  35.0897230  73.3952890  10.2410120
  34.3849400  73.7834600   9.7225230  35.3555150  74.0903180  10.8431050
  21.2722400  69.8646260  10.8044190  21.2740840  70.3818650   9.9990090
  20.4426710  69.3876440  10.7814120  27.6593490  79.9765570   2.3034090
  27.0410760  80.4415020   1.7396810  28.1716740  80.6693050   2.7203600
  22.5225250  79.5041440   8.9817690  22.1894630  80.1310360   9.6238760
  22.6991930  80.0303320   8.2019360  31.0359160  73.3186520   6.4494030
  30.3314730  73.6071410   7.0297140  31.3971320  74.1286630   6.0893590
  20.9537730  71.5756220   8.8114640  21.2954540  72.4198270   8.5168510
  20.0153540  71.7239960   8.9279980  21.7344350  81.4722240  10.7966870
  22.3518350  82.1473320  10.5151320  20.8737470  81.8810220  10.7054370
  32.6521940  82.9361650   8.7121510  31.9685460  83.6060760   8.7038180
  33.1916230  83.1342300   7.9466370  34.1046080  72.7641310   6.8403240
  33.1570990  72.7980290   6.9718670  34.4296070  73.5780260   7.2252600
  24.6365620  69.0638490   5.1359230  24.9440600  68.5085380   4.4194730
  23.7066320  69.1982950   4.9532220  30.1880680  84.7805780   7.4266690
  30.2007840  84.3768070   6.5588950  29.6355900  85.5553070   7.3228120
  31.4826100  81.5022000   2.5156860  31.3722430  80.5596330   2.6406280
  31.4794350  81.8637640   3.4019620  29.5866120  79.6835620   8.7549300
  30.0034910  79.4695730   7.9202760  30.3105940  79.9408410   9.3257920
  27.0246380  77.1287320   1.8719350  26.0975660  77.0624700   2.1007820
  27.1771200  78.0667450   1.7574590  33.5328220  78.0822840   8.8465540
  32.7046850  78.1515930   8.3715670  34.1278700  78.6677150   8.3781370
  31.0543670  78.6907620   2.3754600  30.4356090  78.3527170   1.7280900
  31.0368120  78.0467380   3.0833790  30.4970230  74.8692160   9.7920410
  30.0841410  75.6945870  10.0460400  29.7646180  74.2837200   9.5996770
  22.6303020  77.6552060   4.6539080  22.2260020  76.9429310   4.1584980
  22.7166140  77.3105300   5.5427120  23.0984720  81.3419620   6.8178290
  22.8013010  80.7365090   6.1386070  24.0484540  81.3796930   6.7067650
  21.3431640  74.4295270   8.4338120  21.8946230  74.5390610   7.6591370
  21.8575150  74.8032870   9.1493350  31.1870330  84.9151490  10.4801390
  30.7100890  85.7223680  10.2874000  30.5032120  84.2629820  10.6327600
  22.1903150  81.0801310  13.4686090  21.2931680  81.3041280  13.7159490
  22.2156020  81.2036250  12.5197490  21.0174370  77.9514630  12.0443460
  20.8782140  78.8237430  12.4130860  20.1355730  77.6087440  11.8991400
  27.3403750  82.8690500   3.3508590  27.7799660  83.6114830   2.9363980
  27.2790640  83.1117070   4.2747550  22.8154720  83.8936330  14.2528610
  22.7870150  84.2979280  13.3857040  22.6519690  82.9646690  14.0900210
  19.3307650  76.5497040   2.1545730  19.2105250  77.2759130   1.5427000
  19.0208540  75.7799950   1.6773640  34.7669540  84.6763430  15.5492780
  35.2429260  85.1546320  16.2281860  35.3876700  84.6080920  14.8238280
  16.9693020  79.7212180   7.9614370  17.0473440  79.8560950   7.0170090
  17.5834700  79.0128070   8.1542490  18.2140650  81.4212370   4.3720550
  17.8068730  81.5626960   3.5174150  19.1053660  81.1372530   4.1691760
  34.1702790  81.8676280  12.7092790  34.2965850  81.6288160  11.7909970
  34.2124170  81.0360820  13.1814870  28.0319530  85.5704280  11.2787600
  28.5464200  85.4812290  12.0810030  27.1888610  85.9163980  11.5715510
  22.4862310  85.6358150   2.4843220  22.3104790  84.7193690   2.2711020
  21.6318050  85.9945440   2.7241020  29.2749990  84.9909890   3.3418090
  29.7306940  84.2099270   3.6556710  29.6142510  85.7016710   3.8859270
  34.0226800  73.9208740  13.6742530  33.4071070  74.4288410  13.1457990
  33.7023220  73.0207070  13.6168470  17.0252540  80.7626350  10.5008830
  17.1883580  80.2931710   9.6828200  17.4904990  80.2549910  11.1657670
  21.7971310  69.8932110   5.5369400  21.3539460  70.6741650   5.2053920
  22.3556300  70.2162000   6.2440340  26.0841120  72.7600630  11.1404720
  25.6220490  72.9683650  11.9524660  25.6819230  71.9459980  10.8375390
  31.0845630  73.9809580  12.2701380  30.2339220  73.6815330  12.5910450
  30.9247420  74.2251590  11.3585200  28.1795340  75.4811330  14.3700170
  28.5048750  74.6475080  14.0302400  28.9675670  76.0039850  14.5178500
  23.8347210  70.4379440   7.3959000  24.1319540  71.3442270   7.3151020
  24.3832770  69.9498220   6.7818570  21.5885530  75.0165680   3.2650650
  21.3626450  74.8002850   4.1697270  20.8078060  75.4494140   2.9196620
  24.0284740  75.9151260  13.9310920  23.9328340  74.9745990  13.7811320
  24.8716720  76.1366330  13.5358990  27.4248160  73.6592590   3.8944580
  27.8177730  73.9764790   3.0813270  27.7865010  72.7804470   4.0089100
  19.1595280  72.3264930  12.0844700  18.7658670  73.1740140  12.2917480
  18.4713680  71.6891300  12.2753340  25.7340330  72.4099900  15.1541440
  25.0438650  72.2172100  15.7887530  26.4772630  72.6934540  15.6865740
  16.4612330  70.2493390   6.1174780  16.1725380  70.8196250   6.8299760
  17.2058090  69.7697840   6.4806010  28.0103300  76.2498340   7.9895360
  27.2784420  76.7585150   8.3385460  27.6127640  75.4328320   7.6884140
  24.4480690  72.9252540   6.3947850  24.4516750  72.4842490   5.5452390
  25.3431810  73.2469870   6.5019670  20.2983070  72.8079030   5.3542060
  19.9583120  73.2854260   6.1109110  19.5360390  72.3544150   4.9943160
  28.4729210  71.7032020   7.4018300  28.4901950  72.1540670   8.2460150
  28.2244790  70.8037660   7.6151740  31.8999960  69.1164200  13.2404680
  32.2245730  68.3853860  13.7662660  31.9356470  68.7977840  12.3385670
  18.5991520  80.1377780  12.6604640  18.2146310  79.4971450  13.2587600
  18.9103710  80.8413900  13.2299370  24.7488660  76.9854320   8.1413260
  25.1158790  76.5112890   8.8874600  24.5593720  77.8595890   8.4821600
  17.6129150  71.7298010   4.2706730  17.3276070  71.3653680   5.1085350
  17.5508010  70.9978470   3.6569870  22.5388030  76.0262960  10.4597470
  22.2345100  76.9054940  10.6847830  23.4934490  76.0862750  10.4954910
  31.8257800  79.2289310   6.8490710  32.5456920  79.7244600   6.4586820
  31.6239620  78.5507200   6.2044580  27.2076600  79.2998370  12.7359710
  27.1413910  78.3794040  12.4817300  26.5781740  79.3973810  13.4504350
  21.1107220  79.9004330   4.6943130  21.6285890  79.0972590   4.6400020
  20.6591240  79.8383470   5.5359960  18.5951760  76.8665700  11.6068830
  18.2366700  77.5319550  12.1942170  18.3006320  76.0349250  11.9781450
  21.7964880  77.3249940  14.4908380  21.4965020  77.4707120  13.5936200
  22.5676120  76.7655230  14.3981770  27.1393330  82.1218940  12.4863510
  27.1537870  81.1899900  12.2682420  26.4318430  82.2078700  13.1253280
  33.3504540  78.7626280  11.8332090  32.6252730  79.3555060  11.6361480
  33.8780000  78.7549820  11.0345460  28.8804130  80.4886450   5.3315940
  29.2327950  79.8914580   4.6717310  27.9966460  80.1630680   5.5024190
  24.9667410  81.2484140   2.7386350  25.6538540  81.7953350   3.1193940
  24.1799830  81.7924870   2.7735960  24.2694620  78.2530170   2.3511710
  24.7257400  79.0635420   2.5771900  23.9182830  77.9353310   3.1830200
  26.5727230  83.7636510   9.5804010  27.2169450  83.9695890  10.2577430
  26.9356670  83.0024910   9.1274860  20.1706400  68.5967820   2.8234230
  20.0421030  68.5885720   3.7719150  19.3468420  68.9350910   2.4725240
  27.8459310  81.7668860   8.2981460  28.4881540  81.0662020   8.4113630
  28.3708660  82.5467300   8.1178350  29.6196930  82.5663760  11.5017520
  29.9553170  83.1530450  12.1795440  28.6997270  82.4356470  11.7315310
  17.1700330  70.3558940  12.2840930  16.4558850  70.5555860  12.8893540
  17.5895370  69.5798510  12.6555730  17.4572920  84.3439200  13.2707460
  17.5664040  83.4033940  13.1302850  16.8053480  84.6093950  12.6221190
  25.4485510  82.6155090  14.6705580  25.1282380  81.8964330  15.2151270
  24.7743870  83.2910160  14.7441640  28.6639110  72.8481250  10.0342380
  29.0319930  72.0276460  10.3621950  27.8037310  72.9083140  10.4498030
  23.9985170  74.0824140   2.2587820  23.2901320  74.5510480   2.7001430
  24.2829650  73.4246150   2.8933010  25.6241100  75.5020840  10.2580350
  26.1226350  75.9766660  10.9232200  25.7664050  74.5784360  10.4650380
  28.0300600  70.8074800   3.6983610  27.9068380  70.8260930   2.7493120
  28.9785160  70.8553740   3.8182010  25.1177390  86.0430100   2.9711590
  25.3718890  86.0051490   2.0490960  24.1689870  85.9163430   2.9639840
  32.8307960  71.7188800  11.1008740  32.3281560  72.4594200  11.4402550
  33.6464620  72.1072800  10.7845530  31.1229970  76.9621980   4.5470100
  30.1820110  76.9772210   4.7217790  31.4374040  76.1757940   4.9930400
  33.1255550  84.1330830   6.2224360  33.2502970  84.9562000   6.6948170
  33.9921110  83.9221560   5.8748510  20.5973080  86.2262040   5.8941490
  21.3335560  85.6777500   6.1650060  20.9814000  87.0918050   5.7547480
  17.4818560  82.2935610   1.7683000  16.5558340  82.5356750   1.7588410
  17.9474990  83.1209870   1.6467750  19.6031360  85.4108110  15.0827070
  20.4044090  85.7320160  15.4962470  19.0883180  85.0503690  15.8046980
  28.4395990  81.5187980  15.0302480  27.8334150  81.5419580  14.2898230
  28.1350100  80.7871020  15.5669730  29.8696360  85.2468270  13.6411890
  30.8218110  85.1626290  13.5912130  29.7224580  85.9109980  14.3145680
  17.3229170  77.8981570  14.0263120  17.8268190  77.3188850  14.5979350
  16.5836590  78.1821800  14.5639490  24.3767110  79.3052560  13.5598640
  23.6112780  79.8737560  13.4753310  24.5583070  79.0128770  12.6666870
  31.5190460  81.0357890  14.1173660  32.2599930  81.3733650  13.6141120
  30.7563140  81.2049950  13.5643430  19.3552250  76.0411160  14.9213190
  19.3957590  75.7425030  15.8298420  20.2097750  76.4418770  14.7620710
  21.2958060  74.6203260  12.8887680  20.7654520  74.1294210  12.2611020
  21.9646130  75.0487460  12.3545610  30.1936120  79.0872720  12.6528870
  30.6077140  79.2417800  13.5019290  29.2587120  79.2127940  12.8154650
  30.6658290  76.4268880  14.6568020  31.2479060  75.6721200  14.5688500
  30.8420060  76.9576320  13.8799500  21.7830360  71.5865630  12.9684970
  21.6887230  70.9686380  12.2435840  21.2027750  72.3131920  12.7414880
  24.5491800  70.1438870  10.0012360  24.1009100  70.1663130   9.1557910
  23.9157000  69.7457890  10.5982660  24.9551350  79.0393200  10.6224800
  25.3739460  79.8825930  10.4501040  24.0359980  79.1765240  10.3931580
  27.2915250  76.7709380  12.0062640  27.4111460  76.1750520  12.7457480
  28.1509250  76.8079070  11.5863940  29.6303150  77.3246570  10.5825150
  29.1038370  77.8489190   9.9790290  29.9734490  77.9573960  11.2134880
  22.8058770  85.3446210  11.7382530  22.2679860  86.0692270  11.4191230
  23.0592730  84.8676550  10.9479870  24.0584020  73.3130730  13.2638460
  24.6483710  73.0046580  13.9516280  23.2404260  72.8410480  13.4198360
  28.8777450  72.9296540  13.4971480  28.1892970  72.2678080  13.4321470
  29.5983470  72.4834810  13.9419940  25.6620980  86.5797420  11.9969180
  25.5879680  87.4832560  12.3041550  24.7599820  86.2609320  11.9691250
  17.0648270  83.9072010   5.3002800  17.3951280  83.0393070   5.0681440
  17.4939270  84.1130530   6.1307760  21.6610190  82.2381020   2.9604770
  21.3605730  82.1145990   3.8608680  21.5547680  81.3789610   2.5520500
  17.5538480  84.7742600   8.0384430  17.1169470  84.9543400   8.8708580
  18.1216160  85.5317220   7.8966150  33.1900660  84.2759600  12.3261740
  32.5902650  84.3352160  11.5825660  33.3194560  83.3364580  12.4558590
  17.3862910  77.2862830   4.3973310  16.7311750  77.0174470   3.7533010
  18.2240860  77.1767310   3.9475290  34.8918540  79.6175000   5.0107580
  35.2627370  78.8342320   4.6043550  35.5320470  80.3064100   4.8324880
  31.8752300  81.0011580  10.4237900  31.0612140  81.4308740  10.6863690
  32.2826500  81.6129990   9.8106950  33.8343080  76.9928260   2.3167600
  33.4586680  76.2256190   1.8848890  33.1046200  77.3750960   2.8042530
  18.4238840  77.6715400   8.9376650  18.7911880  77.5842800   9.8172670
  17.8549660  76.9081950   8.8383510  33.2242700  76.1399780  11.9507120
  32.9928790  75.9112530  11.0505070  33.4847250  77.0599330  11.9052010
  17.9754840  74.5824490  12.8435070  17.0810890  74.5491250  13.1828780
  18.5152390  74.7811280  13.6086320  31.6630770  71.3656210  14.7286820
  32.5400950  71.3739610  15.1120820  31.6751610  70.6287050  14.1179170
  33.1094040  75.2185750   5.6174840  33.6331520  74.7248400   4.9865010
  33.6953460  75.3536110   6.3622410  33.2883760  75.3025620   9.1394390
  32.3386470  75.2689160   9.2539380  33.4696770  76.2125730   8.9044160
  18.4794550  68.8572820   7.1918290  19.1270740  68.3070200   6.7513450
  18.8996390  69.1115970   8.0134100  34.0281170  73.1120050   4.0904930
  33.9180450  72.9576090   5.0287200  34.7888760  72.5840990   3.8480340
  32.3746890  69.0514180  10.5487930  33.0119110  69.6648320  10.9147120
  32.5221780  69.0874840   9.6037160  31.9328350  85.7530180   3.9506170
  32.5287420  85.4314750   3.2740590  32.1906500  85.2802000   4.7419440
  18.2326550  69.0128490   9.9343610  17.8841370  69.4692310  10.7001790
  17.9014250  68.1185620  10.0166040  19.8390920  82.1848090  14.0996800
  19.7960550  81.8141000  14.9811260  19.9701930  83.1225660  14.2398620
  23.5396950  83.7407680   9.7006520  23.2988310  84.0082240   8.8137040
  24.4799590  83.9113410   9.7557380  25.7451370  70.2040370  13.4563030
  25.6840260  70.7962200  14.2058440  26.6851750  70.0966330  13.3113290
  28.3825930  69.8610430  13.0955320  28.9966340  70.1789720  12.4336400
  28.9275490  69.3759020  13.7151180  34.8001110  85.7602060  10.5017160
  34.3059390  86.1570930   9.7844290  34.1914400  85.1351270  10.8954440
  18.9047190  68.5404690  13.2094380  19.4530180  68.3592740  12.4460490
  18.9702500  67.7498800  13.7450690  19.6778950  85.1310340  11.2194580
  19.0839270  84.9995040  11.9584620  19.6702790  84.2948480  10.7536680
  29.1233970  68.4242570   9.4224610  28.2493810  68.7577680   9.2197540
  29.0144720  67.9515750  10.2476480  30.0305950  70.6313440  10.8066330
  29.7019310  69.8165200  10.4268060  30.9788250  70.5883250  10.6832020
  32.4840560  86.4025480   7.7803900  32.0243530  87.1541290   7.4061920
  31.8553020  85.6831950   7.7218700  19.3091180  82.4968720  10.1702620
  18.5825240  81.8774010  10.1028570  19.3700330  82.8909330   9.3000700
  22.9136280  84.7113720   6.9552030  23.4301300  84.1001080   6.4300290
  23.5633660  85.2142500   7.4463040  25.6531780  85.6022210   7.7821010
  25.9409590  85.3476510   6.9054020  26.1655000  85.0499570   8.3726580
  26.8708790  69.3412410   8.3617520  26.0880580  69.8157910   8.6414280
  26.5771720  68.4367240   8.2530700  31.4229860  70.0435510   6.4066610
  31.8637950  69.9880610   5.5588210  31.1537450  70.9593520   6.4776790
  33.2868430  69.6750750   4.4175430  33.2256830  68.7311970   4.2706450
  34.0660460  69.7830840   4.9628890  17.5921180  85.8143110   3.3799380
  17.4243220  85.1813790   4.0781270  16.7255690  86.0202510   3.0293570
  24.7563010  71.7599160   3.8733550  23.9437520  71.3856050   3.5329430
  25.2604650  71.0044240   4.1754740  29.2587990  68.4241610   5.1116620
  29.8617360  68.9961820   5.5865140  28.5180980  68.9881050   4.8890520
  22.7812190  69.9099080   2.4778600  22.1514930  69.2086390   2.6448730
  22.2417330  70.6703210   2.2611760  25.7204140  86.5238310  15.1489210
  26.6471450  86.2882580  15.1925170  25.7054570  87.3510310  14.6675240
  33.9549200  86.0663880   2.1463460  34.1301390  85.3801620   1.5024380
  33.2570770  86.5910930   1.7540130  22.9067750  69.1883060  14.9131090
  22.6252020  69.6916660  14.1491910  23.2887450  68.3904810  14.5473220
  29.5083210  68.6036640  15.4911560  29.3948660  68.9231250  16.3863080
  30.3252950  69.0049150  15.1948840  32.2881700  85.7508170  14.9730250
  33.0807020  85.2557400  14.7656210  32.5814850  86.4298310  15.5805860
  28.4141360  57.8485620  98.5007240  28.3335410  56.9340230  98.2298950
  28.0005780  58.3452690  97.7946950  26.5459400  59.6264640 100.3816510
  25.7701500  59.1465080 100.6715080  27.1972330  58.9470290 100.2072670
  20.5625230  59.9384450 101.2592270  19.7310110  59.6833160 101.6588780
  21.1706210  60.0095220 101.9950190  30.5666830  64.0324830  99.1615640
  30.1048360  63.2612070  99.4902810  31.3792380  64.0590900  99.6668090
  20.5426490  63.9724540 101.4550290  20.8454530  63.0822280 101.2760510
  21.2870080  64.5294760 101.2272540  18.9717180  54.8986340  95.0434660
  18.0833880  55.2402310  94.9414540  19.2558370  54.6986660  94.1515490
  16.9350190  57.4991990 100.9274360  17.5066300  56.7314190 100.9278000
  16.9351730  57.7980750 100.0180970  26.7930140  66.3182840  98.7819630
  26.1741580  66.7740340  98.2114070  27.6481920  66.4734300  98.3809330
  25.9868390  62.3021830 100.3886670  25.9176670  61.3611770 100.2275800
  26.7488250  62.3923240 100.9609240  18.1775060  52.9076350 102.7143290
  17.9977900  52.0102100 102.9946050  17.7755140  53.4548220 103.3890240
  27.0173560  55.1092210 100.6155600  27.3938380  54.2364090 100.5029270
  26.9193070  55.4450910  99.7246040  21.1478570  53.4817840  96.0773040
  21.2545320  54.3821570  96.3841800  20.2370930  53.4335810  95.7867690
  30.7997680  52.6042650  97.5483940  31.6207300  52.1139220  97.5909420
  30.8331760  53.1940310  98.3015780  18.7961730  55.4036850 101.3225630
  19.4771840  55.6675220 101.9413030  18.4809780  54.5637720 101.6563640
  22.9886300  56.4504210 100.4098220  23.4964520  56.9485180 101.0503240
  23.5199540  55.6739410 100.2337580  35.0897230  54.6209400 104.1127570
  34.3849400  55.0091110 103.5942680  35.3555150  55.3159690 104.7148500
  21.2722400  51.0902770 104.6761640  21.2740840  51.6075160 103.8707540
  20.4426710  50.6132950 104.6531570  27.6593490  61.2022080  96.1751540
  27.0410760  61.6671530  95.6114260  28.1716740  61.8949560  96.5921050
  22.5225250  60.7297950 102.8535140  22.1894630  61.3566870 103.4956210
  22.6991930  61.2559830 102.0736810  31.0359160  54.5443030 100.3211480
  30.3314730  54.8327920 100.9014590  31.3971320  55.3543140  99.9611040
  20.9537730  52.8012730 102.6832090  21.2954540  53.6454780 102.3885960
  20.0153540  52.9496470 102.7997430  21.7344350  62.6978750 104.6684320
  22.3518350  63.3729830 104.3868770  20.8737470  63.1066730 104.5771820
  17.0276690  61.8878610  93.5491170  16.6504670  62.3765710  92.8176070
  17.2849760  62.5603890  94.1797700  32.6521940  64.1618160 102.5838960
  31.9685460  64.8317270 102.5755630  33.1916230  64.3598810 101.8183820
  34.1046080  53.9897820 100.7120690  33.1570990  54.0236800 100.8436120
  34.4296070  54.8036770 101.0970050  24.6365620  50.2895000  99.0076680
  24.9440600  49.7341890  98.2912180  23.7066320  50.4239460  98.8249670
  30.1880680  66.0062290 101.2984140  30.2007840  65.6024580 100.4306400
  29.6355900  66.7809580 101.1945570  31.4826100  62.7278510  96.3874310
  31.3722430  61.7852840  96.5123730  31.4794350  63.0894150  97.2737070
  29.5866120  60.9092130 102.6266750  30.0034910  60.6952240 101.7920210
  30.3105940  61.1664920 103.1975370  27.0246380  58.3543830  95.7436800
  26.0975660  58.2881210  95.9725270  27.1771200  59.2923960  95.6292040
  27.0115460  54.6260830  92.7403960  26.0719130  54.7874790  92.8256420
  27.3298720  55.3446510  92.1939950  33.5328220  59.3079350 102.7182990
  32.7046850  59.3772440 102.2433120  34.1278700  59.8933660 102.2498820
  31.0543670  59.9164130  96.2472050  30.4356090  59.5783680  95.5998350
  31.0368120  59.2723890  96.9551240  30.4970230  56.0948670 103.6637860
  30.0841410  56.9202380 103.9177850  29.7646180  55.5093710 103.4714220
  22.6303020  58.8808570  98.5256530  22.2260020  58.1685820  98.0302430
  22.7166140  58.5361810  99.4144570  23.0984720  62.5676130 100.6895740
  22.8013010  61.9621600 100.0103520  24.0484540  62.6053440 100.5785100
  21.3431640  55.6551780 102.3055570  21.8946230  55.7647120 101.5308820
  21.8575150  56.0289380 103.0210800  31.1870330  66.1408000 104.3518840
  30.7100890  66.9480190 104.1591450  30.5032120  65.4886330 104.5045050
  29.2308370  59.1550940  93.2544800  29.6701650  58.3173370  93.1082620
  29.9436790  59.7880340  93.3408940  27.3403750  64.0947010  97.2226040
  27.7799660  64.8371340  96.8081430  27.2790640  64.3373580  98.1465000
  32.8125510  50.4093750  91.5685840  32.4998170  50.5020580  92.4684910
  33.5737980  50.9874780  91.5183270  19.3307650  57.7753550  96.0263180
  19.2105250  58.5015640  95.4144450  19.0208540  57.0056460  95.5491090
  16.9693020  60.9468690 101.8331820  17.0473440  61.0817460 100.8887540
  17.5834700  60.2384580 102.0259940  18.2140650  62.6468880  98.2438000
  17.8068730  62.7883470  97.3891600  19.1053660  62.3629040  98.0409210
  30.0073930  67.0816130  94.5789050  29.8475070  66.7919070  95.4770880
  29.8420640  66.3056260  94.0434280  22.4862310  66.8614660  96.3560670
  22.3104790  65.9450200  96.1428470  21.6318050  67.2201950  96.5958470
  29.7100060  64.5903690  93.1387050  29.0165220  64.5880980  92.4789330
  30.4522920  64.1663010  92.7081220  29.2749990  66.2166400  97.2135540
  29.7306940  65.4355780  97.5274160  29.6142510  66.9273220  97.7576720
  21.7971310  51.1188620  99.4086850  21.3539460  51.8998160  99.0771370
  22.3556300  51.4418510 100.1157790  24.9130130  50.7399320  94.2892680
  24.2884310  50.7359190  95.0145990  24.8260250  49.8730280  93.8928650
  23.8347210  51.6635950 101.2676450  24.1319540  52.5698780 101.1868470
  24.3832770  51.1754730 100.6536020  21.5885530  56.2422190  97.1368100
  21.3626450  56.0259360  98.0414720  20.8078060  56.6750650  96.7914070
  28.8183290  56.2485560  95.7358750  28.2192180  56.9721360  95.5522370
  29.3662900  56.1862340  94.9535200  27.4248160  54.8849100  97.7662030
  27.8177730  55.2021300  96.9530720  27.7865010  54.0060980  97.8806550
  16.4612330  51.4749900  99.9892230  16.1725380  52.0452760 100.7017210
  17.2058090  50.9954350 100.3523460  16.6482560  55.4170020  91.1994950
  16.5657230  56.3600780  91.3409940  16.2965620  55.2744930  90.3207300
  28.0103300  57.4754850 101.8612810  27.2784420  57.9841660 102.2102910
  27.6127640  56.6584830 101.5601590  24.4480690  54.1509050 100.2665300
  24.4516750  53.7099000  99.4169840  25.3431810  54.4726380 100.3737120
  20.2983070  54.0335540  99.2259510  19.9583120  54.5110770  99.9826560
  19.5360390  53.5800660  98.8660610  24.5100840  55.1521130  93.2572060
  24.6313660  55.1107610  94.2057880  24.1249350  56.0145280  93.1018790
  28.4729210  52.9288530 101.2735750  28.4901950  53.3797180 102.1177600
  28.2244790  52.0294170 101.4869190  23.5222340  57.4622270  92.6555360
  22.9539240  57.0140520  92.0291270  24.2311340  57.8215050  92.1220510
  24.7488660  58.2110830 102.0130710  25.1158790  57.7369400 102.7592050
  24.5593720  59.0852400 102.3539050  17.6129150  52.9554520  98.1424180
  17.3276070  52.5910190  98.9802800  17.5508010  52.2234980  97.5287320
  22.5388030  57.2519470 104.3314920  22.2345100  58.1311450 104.5565280
  23.4934490  57.3119260 104.3672360  21.0669820  61.4580460  94.9281770
  20.2932080  60.9178080  94.7680490  21.7964450  60.9387070  94.5899530
  31.8257800  60.4545820 100.7208160  32.5456920  60.9501110 100.3304270
  31.6239620  59.7763710 100.0762030  27.2867740  51.8483780  94.8637550
  26.4732350  51.3496950  94.7882860  27.0929690  52.6882030  94.4473900
  30.0016130  56.2203430  93.1599710  30.8895750  56.5320660  92.9851050
  29.9721220  55.3475680  92.7680290  21.1107220  61.1260840  98.5660580
  21.6285890  60.3229100  98.5117470  20.6591240  61.0639980  99.4077410
  25.9976720  62.3927120  93.8387880  26.3392420  63.1369350  93.3431200
  25.1689430  62.7058240  94.2012710  32.2730400  57.5315270  92.6279570
  32.1894120  57.9629490  91.7776010  32.9924590  57.9913620  93.0606390
  33.3017650  64.3857530  95.3561700  32.6593810  63.7313150  95.6305420
  32.9148310  64.7912620  94.5802370  28.8804130  61.7142960  99.2033390
  29.2327950  61.1171090  98.5434760  27.9966460  61.3887190  99.3741640
  24.9667410  62.4740650  96.6103800  25.6538540  63.0209860  96.9911390
  24.1799830  63.0181380  96.6453410  17.1059810  58.0913470  92.1020880
  17.9754660  58.3738270  92.3856800  16.6150130  58.9049340  91.9869690
  24.2694620  59.4786680  96.2229160  24.7257400  60.2891930  96.4489350
  23.9182830  59.1609820  97.0547650  26.5727230  64.9893020 103.4521460
  27.2169450  65.1952400 104.1294880  26.9356670  64.2281420 102.9992310
  20.1706400  49.8224330  96.6951680  20.0421030  49.8142230  97.6436600
  19.3468420  50.1607420  96.3442690  27.8459310  62.9925370 102.1698910
  28.4881540  62.2918530 102.2831080  28.3708660  63.7723810 101.9895800
  31.6915030  63.2773990  91.8938050  31.4652610  62.5604430  92.4862690
  31.3011230  63.0286430  91.0559800  17.4731060  67.3040850  92.6682510
  17.8328700  67.9030190  92.0139780  17.3323400  67.8500740  93.4417540
  31.2731280  61.1945930  93.5552210  30.9852980  61.6558620  94.3430090
  32.0683450  60.7343700  93.8236430  23.4899680  64.6872050  93.4856180
  23.4809780  65.4201740  92.8700690  22.5698040  64.4403630  93.5783140
  19.0906320  59.9086940  94.2302940  18.4834270  60.6485840  94.2398240
  19.5655670  59.9986300  93.4041140  28.6639110  54.0737760 103.9059830
  29.0319930  53.2532970 104.2339400  27.8037310  54.1339650 104.3215480
  32.0301140  53.0294700  94.7147390  31.4014300  53.1340370  94.0005620
  31.5353060  53.2491480  95.5041270  26.4759280  64.7500290  92.1481370
  26.5771260  64.5464280  91.2183350  25.5761020  64.4958570  92.3529150
  23.9985170  55.3080650  96.1305270  23.2901320  55.7766990  96.5718880
  24.2829650  54.6502660  96.7650460  25.6241100  56.7277350 104.1297800
  26.1226350  57.2023170 104.7949650  25.7664050  55.8040870 104.3367830
  28.0300600  52.0331310  97.5701060  27.9068380  52.0517440  96.6210570
  28.9785160  52.0810250  97.6899460  25.1177390  67.2686610  96.8429040
  25.3718890  67.2308000  95.9208410  24.1689870  67.1419940  96.8357290
  22.2020190  53.6165730  93.5055980  23.0510720  54.0535880  93.4396170
  21.8351460  53.9285990  94.3328040  31.1229970  58.1878490  98.4187550
  30.1820110  58.2028720  98.5935240  31.4374040  57.4014450  98.8647850
  21.1011610  59.8698090  91.9791510  21.8674880  59.7579450  92.5416940
  21.1786300  59.1736060  91.3268280  19.7958370  57.3023160  92.6624400
  19.8761960  56.3550670  92.7741800  20.6878120  57.6330040  92.7685060
  33.1255550  65.3587340 100.0941810  33.2502970  66.1818510 100.5665620
  33.9921110  65.1478070  99.7465960  20.5973080  67.4518550  99.7658940
  21.3335560  66.9034010 100.0367510  20.9814000  68.3174560  99.6264930
  17.4818560  63.5192120  95.6400450  16.5558340  63.7613260  95.6305860
  17.9474990  64.3466380  95.5185200  23.7075390  66.6248860  91.5884510
  24.5004000  66.9137690  91.1366300  23.1879740  66.1941030  90.9096990
  32.7605560  65.8518990  93.0121250  32.4747070  65.4384130  92.1975430
  32.5625110  66.7806700  92.8921770  24.2252790  61.8452270  91.4526860
  24.1203430  61.2304620  92.1788240  24.0577010  61.3218160  90.6689870
  27.4655520  60.9072300  92.0568850  26.9165620  61.3541600  92.7011590
  28.0874780  60.4021550  92.5806520  23.1330640  59.8663220  93.9534150
  23.5547060  59.7003090  94.7965540  23.2581480  59.0563450  93.4589290
  25.6458280  58.8900830  91.2011250  26.1663940  58.1749850  90.8352400
  26.2926680  59.5286700  91.5011760  24.5491800  51.3695380 103.8729810
  24.1009100  51.3919640 103.0275360  23.9157000  50.9714400 104.4700110
  24.9551350  60.2649710 104.4942250  25.3739460  61.1082440 104.3218490
  24.0359980  60.4021750 104.2649030  22.0289540  55.9396450  90.8992310
  21.8278600  55.0763810  91.2605650  21.8581590  55.8529810  89.9613910
  29.5077850  50.7504680  93.4279190  29.7880140  49.9072580  93.7838610
  28.7343580  50.9827790  93.9417940  20.8272340  53.0397070  90.8870190
  21.1298240  53.0464500  89.9789340  21.5666930  52.6894930  91.3837850
  24.0457270  51.9831690  91.8726390  23.6979270  51.3055680  91.2928840
  24.2470040  51.5221200  92.6869780  26.2106310  66.9712440  93.4912990
  27.1057100  67.3097410  93.5131750  26.2423940  66.2491850  92.8637270
  19.8502470  62.3439490  91.7199990  20.2877340  62.8869160  92.3757570
  20.3350200  61.5186440  91.7296330  17.0648270  65.1328520  99.1720250
  17.3951280  64.2649580  98.9398890  17.4939270  65.3387040 100.0025210
  21.6610190  63.4637530  96.8322220  21.3605730  63.3402500  97.7326130
  21.5547680  62.6046120  96.4237950  17.5538480  65.9999110 101.9101880
  17.1169470  66.1799910 102.7426030  18.1216160  66.7573730 101.7683600
  34.4302110  63.2433930  91.5348900  33.5995070  63.3110580  92.0056130
  34.6073940  64.1338050  91.2315760  33.8858570  59.9881410  94.0383100
  34.6477480  60.5578060  94.1442790  33.9012940  59.4208610  94.8091410
  17.3862910  58.5119340  98.2690760  16.7311750  58.2430980  97.6250460
  18.2240860  58.4023820  97.8192740  34.8918540  60.8431510  98.8825030
  35.2627370  60.0598830  98.4761000  35.5320470  61.5320610  98.7042330
  31.8752300  62.2268090 104.2955350  31.0612140  62.6565250 104.5581140
  32.2826500  62.8386500 103.6824400  33.9377740  60.2815780  91.1955620
  34.2126580  61.1894660  91.0674840  33.7488480  60.2178310  92.1317610
  30.3353350  53.3060630  92.4909250  30.7538230  53.1191610  91.6505910
  30.0289410  52.4539680  92.8012180  33.8343080  58.2184770  96.1885050
  33.4586680  57.4512700  95.7566340  33.1046200  58.6007470  96.6759980
  18.4238840  58.8971910 102.8094100  18.7911880  58.8099310 103.6890120
  17.8549660  58.1338460 102.7100960  16.6000990  55.7218270  94.2116090
  15.6965070  55.9848470  94.0367750  17.0841610  55.9929440  93.4316050
  33.1094040  56.4442260  99.4892290  33.6331520  55.9504910  98.8582460
  33.6953460  56.5792620 100.2339860  33.2883760  56.5282130 103.0111840
  32.3386470  56.4945670 103.1256830  33.4696770  57.4382240 102.7761610
  19.1428200  54.7783810  92.1210470  19.8519900  54.3567030  91.6357750
  18.4268140  54.8459040  91.4893820  18.7902360  50.8323140  91.1613120
  19.5130490  51.3732080  91.4794340  19.0626880  50.5586560  90.2854660
  32.5994010  55.7015610  95.4284700  33.0953130  55.4686480  96.2133580
  32.4010080  54.8627450  95.0122340  18.4794550  50.0829330 101.0635740
  19.1270740  49.5326710 100.6230900  18.8996390  50.3372480 101.8851550
  34.0281170  54.3376560  97.9622380  33.9180450  54.1832600  98.9004650
  34.7888760  53.8097500  97.7197790  32.3746890  50.2770690 104.4205380
  33.0119110  50.8904830 104.7864570  32.5221780  50.3131350 103.4754610
  34.9171440  52.1684480  91.2028520  35.8420750  52.0365660  90.9946810
  34.8947230  52.2477300  92.1564970  34.9909930  52.9395140  93.8285230
  34.1961430  52.8740260  94.3578140  35.1953210  53.8745780  93.8170580
  31.9328350  66.9786690  97.8223620  32.5287420  66.6571260  97.1458040
  32.1906500  66.5058510  98.6136890  18.2326550  50.2385000 103.8061060
  17.8841370  50.6948820 104.5719240  17.9014250  49.3442130 103.8883490
  23.5396950  64.9664190 103.5723970  23.2988310  65.2338750 102.6854490
  24.4799590  65.1369920 103.6274830  34.8001110  66.9858570 104.3734610
  34.3059390  67.3827440 103.6561740  34.1914400  66.3607780 104.7671890
  29.1233970  49.6499080 103.2942060  28.2493810  49.9834190 103.0914990
  29.0144720  49.1772260 104.1193930  30.0305950  51.8569950 104.6783780
  29.7019310  51.0421710 104.2985510  30.9788250  51.8139760 104.5549470
  32.4840560  67.6281990 101.6521350  32.0243530  68.3797800 101.2779370
  31.8553020  66.9088460 101.5936150  19.3091180  63.7225230 104.0420070
  18.5825240  63.1030520 103.9746020  19.3700330  64.1165840 103.1718150
  22.9136280  65.9370230 100.8269480  23.4301300  65.3257590 100.3017740
  23.5633660  66.4399010 101.3180490  25.6531780  66.8278720 101.6538460
  25.9409590  66.5733020 100.7771470  26.1655000  66.2756080 102.2444030
  26.8708790  50.5668920 102.2334970  26.0880580  51.0414420 102.5131730
  26.5771720  49.6623750 102.1248150  31.4229860  51.2692020 100.2784060
  31.8637950  51.2137120  99.4305660  31.1537450  52.1850030 100.3494240
  33.2868430  50.9007260  98.2892880  33.2256830  49.9568480  98.1423900
  34.0660460  51.0087350  98.8346340  17.5921180  67.0399620  97.2516830
  17.4243220  66.4070300  97.9498720  16.7255690  67.2459020  96.9011020
  18.2149200  50.8716400  94.7548690  18.9728560  50.9845280  94.1812720
  17.7526370  51.7085600  94.7092120  24.7563010  52.9855670  97.7451000
  23.9437520  52.6112560  97.4046880  25.2604650  52.2300750  98.0472190
  29.2587990  49.6498120  98.9834070  29.8617360  50.2218330  99.4582590
  28.5180980  50.2137560  98.7607970  32.4022590  50.0519680  94.2574350
  32.5973220  50.9503130  94.5241780  31.6152460  49.8206760  94.7507300
  19.1983880  65.7332850  94.6966970  18.6731500  66.1140880  93.9928930
  19.1228460  66.3583620  95.4176680  20.5874350  51.3980450  93.2950660
  21.1167110  50.6110250  93.1658610  21.2202670  52.0771640  93.5286190
  22.7812190  51.1355590  96.3496050  22.1514930  50.4342900  96.5166180
  22.2417330  51.8959720  96.1329210  33.9549200  67.2920390  96.0180910
  34.1301390  66.6058130  95.3741830  33.2570770  67.8167440  95.6257580
  21.7976850  67.6815230  93.5716220  22.5295670  67.3974510  93.0240110
  22.0570520  67.4428510  94.4615600  20.9591640  63.7979960  93.5762550
  20.3300520  64.2665060  94.1248380  21.0739470  62.9529180  94.0108740
  28.4141360  57.8485620  79.7263750  28.3335410  56.9340230  79.4555460
  28.0005780  58.3452690  79.0203460  26.5459400  59.6264640  81.6073020
  25.7701500  59.1465080  81.8971590  27.1972330  58.9470290  81.4329180
  20.5625230  59.9384450  82.4848780  19.7310110  59.6833160  82.8845290
  21.1706210  60.0095220  83.2206700  30.5666830  64.0324830  80.3872150
  30.1048360  63.2612070  80.7159320  31.3792380  64.0590900  80.8924600
  20.5426490  63.9724540  82.6806800  20.8454530  63.0822280  82.5017020
  21.2870080  64.5294760  82.4529050  18.9717180  54.8986340  76.2691170
  18.0833880  55.2402310  76.1671050  19.2558370  54.6986660  75.3772000
  16.9350190  57.4991990  82.1530870  17.5066300  56.7314190  82.1534510
  16.9351730  57.7980750  81.2437480  26.7930140  66.3182840  80.0076140
  26.1741580  66.7740340  79.4370580  27.6481920  66.4734300  79.6065840
  25.9868390  62.3021830  81.6143180  25.9176670  61.3611770  81.4532310
  26.7488250  62.3923240  82.1865750  18.1775060  52.9076350  83.9399800
  17.9977900  52.0102100  84.2202560  17.7755140  53.4548220  84.6146750
  27.0173560  55.1092210  81.8412110  27.3938380  54.2364090  81.7285780
  26.9193070  55.4450910  80.9502550  21.1478570  53.4817840  77.3029550
  21.2545320  54.3821570  77.6098310  20.2370930  53.4335810  77.0124200
  18.7961730  55.4036850  82.5482140  19.4771840  55.6675220  83.1669540
  18.4809780  54.5637720  82.8820150  22.9886300  56.4504210  81.6354730
  23.4964520  56.9485180  82.2759750  23.5199540  55.6739410  81.4594090
  35.0897230  54.6209400  85.3384080  34.3849400  55.0091110  84.8199190
  35.3555150  55.3159690  85.9405010  21.2722400  51.0902770  85.9018150
  21.2740840  51.6075160  85.0964050  20.4426710  50.6132950  85.8788080
  27.6593490  61.2022080  77.4008050  27.0410760  61.6671530  76.8370770
  28.1716740  61.8949560  77.8177560  22.5225250  60.7297950  84.0791650
  22.1894630  61.3566870  84.7212720  22.6991930  61.2559830  83.2993320
  31.0359160  54.5443030  81.5467990  30.3314730  54.8327920  82.1271100
  31.3971320  55.3543140  81.1867550  20.9537730  52.8012730  83.9088600
  21.2954540  53.6454780  83.6142470  20.0153540  52.9496470  84.0253940
  21.7344350  62.6978750  85.8940830  22.3518350  63.3729830  85.6125280
  20.8737470  63.1066730  85.8028330  17.0276690  61.8878610  74.7747680
  16.6504670  62.3765710  74.0432580  17.2849760  62.5603890  75.4054210
  32.6521940  64.1618160  83.8095470  31.9685460  64.8317270  83.8012140
  33.1916230  64.3598810  83.0440330  24.6365620  50.2895000  80.2333190
  24.9440600  49.7341890  79.5168690  23.7066320  50.4239460  80.0506180
  30.1880680  66.0062290  82.5240650  30.2007840  65.6024580  81.6562910
  29.6355900  66.7809580  82.4202080  31.4826100  62.7278510  77.6130820
  31.3722430  61.7852840  77.7380240  31.4794350  63.0894150  78.4993580
  29.5866120  60.9092130  83.8523260  30.0034910  60.6952240  83.0176720
  30.3105940  61.1664920  84.4231880  27.0246380  58.3543830  76.9693310
  26.0975660  58.2881210  77.1981780  27.1771200  59.2923960  76.8548550
  33.5328220  59.3079350  83.9439500  32.7046850  59.3772440  83.4689630
  34.1278700  59.8933660  83.4755330  31.0543670  59.9164130  77.4728560
  30.4356090  59.5783680  76.8254860  31.0368120  59.2723890  78.1807750
  30.4970230  56.0948670  84.8894370  30.0841410  56.9202380  85.1434360
  29.7646180  55.5093710  84.6970730  22.6303020  58.8808570  79.7513040
  22.2260020  58.1685820  79.2558940  22.7166140  58.5361810  80.6401080
  23.0984720  62.5676130  81.9152250  22.8013010  61.9621600  81.2360030
  24.0484540  62.6053440  81.8041610  21.3431640  55.6551780  83.5312080
  21.8946230  55.7647120  82.7565330  21.8575150  56.0289380  84.2467310
  31.1870330  66.1408000  85.5775350  30.7100890  66.9480190  85.3847960
  30.5032120  65.4886330  85.7301560  22.1903150  62.3057820  88.5660050
  21.2931680  62.5297790  88.8133450  22.2156020  62.4292760  87.6171450
  21.0174370  59.1771140  87.1417420  20.8782140  60.0493940  87.5104820
  20.1355730  58.8343950  86.9965360  27.3403750  64.0947010  78.4482550
  27.7799660  64.8371340  78.0337940  27.2790640  64.3373580  79.3721510
  22.8154720  65.1192840  89.3502570  22.7870150  65.5235790  88.4831000
  22.6519690  64.1903200  89.1874170  19.3307650  57.7753550  77.2519690
  19.2105250  58.5015640  76.6400960  19.0208540  57.0056460  76.7747600
  34.7669540  65.9019940  90.6466740  35.2429260  66.3802830  91.3255820
  35.3876700  65.8337430  89.9212240  16.9693020  60.9468690  83.0588330
  17.0473440  61.0817460  82.1144050  17.5834700  60.2384580  83.2516450
  18.2140650  62.6468880  79.4694510  17.8068730  62.7883470  78.6148110
  19.1053660  62.3629040  79.2665720  34.1702790  63.0932790  87.8066750
  34.2965850  62.8544670  86.8883930  34.2124170  62.2617330  88.2788830
  28.0319530  66.7960790  86.3761560  28.5464200  66.7068800  87.1783990
  27.1888610  67.1420490  86.6689470  30.0073930  67.0816130  75.8045560
  29.8475070  66.7919070  76.7027390  29.8420640  66.3056260  75.2690790
  22.4862310  66.8614660  77.5817180  22.3104790  65.9450200  77.3684980
  21.6318050  67.2201950  77.8214980  29.7100060  64.5903690  74.3643560
  29.0165220  64.5880980  73.7045840  30.4522920  64.1663010  73.9337730
  29.2749990  66.2166400  78.4392050  29.7306940  65.4355780  78.7530670
  29.6142510  66.9273220  78.9833230  34.0226800  55.1465250  88.7716490
  33.4071070  55.6544920  88.2431950  33.7023220  54.2463580  88.7142430
  17.0252540  61.9882860  85.5982790  17.1883580  61.5188220  84.7802160
  17.4904990  61.4806420  86.2631630  21.7971310  51.1188620  80.6343360
  21.3539460  51.8998160  80.3027880  22.3556300  51.4418510  81.3414300
  26.0841120  53.9857140  86.2378680  25.6220490  54.1940160  87.0498620
  25.6819230  53.1716490  85.9349350  31.0845630  55.2066090  87.3675340
  30.2339220  54.9071840  87.6884410  30.9247420  55.4508100  86.4559160
  28.1795340  56.7067840  89.4674130  28.5048750  55.8731590  89.1276360
  28.9675670  57.2296360  89.6152460  24.9130130  50.7399320  75.5149190
  24.2884310  50.7359190  76.2402500  24.8260250  49.8730280  75.1185160
  23.8347210  51.6635950  82.4932960  24.1319540  52.5698780  82.4124980
  24.3832770  51.1754730  81.8792530  21.5885530  56.2422190  78.3624610
  21.3626450  56.0259360  79.2671230  20.8078060  56.6750650  78.0170580
  28.8183290  56.2485560  76.9615260  28.2192180  56.9721360  76.7778880
  29.3662900  56.1862340  76.1791710  24.0284740  57.1407770  89.0284880
  23.9328340  56.2002500  88.8785280  24.8716720  57.3622840  88.6332950
  27.4248160  54.8849100  78.9918540  27.8177730  55.2021300  78.1787230
  27.7865010  54.0060980  79.1063060  19.1595280  53.5521440  87.1818660
  18.7658670  54.3996650  87.3891440  18.4713680  52.9147810  87.3727300
  25.7340330  53.6356410  90.2515400  25.0438650  53.4428610  90.8861490
  26.4772630  53.9191050  90.7839700  16.4612330  51.4749900  81.2148740
  16.1725380  52.0452760  81.9273720  17.2058090  50.9954350  81.5779970
  16.6482560  55.4170020  72.4251460  16.5657230  56.3600780  72.5666450
  16.2965620  55.2744930  71.5463810  28.0103300  57.4754850  83.0869320
  27.2784420  57.9841660  83.4359420  27.6127640  56.6584830  82.7858100
  24.4480690  54.1509050  81.4921810  24.4516750  53.7099000  80.6426350
  25.3431810  54.4726380  81.5993630  20.2983070  54.0335540  80.4516020
  19.9583120  54.5110770  81.2083070  19.5360390  53.5800660  80.0917120
  24.5100840  55.1521130  74.4828570  24.6313660  55.1107610  75.4314390
  24.1249350  56.0145280  74.3275300  23.5222340  57.4622270  73.8811870
  22.9539240  57.0140520  73.2547780  24.2311340  57.8215050  73.3477020
  31.8999960  50.3420710  88.3378640  32.2245730  49.6110370  88.8636620
  31.9356470  50.0234350  87.4359630  18.5991520  61.3634290  87.7578600
  18.2146310  60.7227960  88.3561560  18.9103710  62.0670410  88.3273330
  24.7488660  58.2110830  83.2387220  25.1158790  57.7369400  83.9848560
  24.5593720  59.0852400  83.5795560  17.6129150  52.9554520  79.3680690
  17.3276070  52.5910190  80.2059310  17.5508010  52.2234980  78.7543830
  22.5388030  57.2519470  85.5571430  22.2345100  58.1311450  85.7821790
  23.4934490  57.3119260  85.5928870  21.0669820  61.4580460  76.1538280
  20.2932080  60.9178080  75.9937000  21.7964450  60.9387070  75.8156040
  31.8257800  60.4545820  81.9464670  32.5456920  60.9501110  81.5560780
  31.6239620  59.7763710  81.3018540  27.2076600  60.5254880  87.8333670
  27.1413910  59.6050550  87.5791260  26.5781740  60.6230320  88.5478310
  21.1107220  61.1260840  79.7917090  21.6285890  60.3229100  79.7373980
  20.6591240  61.0639980  80.6333920  25.9976720  62.3927120  75.0644390
  26.3392420  63.1369350  74.5687710  25.1689430  62.7058240  75.4269220
  18.5951760  58.0922210  86.7042790  18.2366700  58.7576060  87.2916130
  18.3006320  57.2605760  87.0755410  21.7964880  58.5506450  89.5882340
  21.4965020  58.6963630  88.6910160  22.5676120  57.9911740  89.4955730
  27.1393330  63.3475450  87.5837470  27.1537870  62.4156410  87.3656380
  26.4318430  63.4335210  88.2227240  33.3504540  59.9882790  86.9306050
  32.6252730  60.5811570  86.7335440  33.8780000  59.9806330  86.1319420
  28.8804130  61.7142960  80.4289900  29.2327950  61.1171090  79.7691270
  27.9966460  61.3887190  80.5998150  24.9667410  62.4740650  77.8360310
  25.6538540  63.0209860  78.2167900  24.1799830  63.0181380  77.8709920
  17.1059810  58.0913470  73.3277390  17.9754660  58.3738270  73.6113310
  16.6150130  58.9049340  73.2126200  24.2694620  59.4786680  77.4485670
  24.7257400  60.2891930  77.6745860  23.9182830  59.1609820  78.2804160
  26.5727230  64.9893020  84.6777970  27.2169450  65.1952400  85.3551390
  26.9356670  64.2281420  84.2248820  20.1706400  49.8224330  77.9208190
  20.0421030  49.8142230  78.8693110  19.3468420  50.1607420  77.5699200
  27.8459310  62.9925370  83.3955420  28.4881540  62.2918530  83.5087590
  28.3708660  63.7723810  83.2152310  29.6196930  63.7920270  86.5991480
  29.9553170  64.3786960  87.2769400  28.6997270  63.6612980  86.8289270
  17.4731060  67.3040850  73.8939020  17.8328700  67.9030190  73.2396290
  17.3323400  67.8500740  74.6674050  17.1700330  51.5815450  87.3814890
  16.4558850  51.7812370  87.9867500  17.5895370  50.8055020  87.7529690
  17.4572920  65.5695710  88.3681420  17.5664040  64.6290450  88.2276810
  16.8053480  65.8350460  87.7195150  25.4485510  63.8411600  89.7679540
  25.1282380  63.1220840  90.3125230  24.7743870  64.5166670  89.8415600
  23.4899680  64.6872050  74.7112690  23.4809780  65.4201740  74.0957200
  22.5698040  64.4403630  74.8039650  19.0906320  59.9086940  75.4559450
  18.4834270  60.6485840  75.4654750  19.5655670  59.9986300  74.6297650
  28.6639110  54.0737760  85.1316340  29.0319930  53.2532970  85.4595910
  27.8037310  54.1339650  85.5471990  26.4759280  64.7500290  73.3737880
  26.5771260  64.5464280  72.4439860  25.5761020  64.4958570  73.5785660
  23.9985170  55.3080650  77.3561780  23.2901320  55.7766990  77.7975390
  24.2829650  54.6502660  77.9906970  25.6241100  56.7277350  85.3554310
  26.1226350  57.2023170  86.0206160  25.7664050  55.8040870  85.5624340
  28.0300600  52.0331310  78.7957570  27.9068380  52.0517440  77.8467080
  28.9785160  52.0810250  78.9155970  25.1177390  67.2686610  78.0685550
  25.3718890  67.2308000  77.1464920  24.1689870  67.1419940  78.0613800
  22.2020190  53.6165730  74.7312490  23.0510720  54.0535880  74.6652680
  21.8351460  53.9285990  75.5584550  32.8307960  52.9445310  86.1982700
  32.3281560  53.6850710  86.5376510  33.6464620  53.3329310  85.8819490
  21.1011610  59.8698090  73.2048020  21.8674880  59.7579450  73.7673450
  21.1786300  59.1736060  72.5524790  19.7958370  57.3023160  73.8880910
  19.8761960  56.3550670  73.9998310  20.6878120  57.6330040  73.9941570
  33.1255550  65.3587340  81.3198320  33.2502970  66.1818510  81.7922130
  33.9921110  65.1478070  80.9722470  20.5973080  67.4518550  80.9915450
  21.3335560  66.9034010  81.2624020  20.9814000  68.3174560  80.8521440
  17.4818560  63.5192120  76.8656960  16.5558340  63.7613260  76.8562370
  17.9474990  64.3466380  76.7441710  19.6031360  66.6364620  90.1801030
  20.4044090  66.9576670  90.5936430  19.0883180  66.2760200  90.9020940
  23.7075390  66.6248860  72.8141020  24.5004000  66.9137690  72.3622810
  23.1879740  66.1941030  72.1353500  28.4395990  62.7444490  90.1276440
  27.8334150  62.7676090  89.3872190  28.1350100  62.0127530  90.6643690
  29.8696360  66.4724780  88.7385850  30.8218110  66.3882800  88.6886090
  29.7224580  67.1366490  89.4119640  32.7605560  65.8518990  74.2377760
  32.4747070  65.4384130  73.4231940  32.5625110  66.7806700  74.1178280
  17.3229170  59.1238080  89.1237080  17.8268190  58.5445360  89.6953310
  16.5836590  59.4078310  89.6613450  24.2252790  61.8452270  72.6783370
  24.1203430  61.2304620  73.4044750  24.0577010  61.3218160  71.8946380
  24.3767110  60.5309070  88.6572600  23.6112780  61.0994070  88.5727270
  24.5583070  60.2385280  87.7640830  27.4655520  60.9072300  73.2825360
  26.9165620  61.3541600  73.9268100  28.0874780  60.4021550  73.8063030
  31.5190460  62.2614400  89.2147620  32.2599930  62.5990160  88.7115080
  30.7563140  62.4306460  88.6617390  19.3552250  57.2667670  90.0187150
  19.3957590  56.9681540  90.9272380  20.2097750  57.6675280  89.8594670
  23.1330640  59.8663220  75.1790660  23.5547060  59.7003090  76.0222050
  23.2581480  59.0563450  74.6845800  21.2958060  55.8459770  87.9861640
  20.7654520  55.3550720  87.3584980  21.9646130  56.2743970  87.4519570
  25.6458280  58.8900830  72.4267760  26.1663940  58.1749850  72.0608910
  26.2926680  59.5286700  72.7268270  30.1936120  60.3129230  87.7502830
  30.6077140  60.4674310  88.5993250  29.2587120  60.4384450  87.9128610
  30.6658290  57.6525390  89.7541980  31.2479060  56.8977710  89.6662460
  30.8420060  58.1832830  88.9773460  21.7830360  52.8122140  88.0658930
  21.6887230  52.1942890  87.3409800  21.2027750  53.5388430  87.8388840
  24.5491800  51.3695380  85.0986320  24.1009100  51.3919640  84.2531870
  23.9157000  50.9714400  85.6956620  24.9551350  60.2649710  85.7198760
  25.3739460  61.1082440  85.5475000  24.0359980  60.4021750  85.4905540
  27.2915250  57.9965890  87.1036600  27.4111460  57.4007030  87.8431440
  28.1509250  58.0335580  86.6837900  29.6303150  58.5503080  85.6799110
  29.1038370  59.0745700  85.0764250  29.9734490  59.1830470  86.3108840
  22.0289540  55.9396450  72.1248820  21.8278600  55.0763810  72.4862160
  21.8581590  55.8529810  71.1870420  22.8058770  66.5702720  86.8356490
  22.2679860  67.2948780  86.5165190  23.0592730  66.0933060  86.0453830
  24.0584020  54.5387240  88.3612420  24.6483710  54.2303090  89.0490240
  23.2404260  54.0666990  88.5172320  28.8777450  54.1553050  88.5945440
  28.1892970  53.4934590  88.5295430  29.5983470  53.7091320  89.0393900
  25.6620980  67.8053930  87.0943140  25.5879680  68.7089070  87.4015510
  24.7599820  67.4865830  87.0665210  26.2106310  66.9712440  74.7169500
  27.1057100  67.3097410  74.7388260  26.2423940  66.2491850  74.0893780
  19.8502470  62.3439490  72.9456500  20.2877340  62.8869160  73.6014080
  20.3350200  61.5186440  72.9552840  17.0648270  65.1328520  80.3976760
  17.3951280  64.2649580  80.1655400  17.4939270  65.3387040  81.2281720
  21.6610190  63.4637530  78.0578730  21.3605730  63.3402500  78.9582640
  21.5547680  62.6046120  77.6494460  17.5538480  65.9999110  83.1358390
  17.1169470  66.1799910  83.9682540  18.1216160  66.7573730  82.9940110
  33.1900660  65.5016110  87.4235700  32.5902650  65.5608670  86.6799620
  33.3194560  64.5621090  87.5532550  17.3862910  58.5119340  79.4947270
  16.7311750  58.2430980  78.8506970  18.2240860  58.4023820  79.0449250
  31.8752300  62.2268090  85.5211860  31.0612140  62.6565250  85.7837650
  32.2826500  62.8386500  84.9080910  18.4238840  58.8971910  84.0350610
  18.7911880  58.8099310  84.9146630  17.8549660  58.1338460  83.9357470
  33.2242700  57.3656290  87.0481080  32.9928790  57.1369040  86.1479030
  33.4847250  58.2855840  87.0025970  17.9754840  55.8081000  87.9409030
  17.0810890  55.7747760  88.2802740  18.5152390  56.0067790  88.7060280
  31.6630770  52.5912720  89.8260780  32.5400950  52.5996120  90.2094780
  31.6751610  51.8543560  89.2153130  16.6000990  55.7218270  75.4372600
  15.6965070  55.9848470  75.2624260  17.0841610  55.9929440  74.6572560
  33.2883760  56.5282130  84.2368350  32.3386470  56.4945670  84.3513340
  33.4696770  57.4382240  84.0018120  19.1428200  54.7783810  73.3466980
  19.8519900  54.3567030  72.8614260  18.4268140  54.8459040  72.7150330
  18.4794550  50.0829330  82.2892250  19.1270740  49.5326710  81.8487410
  18.8996390  50.3372480  83.1108060  32.3746890  50.2770690  85.6461890
  33.0119110  50.8904830  86.0121080  32.5221780  50.3131350  84.7011120
  31.9328350  66.9786690  79.0480130  32.5287420  66.6571260  78.3714550
  32.1906500  66.5058510  79.8393400  18.2326550  50.2385000  85.0317570
  17.8841370  50.6948820  85.7975750  17.9014250  49.3442130  85.1140000
  19.8390920  63.4104600  89.1970760  19.7960550  63.0397510  90.0785220
  19.9701930  64.3482170  89.3372580  23.5396950  64.9664190  84.7980480
  23.2988310  65.2338750  83.9111000  24.4799590  65.1369920  84.8531340
  25.7451370  51.4296880  88.5536990  25.6840260  52.0218710  89.3032400
  26.6851750  51.3222840  88.4087250  28.3825930  51.0866940  88.1929280
  28.9966340  51.4046230  87.5310360  28.9275490  50.6015530  88.8125140
  34.8001110  66.9858570  85.5991120  34.3059390  67.3827440  84.8818250
  34.1914400  66.3607780  85.9928400  18.9047190  49.7661200  88.3068340
  19.4530180  49.5849250  87.5434450  18.9702500  48.9755310  88.8424650
  19.6778950  66.3566850  86.3168540  19.0839270  66.2251550  87.0558580
  19.6702790  65.5204990  85.8510640  29.1233970  49.6499080  84.5198570
  28.2493810  49.9834190  84.3171500  29.0144720  49.1772260  85.3450440
  30.0305950  51.8569950  85.9040290  29.7019310  51.0421710  85.5242020
  30.9788250  51.8139760  85.7805980  32.4840560  67.6281990  82.8777860
  32.0243530  68.3797800  82.5035880  31.8553020  66.9088460  82.8192660
  19.3091180  63.7225230  85.2676580  18.5825240  63.1030520  85.2002530
  19.3700330  64.1165840  84.3974660  22.9136280  65.9370230  82.0525990
  23.4301300  65.3257590  81.5274250  23.5633660  66.4399010  82.5437000
  25.6531780  66.8278720  82.8794970  25.9409590  66.5733020  82.0027980
  26.1655000  66.2756080  83.4700540  26.8708790  50.5668920  83.4591480
  26.0880580  51.0414420  83.7388240  26.5771720  49.6623750  83.3504660
  17.5921180  67.0399620  78.4773340  17.4243220  66.4070300  79.1755230
  16.7255690  67.2459020  78.1267530  18.2149200  50.8716400  75.9805200
  18.9728560  50.9845280  75.4069230  17.7526370  51.7085600  75.9348630
  24.7563010  52.9855670  78.9707510  23.9437520  52.6112560  78.6303390
  25.2604650  52.2300750  79.2728700  19.1983880  65.7332850  75.9223480
  18.6731500  66.1140880  75.2185440  19.1228460  66.3583620  76.6433190
  22.7812190  51.1355590  77.5752560  22.1514930  50.4342900  77.7422690
  22.2417330  51.8959720  77.3585720  25.7204140  67.7494820  90.2463170
  26.6471450  67.5139090  90.2899130  25.7054570  68.5766820  89.7649200
  33.9549200  67.2920390  77.2437420  34.1301390  66.6058130  76.5998340
  33.2570770  67.8167440  76.8514090  22.9067750  50.4139570  90.0105050
  22.6252020  50.9173170  89.2465870  23.2887450  49.6161320  89.6447180
  21.7976850  67.6815230  74.7972730  22.5295670  67.3974510  74.2496620
  22.0570520  67.4428510  75.6872110  20.9591640  63.7979960  74.8019060
  20.3300520  64.2665060  75.3504890  21.0739470  62.9529180  75.2365250
  29.5083210  49.8293150  90.5885520  29.3948660  50.1487760  91.4837040
  30.3252950  50.2305660  90.2922800  32.2881700  66.9764680  90.0704210
  33.0807020  66.4813910  89.8630170  32.5814850  67.6554820  90.6779820
  28.4141360  57.8485620  60.9520260  28.3335410  56.9340230  60.6811970
  28.0005780  58.3452690  60.2459970  26.5459400  59.6264640  62.8329530
  25.7701500  59.1465080  63.1228100  27.1972330  58.9470290  62.6585690
  20.5625230  59.9384450  63.7105290  19.7310110  59.6833160  64.1101800
  21.1706210  60.0095220  64.4463210  30.5666830  64.0324830  61.6128660
  30.1048360  63.2612070  61.9415830  31.3792380  64.0590900  62.1181110
  20.5426490  63.9724540  63.9063310  20.8454530  63.0822280  63.7273530
  21.2870080  64.5294760  63.6785560  18.9717180  54.8986340  57.4947680
  18.0833880  55.2402310  57.3927560  19.2558370  54.6986660  56.6028510
  16.9350190  57.4991990  63.3787380  17.5066300  56.7314190  63.3791020
  16.9351730  57.7980750  62.4693990  26.7930140  66.3182840  61.2332650
  26.1741580  66.7740340  60.6627090  27.6481920  66.4734300  60.8322350
  25.9868390  62.3021830  62.8399690  25.9176670  61.3611770  62.6788820
  26.7488250  62.3923240  63.4122260  18.1775060  52.9076350  65.1656310
  17.9977900  52.0102100  65.4459070  17.7755140  53.4548220  65.8403260
  21.1478570  53.4817840  58.5286060  21.2545320  54.3821570  58.8354820
  20.2370930  53.4335810  58.2380710  30.7997680  52.6042650  59.9996960
  31.6207300  52.1139220  60.0422440  30.8331760  53.1940310  60.7528800
  18.7961730  55.4036850  63.7738650  19.4771840  55.6675220  64.3926050
  18.4809780  54.5637720  64.1076660  22.9886300  56.4504210  62.8611240
  23.4964520  56.9485180  63.5016260  23.5199540  55.6739410  62.6850600
  27.6593490  61.2022080  58.6264560  27.0410760  61.6671530  58.0627280
  28.1716740  61.8949560  59.0434070  22.5225250  60.7297950  65.3048160
  22.1894630  61.3566870  65.9469230  22.6991930  61.2559830  64.5249830
  21.7344350  62.6978750  67.1197340  22.3518350  63.3729830  66.8381790
  20.8737470  63.1066730  67.0284840  17.0276690  61.8878610  56.0004190
  16.6504670  62.3765710  55.2689090  17.2849760  62.5603890  56.6310720
  32.6521940  64.1618160  65.0351980  31.9685460  64.8317270  65.0268650
  33.1916230  64.3598810  64.2696840  30.1880680  66.0062290  63.7497160
  30.2007840  65.6024580  62.8819420  29.6355900  66.7809580  63.6458590
  31.4826100  62.7278510  58.8387330  31.3722430  61.7852840  58.9636750
  31.4794350  63.0894150  59.7250090  27.0246380  58.3543830  58.1949820
  26.0975660  58.2881210  58.4238290  27.1771200  59.2923960  58.0805060
  27.0115460  54.6260830  55.1916980  26.0719130  54.7874790  55.2769440
  27.3298720  55.3446510  54.6452970  31.0543670  59.9164130  58.6985070
  30.4356090  59.5783680  58.0511370  31.0368120  59.2723890  59.4064260
  22.6303020  58.8808570  60.9769550  22.2260020  58.1685820  60.4815450
  22.7166140  58.5361810  61.8657590  23.0984720  62.5676130  63.1408760
  22.8013010  61.9621600  62.4616540  24.0484540  62.6053440  63.0298120
  21.3431640  55.6551780  64.7568590  21.8946230  55.7647120  63.9821840
  21.8575150  56.0289380  65.4723820  31.1870330  66.1408000  66.8031860
  30.7100890  66.9480190  66.6104470  30.5032120  65.4886330  66.9558070
  22.1903150  62.3057820  69.7916560  21.2931680  62.5297790  70.0389960
  22.2156020  62.4292760  68.8427960  29.2308370  59.1550940  55.7057820
  29.6701650  58.3173370  55.5595640  29.9436790  59.7880340  55.7921960
  21.0174370  59.1771140  68.3673930  20.8782140  60.0493940  68.7361330
  20.1355730  58.8343950  68.2221870  27.3403750  64.0947010  59.6739060
  27.7799660  64.8371340  59.2594450  27.2790640  64.3373580  60.5978020
  22.8154720  65.1192840  70.5759080  22.7870150  65.5235790  69.7087510
  22.6519690  64.1903200  70.4130680  19.3307650  57.7753550  58.4776200
  19.2105250  58.5015640  57.8657470  19.0208540  57.0056460  58.0004110
  16.9693020  60.9468690  64.2844840  17.0473440  61.0817460  63.3400560
  17.5834700  60.2384580  64.4772960  18.2140650  62.6468880  60.6951020
  17.8068730  62.7883470  59.8404620  19.1053660  62.3629040  60.4922230
  28.0319530  66.7960790  67.6018070  28.5464200  66.7068800  68.4040500
  27.1888610  67.1420490  67.8945980  30.0073930  67.0816130  57.0302070
  29.8475070  66.7919070  57.9283900  29.8420640  66.3056260  56.4947300
  22.4862310  66.8614660  58.8073690  22.3104790  65.9450200  58.5941490
  21.6318050  67.2201950  59.0471490  29.7100060  64.5903690  55.5900070
  29.0165220  64.5880980  54.9302350  30.4522920  64.1663010  55.1594240
  29.2749990  66.2166400  59.6648560  29.7306940  65.4355780  59.9787180
  29.6142510  66.9273220  60.2089740  17.0252540  61.9882860  66.8239300
  17.1883580  61.5188220  66.0058670  17.4904990  61.4806420  67.4888140
  24.9130130  50.7399320  56.7405700  24.2884310  50.7359190  57.4659010
  24.8260250  49.8730280  56.3441670  21.5885530  56.2422190  59.5881120
  21.3626450  56.0259360  60.4927740  20.8078060  56.6750650  59.2427090
  28.8183290  56.2485560  58.1871770  28.2192180  56.9721360  58.0035390
  29.3662900  56.1862340  57.4048220  24.0284740  57.1407770  70.2541390
  23.9328340  56.2002500  70.1041790  24.8716720  57.3622840  69.8589460
  27.4248160  54.8849100  60.2175050  27.8177730  55.2021300  59.4043740
  27.7865010  54.0060980  60.3319570  19.1595280  53.5521440  68.4075170
  18.7658670  54.3996650  68.6147950  18.4713680  52.9147810  68.5983810
  16.4612330  51.4749900  62.4405250  16.1725380  52.0452760  63.1530230
  17.2058090  50.9954350  62.8036480  16.6482560  55.4170020  53.6507970
  16.5657230  56.3600780  53.7922960  16.2965620  55.2744930  52.7720320
  20.2983070  54.0335540  61.6772530  19.9583120  54.5110770  62.4339580
  19.5360390  53.5800660  61.3173630  24.5100840  55.1521130  55.7085080
  24.6313660  55.1107610  56.6570900  24.1249350  56.0145280  55.5531810
  23.5222340  57.4622270  55.1068380  22.9539240  57.0140520  54.4804290
  24.2311340  57.8215050  54.5733530  18.5991520  61.3634290  68.9835110
  18.2146310  60.7227960  69.5818070  18.9103710  62.0670410  69.5529840
  24.7488660  58.2110830  64.4643730  25.1158790  57.7369400  65.2105070
  24.5593720  59.0852400  64.8052070  17.6129150  52.9554520  60.5937200
  17.3276070  52.5910190  61.4315820  17.5508010  52.2234980  59.9800340
  22.5388030  57.2519470  66.7827940  22.2345100  58.1311450  67.0078300
  23.4934490  57.3119260  66.8185380  21.0669820  61.4580460  57.3794790
  20.2932080  60.9178080  57.2193510  21.7964450  60.9387070  57.0412550
  27.2867740  51.8483780  57.3150570  26.4732350  51.3496950  57.2395880
  27.0929690  52.6882030  56.8986920  27.2076600  60.5254880  69.0590180
  27.1413910  59.6050550  68.8047770  26.5781740  60.6230320  69.7734820
  30.0016130  56.2203430  55.6112730  30.8895750  56.5320660  55.4364070
  29.9721220  55.3475680  55.2193310  21.1107220  61.1260840  61.0173600
  21.6285890  60.3229100  60.9630490  20.6591240  61.0639980  61.8590430
  25.9976720  62.3927120  56.2900900  26.3392420  63.1369350  55.7944220
  25.1689430  62.7058240  56.6525730  18.5951760  58.0922210  67.9299300
  18.2366700  58.7576060  68.5172640  18.3006320  57.2605760  68.3011920
  21.7964880  58.5506450  70.8138850  21.4965020  58.6963630  69.9166670
  22.5676120  57.9911740  70.7212240  27.1393330  63.3475450  68.8093980
  27.1537870  62.4156410  68.5912890  26.4318430  63.4335210  69.4483750
  33.3017650  64.3857530  57.8074720  32.6593810  63.7313150  58.0818440
  32.9148310  64.7912620  57.0315390  28.8804130  61.7142960  61.6546410
  29.2327950  61.1171090  60.9947780  27.9966460  61.3887190  61.8254660
  24.9667410  62.4740650  59.0616820  25.6538540  63.0209860  59.4424410
  24.1799830  63.0181380  59.0966430  17.1059810  58.0913470  54.5533900
  17.9754660  58.3738270  54.8369820  16.6150130  58.9049340  54.4382710
  24.2694620  59.4786680  58.6742180  24.7257400  60.2891930  58.9002370
  23.9182830  59.1609820  59.5060670  26.5727230  64.9893020  65.9034480
  27.2169450  65.1952400  66.5807900  26.9356670  64.2281420  65.4505330
  20.1706400  49.8224330  59.1464700  20.0421030  49.8142230  60.0949620
  19.3468420  50.1607420  58.7955710  27.8459310  62.9925370  64.6211930
  28.4881540  62.2918530  64.7344100  28.3708660  63.7723810  64.4408820
  31.6915030  63.2773990  54.3451070  31.4652610  62.5604430  54.9375710
  31.3011230  63.0286430  53.5072820  29.6196930  63.7920270  67.8247990
  29.9553170  64.3786960  68.5025910  28.6997270  63.6612980  68.0545780
  17.4731060  67.3040850  55.1195530  17.8328700  67.9030190  54.4652800
  17.3323400  67.8500740  55.8930560  17.1700330  51.5815450  68.6071400
  16.4558850  51.7812370  69.2124010  17.5895370  50.8055020  68.9786200
  31.2731280  61.1945930  56.0065230  30.9852980  61.6558620  56.7943110
  32.0683450  60.7343700  56.2749450  17.4572920  65.5695710  69.5937930
  17.5664040  64.6290450  69.4533320  16.8053480  65.8350460  68.9451660
  25.4485510  63.8411600  70.9936050  25.1282380  63.1220840  71.5381740
  24.7743870  64.5166670  71.0672110  23.4899680  64.6872050  55.9369200
  23.4809780  65.4201740  55.3213710  22.5698040  64.4403630  56.0296160
  19.0906320  59.9086940  56.6815960  18.4834270  60.6485840  56.6911260
  19.5655670  59.9986300  55.8554160  32.0301140  53.0294700  57.1660410
  31.4014300  53.1340370  56.4518640  31.5353060  53.2491480  57.9554290
  26.4759280  64.7500290  54.5994390  26.5771260  64.5464280  53.6696370
  25.5761020  64.4958570  54.8042170  23.9985170  55.3080650  58.5818290
  23.2901320  55.7766990  59.0231900  24.2829650  54.6502660  59.2163480
  25.1177390  67.2686610  59.2942060  25.3718890  67.2308000  58.3721430
  24.1689870  67.1419940  59.2870310  22.2020190  53.6165730  55.9569000
  23.0510720  54.0535880  55.8909190  21.8351460  53.9285990  56.7841060
  31.1229970  58.1878490  60.8700570  30.1820110  58.2028720  61.0448260
  31.4374040  57.4014450  61.3160870  21.1011610  59.8698090  54.4304530
  21.8674880  59.7579450  54.9929960  21.1786300  59.1736060  53.7781300
  19.7958370  57.3023160  55.1137420  19.8761960  56.3550670  55.2254820
  20.6878120  57.6330040  55.2198080  33.1255550  65.3587340  62.5454830
  33.2502970  66.1818510  63.0178640  33.9921110  65.1478070  62.1978980
  20.5973080  67.4518550  62.2171960  21.3335560  66.9034010  62.4880530
  20.9814000  68.3174560  62.0777950  17.4818560  63.5192120  58.0913470
  16.5558340  63.7613260  58.0818880  17.9474990  64.3466380  57.9698220
  19.6031360  66.6364620  71.4057540  20.4044090  66.9576670  71.8192940
  19.0883180  66.2760200  72.1277450  23.7075390  66.6248860  54.0397530
  24.5004000  66.9137690  53.5879320  23.1879740  66.1941030  53.3610010
  28.4395990  62.7444490  71.3532950  27.8334150  62.7676090  70.6128700
  28.1350100  62.0127530  71.8900200  29.8696360  66.4724780  69.9642360
  30.8218110  66.3882800  69.9142600  29.7224580  67.1366490  70.6376150
  32.7605560  65.8518990  55.4634270  32.4747070  65.4384130  54.6488450
  32.5625110  66.7806700  55.3434790  17.3229170  59.1238080  70.3493590
  17.8268190  58.5445360  70.9209820  16.5836590  59.4078310  70.8869960
  24.2252790  61.8452270  53.9039880  24.1203430  61.2304620  54.6301260
  24.0577010  61.3218160  53.1202890  24.3767110  60.5309070  69.8829110
  23.6112780  61.0994070  69.7983780  24.5583070  60.2385280  68.9897340
  27.4655520  60.9072300  54.5081870  26.9165620  61.3541600  55.1524610
  28.0874780  60.4021550  55.0319540  19.3552250  57.2667670  71.2443660
  19.3957590  56.9681540  72.1528890  20.2097750  57.6675280  71.0851180
  23.1330640  59.8663220  56.4047170  23.5547060  59.7003090  57.2478560
  23.2581480  59.0563450  55.9102310  21.2958060  55.8459770  69.2118150
  20.7654520  55.3550720  68.5841490  21.9646130  56.2743970  68.6776080
  25.6458280  58.8900830  53.6524270  26.1663940  58.1749850  53.2865420
  26.2926680  59.5286700  53.9524780  24.9551350  60.2649710  66.9455270
  25.3739460  61.1082440  66.7731510  24.0359980  60.4021750  66.7162050
  22.0289540  55.9396450  53.3505330  21.8278600  55.0763810  53.7118670
  21.8581590  55.8529810  52.4126930  22.8058770  66.5702720  68.0613000
  22.2679860  67.2948780  67.7421700  23.0592730  66.0933060  67.2710340
  29.5077850  50.7504680  55.8792210  29.7880140  49.9072580  56.2351630
  28.7343580  50.9827790  56.3930960  20.8272340  53.0397070  53.3383210
  21.1298240  53.0464500  52.4302360  21.5666930  52.6894930  53.8350870
  25.6620980  67.8053930  68.3199650  25.5879680  68.7089070  68.6272020
  24.7599820  67.4865830  68.2921720  24.0457270  51.9831690  54.3239410
  23.6979270  51.3055680  53.7441860  24.2470040  51.5221200  55.1382800
  26.2106310  66.9712440  55.9426010  27.1057100  67.3097410  55.9644770
  26.2423940  66.2491850  55.3150290  19.8502470  62.3439490  54.1713010
  20.2877340  62.8869160  54.8270590  20.3350200  61.5186440  54.1809350
  17.0648270  65.1328520  61.6233270  17.3951280  64.2649580  61.3911910
  17.4939270  65.3387040  62.4538230  21.6610190  63.4637530  59.2835240
  21.3605730  63.3402500  60.1839150  21.5547680  62.6046120  58.8750970
  17.5538480  65.9999110  64.3614900  17.1169470  66.1799910  65.1939050
  18.1216160  66.7573730  64.2196620  34.4302110  63.2433930  53.9861920
  33.5995070  63.3110580  54.4569150  34.6073940  64.1338050  53.6828780
  17.3862910  58.5119340  60.7203780  16.7311750  58.2430980  60.0763480
  18.2240860  58.4023820  60.2705760  31.8752300  62.2268090  66.7468370
  31.0612140  62.6565250  67.0094160  32.2826500  62.8386500  66.1337420
  33.9377740  60.2815780  53.6468640  34.2126580  61.1894660  53.5187860
  33.7488480  60.2178310  54.5830630  30.3353350  53.3060630  54.9422270
  30.7538230  53.1191610  54.1018930  30.0289410  52.4539680  55.2525200
  18.4238840  58.8971910  65.2607120  18.7911880  58.8099310  66.1403140
  17.8549660  58.1338460  65.1613980  17.9754840  55.8081000  69.1665540
  17.0810890  55.7747760  69.5059250  18.5152390  56.0067790  69.9316790
  16.6000990  55.7218270  56.6629110  15.6965070  55.9848470  56.4880770
  17.0841610  55.9929440  55.8829070  33.1094040  56.4442260  61.9405310
  33.6331520  55.9504910  61.3095480  33.6953460  56.5792620  62.6852880
  33.2883760  56.5282130  65.4624860  32.3386470  56.4945670  65.5769850
  33.4696770  57.4382240  65.2274630  19.1428200  54.7783810  54.5723490
  19.8519900  54.3567030  54.0870770  18.4268140  54.8459040  53.9406840
  18.7902360  50.8323140  53.6126140  19.5130490  51.3732080  53.9307360
  19.0626880  50.5586560  52.7367680  18.4794550  50.0829330  63.5148760
  19.1270740  49.5326710  63.0743920  18.8996390  50.3372480  64.3364570
  34.0281170  54.3376560  60.4135400  33.9180450  54.1832600  61.3517670
  34.7888760  53.8097500  60.1710810  31.9328350  66.9786690  60.2736640
  32.5287420  66.6571260  59.5971060  32.1906500  66.5058510  61.0649910
  19.8390920  63.4104600  70.4227270  19.7960550  63.0397510  71.3041730
  19.9701930  64.3482170  70.5629090  23.5396950  64.9664190  66.0236990
  23.2988310  65.2338750  65.1367510  24.4799590  65.1369920  66.0787850
  34.8001110  66.9858570  66.8247630  34.3059390  67.3827440  66.1074760
  34.1914400  66.3607780  67.2184910  19.6778950  66.3566850  67.5425050
  19.0839270  66.2251550  68.2815090  19.6702790  65.5204990  67.0767150
  32.4840560  67.6281990  64.1034370  32.0243530  68.3797800  63.7292390
  31.8553020  66.9088460  64.0449170  19.3091180  63.7225230  66.4933090
  18.5825240  63.1030520  66.4259040  19.3700330  64.1165840  65.6231170
  22.9136280  65.9370230  63.2782500  23.4301300  65.3257590  62.7530760
  23.5633660  66.4399010  63.7693510  25.6531780  66.8278720  64.1051480
  25.9409590  66.5733020  63.2284490  26.1655000  66.2756080  64.6957050
  17.5921180  67.0399620  59.7029850  17.4243220  66.4070300  60.4011740
  16.7255690  67.2459020  59.3524040  18.2149200  50.8716400  57.2061710
  18.9728560  50.9845280  56.6325740  17.7526370  51.7085600  57.1605140
  32.4022590  50.0519680  56.7087370  32.5973220  50.9503130  56.9754800
  31.6152460  49.8206760  57.2020320  19.1983880  65.7332850  57.1479990
  18.6731500  66.1140880  56.4441950  19.1228460  66.3583620  57.8689700
  20.5874350  51.3980450  55.7463680  21.1167110  50.6110250  55.6171630
  21.2202670  52.0771640  55.9799210  22.7812190  51.1355590  58.8009070
  22.1514930  50.4342900  58.9679200  22.2417330  51.8959720  58.5842230
  25.7204140  67.7494820  71.4719680  26.6471450  67.5139090  71.5155640
  25.7054570  68.5766820  70.9905710  33.9549200  67.2920390  58.4693930
  34.1301390  66.6058130  57.8254850  33.2570770  67.8167440  58.0770600
  21.7976850  67.6815230  56.0229240  22.5295670  67.3974510  55.4753130
  22.0570520  67.4428510  56.9128620  20.9591640  63.7979960  56.0275570
  20.3300520  64.2665060  56.5761400  21.0739470  62.9529180  56.4621760
  32.2881700  66.9764680  71.2960720  33.0807020  66.4813910  71.0886680
  32.5814850  67.6554820  71.9036330  20.5625230  59.9384450  44.9361800
  19.7310110  59.6833160  45.3358310  21.1706210  60.0095220  45.6719720
  30.5666830  64.0324830  42.8385170  30.1048360  63.2612070  43.1672340
  31.3792380  64.0590900  43.3437620  20.5426490  63.9724540  45.1319820
  20.8454530  63.0822280  44.9530040  21.2870080  64.5294760  44.9042070
  16.9350190  57.4991990  44.6043890  17.5066300  56.7314190  44.6047530
  16.9351730  57.7980750  43.6950500  26.7930140  66.3182840  42.4589160
  26.1741580  66.7740340  41.8883600  27.6481920  66.4734300  42.0578860
  25.9868390  62.3021830  44.0656200  25.9176670  61.3611770  43.9045330
  26.7488250  62.3923240  44.6378770  18.1775060  52.9076350  46.3912820
  17.9977900  52.0102100  46.6715580  17.7755140  53.4548220  47.0659770
  21.1478570  53.4817840  39.7542570  21.2545320  54.3821570  40.0611330
  20.2370930  53.4335810  39.4637220  18.7961730  55.4036850  44.9995160
  19.4771840  55.6675220  45.6182560  18.4809780  54.5637720  45.3333170
  21.2722400  51.0902770  48.3531170  21.2740840  51.6075160  47.5477070
  20.4426710  50.6132950  48.3301100  27.6593490  61.2022080  39.8521070
  27.0410760  61.6671530  39.2883790  28.1716740  61.8949560  40.2690580
  20.9537730  52.8012730  46.3601620  21.2954540  53.6454780  46.0655490
  20.0153540  52.9496470  46.4766960  21.7344350  62.6978750  48.3453850
  22.3518350  63.3729830  48.0638300  20.8737470  63.1066730  48.2541350
  17.0276690  61.8878610  37.2260700  16.6504670  62.3765710  36.4945600
  17.2849760  62.5603890  37.8567230  32.6521940  64.1618160  46.2608490
  31.9685460  64.8317270  46.2525160  33.1916230  64.3598810  45.4953350
  30.1880680  66.0062290  44.9753670  30.2007840  65.6024580  44.1075930
  29.6355900  66.7809580  44.8715100  31.4826100  62.7278510  40.0643840
  31.3722430  61.7852840  40.1893260  31.4794350  63.0894150  40.9506600
  29.5866120  60.9092130  46.3036280  30.0034910  60.6952240  45.4689740
  30.3105940  61.1664920  46.8744900  31.0543670  59.9164130  39.9241580
  30.4356090  59.5783680  39.2767880  31.0368120  59.2723890  40.6320770
  22.6303020  58.8808570  42.2026060  22.2260020  58.1685820  41.7071960
  22.7166140  58.5361810  43.0914100  23.0984720  62.5676130  44.3665270
  22.8013010  61.9621600  43.6873050  24.0484540  62.6053440  44.2554630
  21.3431640  55.6551780  45.9825100  21.8946230  55.7647120  45.2078350
  21.8575150  56.0289380  46.6980330  31.1870330  66.1408000  48.0288370
  30.7100890  66.9480190  47.8360980  30.5032120  65.4886330  48.1814580
  22.1903150  62.3057820  51.0173070  21.2931680  62.5297790  51.2646470
  22.2156020  62.4292760  50.0684470  21.0174370  59.1771140  49.5930440
  20.8782140  60.0493940  49.9617840  20.1355730  58.8343950  49.4478380
  27.3403750  64.0947010  40.8995570  27.7799660  64.8371340  40.4850960
  27.2790640  64.3373580  41.8234530  22.8154720  65.1192840  51.8015590
  22.7870150  65.5235790  50.9344020  22.6519690  64.1903200  51.6387190
  19.3307650  57.7753550  39.7032710  19.2105250  58.5015640  39.0913980
  19.0208540  57.0056460  39.2260620  34.7669540  65.9019940  53.0979760
  35.2429260  66.3802830  53.7768840  35.3876700  65.8337430  52.3725260
  16.9693020  60.9468690  45.5101350  17.0473440  61.0817460  44.5657070
  17.5834700  60.2384580  45.7029470  18.2140650  62.6468880  41.9207530
  17.8068730  62.7883470  41.0661130  19.1053660  62.3629040  41.7178740
  34.1702790  63.0932790  50.2579770  34.2965850  62.8544670  49.3396950
  34.2124170  62.2617330  50.7301850  28.0319530  66.7960790  48.8274580
  28.5464200  66.7068800  49.6297010  27.1888610  67.1420490  49.1202490
  30.0073930  67.0816130  38.2558580  29.8475070  66.7919070  39.1540410
  29.8420640  66.3056260  37.7203810  22.4862310  66.8614660  40.0330200
  22.3104790  65.9450200  39.8198000  21.6318050  67.2201950  40.2728000
  29.7100060  64.5903690  36.8156580  29.0165220  64.5880980  36.1558860
  30.4522920  64.1663010  36.3850750  29.2749990  66.2166400  40.8905070
  29.7306940  65.4355780  41.2043690  29.6142510  66.9273220  41.4346250
  17.0252540  61.9882860  48.0495810  17.1883580  61.5188220  47.2315180
  17.4904990  61.4806420  48.7144650  21.7971310  51.1188620  43.0856380
  21.3539460  51.8998160  42.7540900  22.3556300  51.4418510  43.7927320
  28.1795340  56.7067840  51.9187150  28.5048750  55.8731590  51.5789380
  28.9675670  57.2296360  52.0665480  23.8347210  51.6635950  44.9445980
  24.1319540  52.5698780  44.8638000  24.3832770  51.1754730  44.3305550
  21.5885530  56.2422190  40.8137630  21.3626450  56.0259360  41.7184250
  20.8078060  56.6750650  40.4683600  19.1595280  53.5521440  49.6331680
  18.7658670  54.3996650  49.8404460  18.4713680  52.9147810  49.8240320
  25.7340330  53.6356410  52.7028420  25.0438650  53.4428610  53.3374510
  26.4772630  53.9191050  53.2352720  16.4612330  51.4749900  43.6661760
  16.1725380  52.0452760  44.3786740  17.2058090  50.9954350  44.0292990
  20.2983070  54.0335540  42.9029040  19.9583120  54.5110770  43.6596090
  19.5360390  53.5800660  42.5430140  18.5991520  61.3634290  50.2091620
  18.2146310  60.7227960  50.8074580  18.9103710  62.0670410  50.7786350
  17.6129150  52.9554520  41.8193710  17.3276070  52.5910190  42.6572330
  17.5508010  52.2234980  41.2056850  21.0669820  61.4580460  38.6051300
  20.2932080  60.9178080  38.4450020  21.7964450  60.9387070  38.2669060
  27.2076600  60.5254880  50.2846690  27.1413910  59.6050550  50.0304280
  26.5781740  60.6230320  50.9991330  21.1107220  61.1260840  42.2430110
  21.6285890  60.3229100  42.1887000  20.6591240  61.0639980  43.0846940
  25.9976720  62.3927120  37.5157410  26.3392420  63.1369350  37.0200730
  25.1689430  62.7058240  37.8782240  18.5951760  58.0922210  49.1555810
  18.2366700  58.7576060  49.7429150  18.3006320  57.2605760  49.5268430
  21.7964880  58.5506450  52.0395360  21.4965020  58.6963630  51.1423180
  22.5676120  57.9911740  51.9468750  27.1393330  63.3475450  50.0350490
  27.1537870  62.4156410  49.8169400  26.4318430  63.4335210  50.6740260
  33.3017650  64.3857530  39.0331230  32.6593810  63.7313150  39.3074950
  32.9148310  64.7912620  38.2571900  28.8804130  61.7142960  42.8802920
  29.2327950  61.1171090  42.2204290  27.9966460  61.3887190  43.0511170
  24.9667410  62.4740650  40.2873330  25.6538540  63.0209860  40.6680920
  24.1799830  63.0181380  40.3222940  24.2694620  59.4786680  39.8998690
  24.7257400  60.2891930  40.1258880  23.9182830  59.1609820  40.7317180
  26.5727230  64.9893020  47.1290990  27.2169450  65.1952400  47.8064410
  26.9356670  64.2281420  46.6761840  20.1706400  49.8224330  40.3721210
  20.0421030  49.8142230  41.3206130  19.3468420  50.1607420  40.0212220
  27.8459310  62.9925370  45.8468440  28.4881540  62.2918530  45.9600610
  28.3708660  63.7723810  45.6665330  31.6915030  63.2773990  35.5707580
  31.4652610  62.5604430  36.1632220  31.3011230  63.0286430  34.7329330
  29.6196930  63.7920270  49.0504500  29.9553170  64.3786960  49.7282420
  28.6997270  63.6612980  49.2802290  17.4731060  67.3040850  36.3452040
  17.8328700  67.9030190  35.6909310  17.3323400  67.8500740  37.1187070
  17.1700330  51.5815450  49.8327910  16.4558850  51.7812370  50.4380520
  17.5895370  50.8055020  50.2042710  31.2731280  61.1945930  37.2321740
  30.9852980  61.6558620  38.0199620  32.0683450  60.7343700  37.5005960
  17.4572920  65.5695710  50.8194440  17.5664040  64.6290450  50.6789830
  16.8053480  65.8350460  50.1708170  25.4485510  63.8411600  52.2192560
  25.1282380  63.1220840  52.7638250  24.7743870  64.5166670  52.2928620
  23.4899680  64.6872050  37.1625710  23.4809780  65.4201740  36.5470220
  22.5698040  64.4403630  37.2552670  19.0906320  59.9086940  37.9072470
  18.4834270  60.6485840  37.9167770  19.5655670  59.9986300  37.0810670
  26.4759280  64.7500290  35.8250900  26.5771260  64.5464280  34.8952880
  25.5761020  64.4958570  36.0298680  23.9985170  55.3080650  39.8074800
  23.2901320  55.7766990  40.2488410  24.2829650  54.6502660  40.4419990
  25.1177390  67.2686610  40.5198570  25.3718890  67.2308000  39.5977940
  24.1689870  67.1419940  40.5126820  33.1255550  65.3587340  43.7711340
  33.2502970  66.1818510  44.2435150  33.9921110  65.1478070  43.4235490
  20.5973080  67.4518550  43.4428470  21.3335560  66.9034010  43.7137040
  20.9814000  68.3174560  43.3034460  17.4818560  63.5192120  39.3169980
  16.5558340  63.7613260  39.3075390  17.9474990  64.3466380  39.1954730
  19.6031360  66.6364620  52.6314050  20.4044090  66.9576670  53.0449450
  19.0883180  66.2760200  53.3533960  23.7075390  66.6248860  35.2654040
  24.5004000  66.9137690  34.8135830  23.1879740  66.1941030  34.5866520
  28.4395990  62.7444490  52.5789460  27.8334150  62.7676090  51.8385210
  28.1350100  62.0127530  53.1156710  29.8696360  66.4724780  51.1898870
  30.8218110  66.3882800  51.1399110  29.7224580  67.1366490  51.8632660
  32.7605560  65.8518990  36.6890780  32.4747070  65.4384130  35.8744960
  32.5625110  66.7806700  36.5691300  17.3229170  59.1238080  51.5750100
  17.8268190  58.5445360  52.1466330  16.5836590  59.4078310  52.1126470
  24.2252790  61.8452270  35.1296390  24.1203430  61.2304620  35.8557770
  24.0577010  61.3218160  34.3459400  27.4655520  60.9072300  35.7338380
  26.9165620  61.3541600  36.3781120  28.0874780  60.4021550  36.2576050
  31.5190460  62.2614400  51.6660640  32.2599930  62.5990160  51.1628100
  30.7563140  62.4306460  51.1130410  19.3552250  57.2667670  52.4700170
  19.3957590  56.9681540  53.3785400  20.2097750  57.6675280  52.3107690
  23.1330640  59.8663220  37.6303680  23.5547060  59.7003090  38.4735070
  23.2581480  59.0563450  37.1358820  30.1936120  60.3129230  50.2015850
  30.6077140  60.4674310  51.0506270  29.2587120  60.4384450  50.3641630
  21.7830360  52.8122140  50.5171950  21.6887230  52.1942890  49.7922820
  21.2027750  53.5388430  50.2901860  24.5491800  51.3695380  47.5499340
  24.1009100  51.3919640  46.7044890  23.9157000  50.9714400  48.1469640
  22.8058770  66.5702720  49.2869510  22.2679860  67.2948780  48.9678210
  23.0592730  66.0933060  48.4966850  25.6620980  67.8053930  49.5456160
  25.5879680  68.7089070  49.8528530  24.7599820  67.4865830  49.5178230
  26.2106310  66.9712440  37.1682520  27.1057100  67.3097410  37.1901280
  26.2423940  66.2491850  36.5406800  19.8502470  62.3439490  35.3969520
  20.2877340  62.8869160  36.0527100  20.3350200  61.5186440  35.4065860
  17.0648270  65.1328520  42.8489780  17.3951280  64.2649580  42.6168420
  17.4939270  65.3387040  43.6794740  21.6610190  63.4637530  40.5091750
  21.3605730  63.3402500  41.4095660  21.5547680  62.6046120  40.1007480
  17.5538480  65.9999110  45.5871410  17.1169470  66.1799910  46.4195560
  18.1216160  66.7573730  45.4453130  33.1900660  65.5016110  49.8748720
  32.5902650  65.5608670  49.1312640  33.3194560  64.5621090  50.0045570
  34.4302110  63.2433930  35.2118430  33.5995070  63.3110580  35.6825660
  34.6073940  64.1338050  34.9085290  17.3862910  58.5119340  41.9460290
  16.7311750  58.2430980  41.3019990  18.2240860  58.4023820  41.4962270
  18.4238840  58.8971910  46.4863630  18.7911880  58.8099310  47.3659650
  17.8549660  58.1338460  46.3870490  17.9754840  55.8081000  50.3922050
  17.0810890  55.7747760  50.7315760  18.5152390  56.0067790  51.1573300
  16.6000990  55.7218270  37.8885620  15.6965070  55.9848470  37.7137280
  17.0841610  55.9929440  37.1085580  18.4794550  50.0829330  44.7405270
  19.1270740  49.5326710  44.3000430  18.8996390  50.3372480  45.5621080
  31.9328350  66.9786690  41.4993150  32.5287420  66.6571260  40.8227570
  32.1906500  66.5058510  42.2906420  18.2326550  50.2385000  47.4830590
  17.8841370  50.6948820  48.2488770  17.9014250  49.3442130  47.5653020
  19.8390920  63.4104600  51.6483780  19.7960550  63.0397510  52.5298240
  19.9701930  64.3482170  51.7885600  23.5396950  64.9664190  47.2493500
  23.2988310  65.2338750  46.3624020  24.4799590  65.1369920  47.3044360
  25.7451370  51.4296880  51.0050010  25.6840260  52.0218710  51.7545420
  26.6851750  51.3222840  50.8600270  28.3825930  51.0866940  50.6442300
  28.9966340  51.4046230  49.9823380  28.9275490  50.6015530  51.2638160
  34.8001110  66.9858570  48.0504140  34.3059390  67.3827440  47.3331270
  34.1914400  66.3607780  48.4441420  18.9047190  49.7661200  50.7581360
  19.4530180  49.5849250  49.9947470  18.9702500  48.9755310  51.2937670
  19.6778950  66.3566850  48.7681560  19.0839270  66.2251550  49.5071600
  19.6702790  65.5204990  48.3023660  32.4840560  67.6281990  45.3290880
  32.0243530  68.3797800  44.9548900  31.8553020  66.9088460  45.2705680
  19.3091180  63.7225230  47.7189600  18.5825240  63.1030520  47.6515550
  19.3700330  64.1165840  46.8487680  22.9136280  65.9370230  44.5039010
  23.4301300  65.3257590  43.9787270  23.5633660  66.4399010  44.9950020
  25.6531780  66.8278720  45.3307990  25.9409590  66.5733020  44.4541000
  26.1655000  66.2756080  45.9213560  17.5921180  67.0399620  40.9286360
  17.4243220  66.4070300  41.6268250  16.7255690  67.2459020  40.5780550
  19.1983880  65.7332850  38.3736500  18.6731500  66.1140880  37.6698460
  19.1228460  66.3583620  39.0946210  25.7204140  67.7494820  52.6976190
  26.6471450  67.5139090  52.7412150  25.7054570  68.5766820  52.2162220
  33.9549200  67.2920390  39.6950440  34.1301390  66.6058130  39.0511360
  33.2570770  67.8167440  39.3027110  22.9067750  50.4139570  52.4618070
  22.6252020  50.9173170  51.6978890  23.2887450  49.6161320  52.0960200
  21.7976850  67.6815230  37.2485750  22.5295670  67.3974510  36.7009640
  22.0570520  67.4428510  38.1385130  20.9591640  63.7979960  37.2532080
  20.3300520  64.2665060  37.8017910  21.0739470  62.9529180  37.6878270
  29.5083210  49.8293150  53.0398540  29.3948660  50.1487760  53.9350060
  30.3252950  50.2305660  52.7435820  32.2881700  66.9764680  52.5217230
  33.0807020  66.4813910  52.3143190  32.5814850  67.6554820  53.1292840
  30.5666830  64.0324830  24.0641680  30.1048360  63.2612070  24.3928850
  31.3792380  64.0590900  24.5694130  26.7930140  66.3182840  23.6845670
  26.1741580  66.7740340  23.1140110  27.6481920  66.4734300  23.2835370
  32.6521940  64.1618160  27.4865000  31.9685460  64.8317270  27.4781670
  33.1916230  64.3598810  26.7209860  30.1880680  66.0062290  26.2010180
  30.2007840  65.6024580  25.3332440  29.6355900  66.7809580  26.0971610
  31.4826100  62.7278510  21.2900350  31.3722430  61.7852840  21.4149770
  31.4794350  63.0894150  22.1763110  27.0115460  54.6260830  17.6430000
  26.0719130  54.7874790  17.7282460  27.3298720  55.3446510  17.0965990
  31.0543670  59.9164130  21.1498090  30.4356090  59.5783680  20.5024390
  31.0368120  59.2723890  21.8577280  31.1870330  66.1408000  29.2544880
  30.7100890  66.9480190  29.0617490  30.5032120  65.4886330  29.4071090
  22.1903150  62.3057820  32.2429580  21.2931680  62.5297790  32.4902980
  22.2156020  62.4292760  31.2940980  29.2308370  59.1550940  18.1570840
  29.6701650  58.3173370  18.0108660  29.9436790  59.7880340  18.2434980
  22.8154720  65.1192840  33.0272100  22.7870150  65.5235790  32.1600530
  22.6519690  64.1903200  32.8643700  32.8125510  50.4093750  16.4711880
  32.4998170  50.5020580  17.3710950  33.5737980  50.9874780  16.4209310
  34.7669540  65.9019940  34.3236270  35.2429260  66.3802830  35.0025350
  35.3876700  65.8337430  33.5981770  28.0319530  66.7960790  30.0531090
  28.5464200  66.7068800  30.8553520  27.1888610  67.1420490  30.3459000
  30.0073930  67.0816130  19.4815090  29.8475070  66.7919070  20.3796920
  29.8420640  66.3056260  18.9460320  22.4862310  66.8614660  21.2586710
  22.3104790  65.9450200  21.0454510  21.6318050  67.2201950  21.4984510
  29.7100060  64.5903690  18.0413090  29.0165220  64.5880980  17.3815370
  30.4522920  64.1663010  17.6107260  29.2749990  66.2166400  22.1161580
  29.7306940  65.4355780  22.4300200  29.6142510  66.9273220  22.6602760
  16.6482560  55.4170020  16.1020990  16.5657230  56.3600780  16.2435980
  16.2965620  55.2744930  15.2233340  30.0016130  56.2203430  18.0625750
  30.8895750  56.5320660  17.8877090  29.9721220  55.3475680  17.6706330
  25.9976720  62.3927120  18.7413920  26.3392420  63.1369350  18.2457240
  25.1689430  62.7058240  19.1038750  27.1393330  63.3475450  31.2607000
  27.1537870  62.4156410  31.0425910  26.4318430  63.4335210  31.8996770
  32.2730400  57.5315270  17.5305610  32.1894120  57.9629490  16.6802050
  32.9924590  57.9913620  17.9632430  33.3017650  64.3857530  20.2587740
  32.6593810  63.7313150  20.5331460  32.9148310  64.7912620  19.4828410
  17.1059810  58.0913470  17.0046920  17.9754660  58.3738270  17.2882840
  16.6150130  58.9049340  16.8895730  26.5727230  64.9893020  28.3547500
  27.2169450  65.1952400  29.0320920  26.9356670  64.2281420  27.9018350
  27.8459310  62.9925370  27.0724950  28.4881540  62.2918530  27.1857120
  28.3708660  63.7723810  26.8921840  31.6915030  63.2773990  16.7964090
  31.4652610  62.5604430  17.3888730  31.3011230  63.0286430  15.9585840
  29.6196930  63.7920270  30.2761010  29.9553170  64.3786960  30.9538930
  28.6997270  63.6612980  30.5058800  17.4731060  67.3040850  17.5708550
  17.8328700  67.9030190  16.9165820  17.3323400  67.8500740  18.3443580
  31.2731280  61.1945930  18.4578250  30.9852980  61.6558620  19.2456130
  32.0683450  60.7343700  18.7262470  17.4572920  65.5695710  32.0450950
  17.5664040  64.6290450  31.9046340  16.8053480  65.8350460  31.3964680
  25.4485510  63.8411600  33.4449070  25.1282380  63.1220840  33.9894760
  24.7743870  64.5166670  33.5185130  23.4899680  64.6872050  18.3882220
  23.4809780  65.4201740  17.7726730  22.5698040  64.4403630  18.4809180
  26.4759280  64.7500290  17.0507410  26.5771260  64.5464280  16.1209390
  25.5761020  64.4958570  17.2555190  25.1177390  67.2686610  21.7455080
  25.3718890  67.2308000  20.8234450  24.1689870  67.1419940  21.7383330
  21.1011610  59.8698090  16.8817550  21.8674880  59.7579450  17.4442980
  21.1786300  59.1736060  16.2294320  33.1255550  65.3587340  24.9967850
  33.2502970  66.1818510  25.4691660  33.9921110  65.1478070  24.6492000
  20.5973080  67.4518550  24.6684980  21.3335560  66.9034010  24.9393550
  20.9814000  68.3174560  24.5290970  19.6031360  66.6364620  33.8570560
  20.4044090  66.9576670  34.2705960  19.0883180  66.2760200  34.5790470
  23.7075390  66.6248860  16.4910550  24.5004000  66.9137690  16.0392340
  23.1879740  66.1941030  15.8123030  28.4395990  62.7444490  33.8045970
  27.8334150  62.7676090  33.0641720  28.1350100  62.0127530  34.3413220
  29.8696360  66.4724780  32.4155380  30.8218110  66.3882800  32.3655620
  29.7224580  67.1366490  33.0889170  32.7605560  65.8518990  17.9147290
  32.4747070  65.4384130  17.1001470  32.5625110  66.7806700  17.7947810
  24.2252790  61.8452270  16.3552900  24.1203430  61.2304620  17.0814280
  24.0577010  61.3218160  15.5715910  27.4655520  60.9072300  16.9594890
  26.9165620  61.3541600  17.6037630  28.0874780  60.4021550  17.4832560
  25.6458280  58.8900830  16.1037290  26.1663940  58.1749850  15.7378440
  26.2926680  59.5286700  16.4037800  22.8058770  66.5702720  30.5126020
  22.2679860  67.2948780  30.1934720  23.0592730  66.0933060  29.7223360
  25.6620980  67.8053930  30.7712670  25.5879680  68.7089070  31.0785040
  24.7599820  67.4865830  30.7434740  26.2106310  66.9712440  18.3939030
  27.1057100  67.3097410  18.4157790  26.2423940  66.2491850  17.7663310
  33.1900660  65.5016110  31.1005230  32.5902650  65.5608670  30.3569150
  33.3194560  64.5621090  31.2302080  34.4302110  63.2433930  16.4374940
  33.5995070  63.3110580  16.9082170  34.6073940  64.1338050  16.1341800
  33.8858570  59.9881410  18.9409140  34.6477480  60.5578060  19.0468830
  33.9012940  59.4208610  19.7117450  34.8918540  60.8431510  23.7851070
  35.2627370  60.0598830  23.3787040  35.5320470  61.5320610  23.6068370
  33.9377740  60.2815780  16.0981660  34.2126580  61.1894660  15.9700880
  33.7488480  60.2178310  17.0343650  30.3353350  53.3060630  17.3935290
  30.7538230  53.1191610  16.5531950  30.0289410  52.4539680  17.7038220
  33.8343080  58.2184770  21.0911090  33.4586680  57.4512700  20.6592380
  33.1046200  58.6007470  21.5786020  16.6000990  55.7218270  19.1142130
  15.6965070  55.9848470  18.9393790  17.0841610  55.9929440  18.3342090
  33.1094040  56.4442260  24.3918330  33.6331520  55.9504910  23.7608500
  33.6953460  56.5792620  25.1365900  32.5994010  55.7015610  20.3310740
  33.0953130  55.4686480  21.1159620  32.4010080  54.8627450  19.9148380
  34.0281170  54.3376560  22.8648420  33.9180450  54.1832600  23.8030690
  34.7888760  53.8097500  22.6223830  34.9171440  52.1684480  16.1054560
  35.8420750  52.0365660  15.8972850  34.8947230  52.2477300  17.0591010
  34.9909930  52.9395140  18.7311270  34.1961430  52.8740260  19.2604180
  35.1953210  53.8745780  18.7196620  31.9328350  66.9786690  22.7249660
  32.5287420  66.6571260  22.0484080  32.1906500  66.5058510  23.5162930
  23.5396950  64.9664190  28.4750010  23.2988310  65.2338750  27.5880530
  24.4799590  65.1369920  28.5300870  34.8001110  66.9858570  29.2760650
  34.3059390  67.3827440  28.5587780  34.1914400  66.3607780  29.6697930
  19.6778950  66.3566850  29.9938070  19.0839270  66.2251550  30.7328110
  19.6702790  65.5204990  29.5280170  32.4840560  67.6281990  26.5547390
  32.0243530  68.3797800  26.1805410  31.8553020  66.9088460  26.4962190
  22.9136280  65.9370230  25.7295520  23.4301300  65.3257590  25.2043780
  23.5633660  66.4399010  26.2206530  25.6531780  66.8278720  26.5564500
  25.9409590  66.5733020  25.6797510  26.1655000  66.2756080  27.1470070
  32.4022590  50.0519680  19.1600390  32.5973220  50.9503130  19.4267820
  31.6152460  49.8206760  19.6533340  25.7204140  67.7494820  33.9232700
  26.6471450  67.5139090  33.9668660  25.7054570  68.5766820  33.4418730
  33.9549200  67.2920390  20.9206950  34.1301390  66.6058130  20.2767870
  33.2570770  67.8167440  20.5283620  21.7976850  67.6815230  18.4742260
  22.5295670  67.3974510  17.9266150  22.0570520  67.4428510  19.3641640
  32.2881700  66.9764680  33.7473740  33.0807020  66.4813910  33.5399700
  32.5814850  67.6554820  34.3549350  28.4141360  57.8485620   4.6289790
  28.3335410  56.9340230   4.3581500  28.0005780  58.3452690   3.9229500
  26.5459400  59.6264640   6.5099060  25.7701500  59.1465080   6.7997630
  27.1972330  58.9470290   6.3355220  20.5625230  59.9384450   7.3874820
  19.7310110  59.6833160   7.7871330  21.1706210  60.0095220   8.1232740
  30.5666830  64.0324830   5.2898190  30.1048360  63.2612070   5.6185360
  31.3792380  64.0590900   5.7950640  20.5426490  63.9724540   7.5832840
  20.8454530  63.0822280   7.4043060  21.2870080  64.5294760   7.3555090
  16.9350190  57.4991990   7.0556910  17.5066300  56.7314190   7.0560550
  16.9351730  57.7980750   6.1463520  26.7930140  66.3182840   4.9102180
  26.1741580  66.7740340   4.3396620  27.6481920  66.4734300   4.5091880
  25.9868390  62.3021830   6.5169220  25.9176670  61.3611770   6.3558350
  26.7488250  62.3923240   7.0891790  18.1775060  52.9076350   8.8425840
  17.9977900  52.0102100   9.1228600  17.7755140  53.4548220   9.5172790
  27.0173560  55.1092210   6.7438150  27.3938380  54.2364090   6.6311820
  26.9193070  55.4450910   5.8528590  21.1478570  53.4817840   2.2055590
  21.2545320  54.3821570   2.5124350  20.2370930  53.4335810   1.9150240
  30.7997680  52.6042650   3.6766490  31.6207300  52.1139220   3.7191970
  30.8331760  53.1940310   4.4298330  18.7961730  55.4036850   7.4508180
  19.4771840  55.6675220   8.0695580  18.4809780  54.5637720   7.7846190
  22.9886300  56.4504210   6.5380770  23.4964520  56.9485180   7.1785790
  23.5199540  55.6739410   6.3620130  35.0897230  54.6209400  10.2410120
  34.3849400  55.0091110   9.7225230  35.3555150  55.3159690  10.8431050
  21.2722400  51.0902770  10.8044190  21.2740840  51.6075160   9.9990090
  20.4426710  50.6132950  10.7814120  27.6593490  61.2022080   2.3034090
  27.0410760  61.6671530   1.7396810  28.1716740  61.8949560   2.7203600
  22.5225250  60.7297950   8.9817690  22.1894630  61.3566870   9.6238760
  22.6991930  61.2559830   8.2019360  31.0359160  54.5443030   6.4494030
  30.3314730  54.8327920   7.0297140  31.3971320  55.3543140   6.0893590
  20.9537730  52.8012730   8.8114640  21.2954540  53.6454780   8.5168510
  20.0153540  52.9496470   8.9279980  21.7344350  62.6978750  10.7966870
  22.3518350  63.3729830  10.5151320  20.8737470  63.1066730  10.7054370
  32.6521940  64.1618160   8.7121510  31.9685460  64.8317270   8.7038180
  33.1916230  64.3598810   7.9466370  34.1046080  53.9897820   6.8403240
  33.1570990  54.0236800   6.9718670  34.4296070  54.8036770   7.2252600
  24.6365620  50.2895000   5.1359230  24.9440600  49.7341890   4.4194730
  23.7066320  50.4239460   4.9532220  30.1880680  66.0062290   7.4266690
  30.2007840  65.6024580   6.5588950  29.6355900  66.7809580   7.3228120
  31.4826100  62.7278510   2.5156860  31.3722430  61.7852840   2.6406280
  31.4794350  63.0894150   3.4019620  29.5866120  60.9092130   8.7549300
  30.0034910  60.6952240   7.9202760  30.3105940  61.1664920   9.3257920
  27.0246380  58.3543830   1.8719350  26.0975660  58.2881210   2.1007820
  27.1771200  59.2923960   1.7574590  33.5328220  59.3079350   8.8465540
  32.7046850  59.3772440   8.3715670  34.1278700  59.8933660   8.3781370
  31.0543670  59.9164130   2.3754600  30.4356090  59.5783680   1.7280900
  31.0368120  59.2723890   3.0833790  30.4970230  56.0948670   9.7920410
  30.0841410  56.9202380  10.0460400  29.7646180  55.5093710   9.5996770
  22.6303020  58.8808570   4.6539080  22.2260020  58.1685820   4.1584980
  22.7166140  58.5361810   5.5427120  23.0984720  62.5676130   6.8178290
  22.8013010  61.9621600   6.1386070  24.0484540  62.6053440   6.7067650
  21.3431640  55.6551780   8.4338120  21.8946230  55.7647120   7.6591370
  21.8575150  56.0289380   9.1493350  31.1870330  66.1408000  10.4801390
  30.7100890  66.9480190  10.2874000  30.5032120  65.4886330  10.6327600
  22.1903150  62.3057820  13.4686090  21.2931680  62.5297790  13.7159490
  22.2156020  62.4292760  12.5197490  21.0174370  59.1771140  12.0443460
  20.8782140  60.0493940  12.4130860  20.1355730  58.8343950  11.8991400
  27.3403750  64.0947010   3.3508590  27.7799660  64.8371340   2.9363980
  27.2790640  64.3373580   4.2747550  22.8154720  65.1192840  14.2528610
  22.7870150  65.5235790  13.3857040  22.6519690  64.1903200  14.0900210
  19.3307650  57.7753550   2.1545730  19.2105250  58.5015640   1.5427000
  19.0208540  57.0056460   1.6773640  34.7669540  65.9019940  15.5492780
  35.2429260  66.3802830  16.2281860  35.3876700  65.8337430  14.8238280
  16.9693020  60.9468690   7.9614370  17.0473440  61.0817460   7.0170090
  17.5834700  60.2384580   8.1542490  18.2140650  62.6468880   4.3720550
  17.8068730  62.7883470   3.5174150  19.1053660  62.3629040   4.1691760
  34.1702790  63.0932790  12.7092790  34.2965850  62.8544670  11.7909970
  34.2124170  62.2617330  13.1814870  28.0319530  66.7960790  11.2787600
  28.5464200  66.7068800  12.0810030  27.1888610  67.1420490  11.5715510
  22.4862310  66.8614660   2.4843220  22.3104790  65.9450200   2.2711020
  21.6318050  67.2201950   2.7241020  29.2749990  66.2166400   3.3418090
  29.7306940  65.4355780   3.6556710  29.6142510  66.9273220   3.8859270
  34.0226800  55.1465250  13.6742530  33.4071070  55.6544920  13.1457990
  33.7023220  54.2463580  13.6168470  17.0252540  61.9882860  10.5008830
  17.1883580  61.5188220   9.6828200  17.4904990  61.4806420  11.1657670
  21.7971310  51.1188620   5.5369400  21.3539460  51.8998160   5.2053920
  22.3556300  51.4418510   6.2440340  26.0841120  53.9857140  11.1404720
  25.6220490  54.1940160  11.9524660  25.6819230  53.1716490  10.8375390
  31.0845630  55.2066090  12.2701380  30.2339220  54.9071840  12.5910450
  30.9247420  55.4508100  11.3585200  28.1795340  56.7067840  14.3700170
  28.5048750  55.8731590  14.0302400  28.9675670  57.2296360  14.5178500
  23.8347210  51.6635950   7.3959000  24.1319540  52.5698780   7.3151020
  24.3832770  51.1754730   6.7818570  21.5885530  56.2422190   3.2650650
  21.3626450  56.0259360   4.1697270  20.8078060  56.6750650   2.9196620
  24.0284740  57.1407770  13.9310920  23.9328340  56.2002500  13.7811320
  24.8716720  57.3622840  13.5358990  27.4248160  54.8849100   3.8944580
  27.8177730  55.2021300   3.0813270  27.7865010  54.0060980   4.0089100
  19.1595280  53.5521440  12.0844700  18.7658670  54.3996650  12.2917480
  18.4713680  52.9147810  12.2753340  25.7340330  53.6356410  15.1541440
  25.0438650  53.4428610  15.7887530  26.4772630  53.9191050  15.6865740
  16.4612330  51.4749900   6.1174780  16.1725380  52.0452760   6.8299760
  17.2058090  50.9954350   6.4806010  28.0103300  57.4754850   7.9895360
  27.2784420  57.9841660   8.3385460  27.6127640  56.6584830   7.6884140
  24.4480690  54.1509050   6.3947850  24.4516750  53.7099000   5.5452390
  25.3431810  54.4726380   6.5019670  20.2983070  54.0335540   5.3542060
  19.9583120  54.5110770   6.1109110  19.5360390  53.5800660   4.9943160
  28.4729210  52.9288530   7.4018300  28.4901950  53.3797180   8.2460150
  28.2244790  52.0294170   7.6151740  31.8999960  50.3420710  13.2404680
  32.2245730  49.6110370  13.7662660  31.9356470  50.0234350  12.3385670
  18.5991520  61.3634290  12.6604640  18.2146310  60.7227960  13.2587600
  18.9103710  62.0670410  13.2299370  24.7488660  58.2110830   8.1413260
  25.1158790  57.7369400   8.8874600  24.5593720  59.0852400   8.4821600
  17.6129150  52.9554520   4.2706730  17.3276070  52.5910190   5.1085350
  17.5508010  52.2234980   3.6569870  22.5388030  57.2519470  10.4597470
  22.2345100  58.1311450  10.6847830  23.4934490  57.3119260  10.4954910
  31.8257800  60.4545820   6.8490710  32.5456920  60.9501110   6.4586820
  31.6239620  59.7763710   6.2044580  27.2076600  60.5254880  12.7359710
  27.1413910  59.6050550  12.4817300  26.5781740  60.6230320  13.4504350
  21.1107220  61.1260840   4.6943130  21.6285890  60.3229100   4.6400020
  20.6591240  61.0639980   5.5359960  18.5951760  58.0922210  11.6068830
  18.2366700  58.7576060  12.1942170  18.3006320  57.2605760  11.9781450
  21.7964880  58.5506450  14.4908380  21.4965020  58.6963630  13.5936200
  22.5676120  57.9911740  14.3981770  27.1393330  63.3475450  12.4863510
  27.1537870  62.4156410  12.2682420  26.4318430  63.4335210  13.1253280
  33.3504540  59.9882790  11.8332090  32.6252730  60.5811570  11.6361480
  33.8780000  59.9806330  11.0345460  28.8804130  61.7142960   5.3315940
  29.2327950  61.1171090   4.6717310  27.9966460  61.3887190   5.5024190
  24.9667410  62.4740650   2.7386350  25.6538540  63.0209860   3.1193940
  24.1799830  63.0181380   2.7735960  24.2694620  59.4786680   2.3511710
  24.7257400  60.2891930   2.5771900  23.9182830  59.1609820   3.1830200
  26.5727230  64.9893020   9.5804010  27.2169450  65.1952400  10.2577430
  26.9356670  64.2281420   9.1274860  20.1706400  49.8224330   2.8234230
  20.0421030  49.8142230   3.7719150  19.3468420  50.1607420   2.4725240
  27.8459310  62.9925370   8.2981460  28.4881540  62.2918530   8.4113630
  28.3708660  63.7723810   8.1178350  29.6196930  63.7920270  11.5017520
  29.9553170  64.3786960  12.1795440  28.6997270  63.6612980  11.7315310
  17.1700330  51.5815450  12.2840930  16.4558850  51.7812370  12.8893540
  17.5895370  50.8055020  12.6555730  17.4572920  65.5695710  13.2707460
  17.5664040  64.6290450  13.1302850  16.8053480  65.8350460  12.6221190
  25.4485510  63.8411600  14.6705580  25.1282380  63.1220840  15.2151270
  24.7743870  64.5166670  14.7441640  28.6639110  54.0737760  10.0342380
  29.0319930  53.2532970  10.3621950  27.8037310  54.1339650  10.4498030
  23.9985170  55.3080650   2.2587820  23.2901320  55.7766990   2.7001430
  24.2829650  54.6502660   2.8933010  25.6241100  56.7277350  10.2580350
  26.1226350  57.2023170  10.9232200  25.7664050  55.8040870  10.4650380
  28.0300600  52.0331310   3.6983610  27.9068380  52.0517440   2.7493120
  28.9785160  52.0810250   3.8182010  25.1177390  67.2686610   2.9711590
  25.3718890  67.2308000   2.0490960  24.1689870  67.1419940   2.9639840
  32.8307960  52.9445310  11.1008740  32.3281560  53.6850710  11.4402550
  33.6464620  53.3329310  10.7845530  31.1229970  58.1878490   4.5470100
  30.1820110  58.2028720   4.7217790  31.4374040  57.4014450   4.9930400
  33.1255550  65.3587340   6.2224360  33.2502970  66.1818510   6.6948170
  33.9921110  65.1478070   5.8748510  20.5973080  67.4518550   5.8941490
  21.3335560  66.9034010   6.1650060  20.9814000  68.3174560   5.7547480
  17.4818560  63.5192120   1.7683000  16.5558340  63.7613260   1.7588410
  17.9474990  64.3466380   1.6467750  19.6031360  66.6364620  15.0827070
  20.4044090  66.9576670  15.4962470  19.0883180  66.2760200  15.8046980
  28.4395990  62.7444490  15.0302480  27.8334150  62.7676090  14.2898230
  28.1350100  62.0127530  15.5669730  29.8696360  66.4724780  13.6411890
  30.8218110  66.3882800  13.5912130  29.7224580  67.1366490  14.3145680
  17.3229170  59.1238080  14.0263120  17.8268190  58.5445360  14.5979350
  16.5836590  59.4078310  14.5639490  24.3767110  60.5309070  13.5598640
  23.6112780  61.0994070  13.4753310  24.5583070  60.2385280  12.6666870
  31.5190460  62.2614400  14.1173660  32.2599930  62.5990160  13.6141120
  30.7563140  62.4306460  13.5643430  19.3552250  57.2667670  14.9213190
  19.3957590  56.9681540  15.8298420  20.2097750  57.6675280  14.7620710
  21.2958060  55.8459770  12.8887680  20.7654520  55.3550720  12.2611020
  21.9646130  56.2743970  12.3545610  30.1936120  60.3129230  12.6528870
  30.6077140  60.4674310  13.5019290  29.2587120  60.4384450  12.8154650
  30.6658290  57.6525390  14.6568020  31.2479060  56.8977710  14.5688500
  30.8420060  58.1832830  13.8799500  24.5491800  51.3695380  10.0012360
  24.1009100  51.3919640   9.1557910  23.9157000  50.9714400  10.5982660
  24.9551350  60.2649710  10.6224800  25.3739460  61.1082440  10.4501040
  24.0359980  60.4021750  10.3931580  27.2915250  57.9965890  12.0062640
  27.4111460  57.4007030  12.7457480  28.1509250  58.0335580  11.5863940
  29.6303150  58.5503080  10.5825150  29.1038370  59.0745700   9.9790290
  29.9734490  59.1830470  11.2134880  22.8058770  66.5702720  11.7382530
  22.2679860  67.2948780  11.4191230  23.0592730  66.0933060  10.9479870
  24.0584020  54.5387240  13.2638460  24.6483710  54.2303090  13.9516280
  23.2404260  54.0666990  13.4198360  28.8777450  54.1553050  13.4971480
  28.1892970  53.4934590  13.4321470  29.5983470  53.7091320  13.9419940
  25.6620980  67.8053930  11.9969180  25.5879680  68.7089070  12.3041550
  24.7599820  67.4865830  11.9691250  17.0648270  65.1328520   5.3002800
  17.3951280  64.2649580   5.0681440  17.4939270  65.3387040   6.1307760
  21.6610190  63.4637530   2.9604770  21.3605730  63.3402500   3.8608680
  21.5547680  62.6046120   2.5520500  17.5538480  65.9999110   8.0384430
  17.1169470  66.1799910   8.8708580  18.1216160  66.7573730   7.8966150
  33.1900660  65.5016110  12.3261740  32.5902650  65.5608670  11.5825660
  33.3194560  64.5621090  12.4558590  17.3862910  58.5119340   4.3973310
  16.7311750  58.2430980   3.7533010  18.2240860  58.4023820   3.9475290
  34.8918540  60.8431510   5.0107580  35.2627370  60.0598830   4.6043550
  35.5320470  61.5320610   4.8324880  31.8752300  62.2268090  10.4237900
  31.0612140  62.6565250  10.6863690  32.2826500  62.8386500   9.8106950
  33.8343080  58.2184770   2.3167600  33.4586680  57.4512700   1.8848890
  33.1046200  58.6007470   2.8042530  18.4238840  58.8971910   8.9376650
  18.7911880  58.8099310   9.8172670  17.8549660  58.1338460   8.8383510
  33.2242700  57.3656290  11.9507120  32.9928790  57.1369040  11.0505070
  33.4847250  58.2855840  11.9052010  17.9754840  55.8081000  12.8435070
  17.0810890  55.7747760  13.1828780  18.5152390  56.0067790  13.6086320
  31.6630770  52.5912720  14.7286820  32.5400950  52.5996120  15.1120820
  31.6751610  51.8543560  14.1179170  33.1094040  56.4442260   5.6174840
  33.6331520  55.9504910   4.9865010  33.6953460  56.5792620   6.3622410
  33.2883760  56.5282130   9.1394390  32.3386470  56.4945670   9.2539380
  33.4696770  57.4382240   8.9044160  18.4794550  50.0829330   7.1918290
  19.1270740  49.5326710   6.7513450  18.8996390  50.3372480   8.0134100
  34.0281170  54.3376560   4.0904930  33.9180450  54.1832600   5.0287200
  34.7888760  53.8097500   3.8480340  32.3746890  50.2770690  10.5487930
  33.0119110  50.8904830  10.9147120  32.5221780  50.3131350   9.6037160
  31.9328350  66.9786690   3.9506170  32.5287420  66.6571260   3.2740590
  32.1906500  66.5058510   4.7419440  18.2326550  50.2385000   9.9343610
  17.8841370  50.6948820  10.7001790  17.9014250  49.3442130  10.0166040
  19.8390920  63.4104600  14.0996800  19.7960550  63.0397510  14.9811260
  19.9701930  64.3482170  14.2398620  23.5396950  64.9664190   9.7006520
  23.2988310  65.2338750   8.8137040  24.4799590  65.1369920   9.7557380
  25.7451370  51.4296880  13.4563030  25.6840260  52.0218710  14.2058440
  26.6851750  51.3222840  13.3113290  28.3825930  51.0866940  13.0955320
  28.9966340  51.4046230  12.4336400  28.9275490  50.6015530  13.7151180
  34.8001110  66.9858570  10.5017160  34.3059390  67.3827440   9.7844290
  34.1914400  66.3607780  10.8954440  19.6778950  66.3566850  11.2194580
  19.0839270  66.2251550  11.9584620  19.6702790  65.5204990  10.7536680
  29.1233970  49.6499080   9.4224610  28.2493810  49.9834190   9.2197540
  29.0144720  49.1772260  10.2476480  30.0305950  51.8569950  10.8066330
  29.7019310  51.0421710  10.4268060  30.9788250  51.8139760  10.6832020
  32.4840560  67.6281990   7.7803900  32.0243530  68.3797800   7.4061920
  31.8553020  66.9088460   7.7218700  19.3091180  63.7225230  10.1702620
  18.5825240  63.1030520  10.1028570  19.3700330  64.1165840   9.3000700
  22.9136280  65.9370230   6.9552030  23.4301300  65.3257590   6.4300290
  23.5633660  66.4399010   7.4463040  25.6531780  66.8278720   7.7821010
  25.9409590  66.5733020   6.9054020  26.1655000  66.2756080   8.3726580
  26.8708790  50.5668920   8.3617520  26.0880580  51.0414420   8.6414280
  26.5771720  49.6623750   8.2530700  31.4229860  51.2692020   6.4066610
  31.8637950  51.2137120   5.5588210  31.1537450  52.1850030   6.4776790
  33.2868430  50.9007260   4.4175430  33.2256830  49.9568480   4.2706450
  34.0660460  51.0087350   4.9628890  17.5921180  67.0399620   3.3799380
  17.4243220  66.4070300   4.0781270  16.7255690  67.2459020   3.0293570
  24.7563010  52.9855670   3.8733550  23.9437520  52.6112560   3.5329430
  25.2604650  52.2300750   4.1754740  29.2587990  49.6498120   5.1116620
  29.8617360  50.2218330   5.5865140  28.5180980  50.2137560   4.8890520
  22.7812190  51.1355590   2.4778600  22.1514930  50.4342900   2.6448730
  22.2417330  51.8959720   2.2611760  25.7204140  67.7494820  15.1489210
  26.6471450  67.5139090  15.1925170  25.7054570  68.5766820  14.6675240
  33.9549200  67.2920390   2.1463460  34.1301390  66.6058130   1.5024380
  33.2570770  67.8167440   1.7540130  29.5083210  49.8293150  15.4911560
  29.3948660  50.1487760  16.3863080  30.3252950  50.2305660  15.1948840
  32.2881700  66.9764680  14.9730250  33.0807020  66.4813910  14.7656210
  32.5814850  67.6554820  15.5805860  28.4141360  39.0742130  98.5007240
  28.3335410  38.1596740  98.2298950  28.0005780  39.5709200  97.7946950
  26.5459400  40.8521150 100.3816510  25.7701500  40.3721590 100.6715080
  27.1972330  40.1726800 100.2072670  20.5625230  41.1640960 101.2592270
  19.7310110  40.9089670 101.6588780  21.1706210  41.2351730 101.9950190
  30.5666830  45.2581340  99.1615640  30.1048360  44.4868580  99.4902810
  31.3792380  45.2847410  99.6668090  20.5426490  45.1981050 101.4550290
  20.8454530  44.3078790 101.2760510  21.2870080  45.7551270 101.2272540
  18.9717180  36.1242850  95.0434660  18.0833880  36.4658820  94.9414540
  19.2558370  35.9243170  94.1515490  16.9350190  38.7248500 100.9274360
  17.5066300  37.9570700 100.9278000  16.9351730  39.0237260 100.0180970
  26.7930140  47.5439350  98.7819630  26.1741580  47.9996850  98.2114070
  27.6481920  47.6990810  98.3809330  25.9868390  43.5278340 100.3886670
  25.9176670  42.5868280 100.2275800  26.7488250  43.6179750 100.9609240
  18.1775060  34.1332860 102.7143290  17.9977900  33.2358610 102.9946050
  17.7755140  34.6804730 103.3890240  27.0173560  36.3348720 100.6155600
  27.3938380  35.4620600 100.5029270  26.9193070  36.6707420  99.7246040
  21.1478570  34.7074350  96.0773040  21.2545320  35.6078080  96.3841800
  20.2370930  34.6592320  95.7867690  30.7997680  33.8299160  97.5483940
  31.6207300  33.3395730  97.5909420  30.8331760  34.4196820  98.3015780
  18.7961730  36.6293360 101.3225630  19.4771840  36.8931730 101.9413030
  18.4809780  35.7894230 101.6563640  22.9886300  37.6760720 100.4098220
  23.4964520  38.1741690 101.0503240  23.5199540  36.8995920 100.2337580
  35.0897230  35.8465910 104.1127570  34.3849400  36.2347620 103.5942680
  35.3555150  36.5416200 104.7148500  21.2722400  32.3159280 104.6761640
  21.2740840  32.8331670 103.8707540  20.4426710  31.8389460 104.6531570
  27.6593490  42.4278590  96.1751540  27.0410760  42.8928040  95.6114260
  28.1716740  43.1206070  96.5921050  22.5225250  41.9554460 102.8535140
  22.1894630  42.5823380 103.4956210  22.6991930  42.4816340 102.0736810
  31.0359160  35.7699540 100.3211480  30.3314730  36.0584430 100.9014590
  31.3971320  36.5799650  99.9611040  20.9537730  34.0269240 102.6832090
  21.2954540  34.8711290 102.3885960  20.0153540  34.1752980 102.7997430
  21.7344350  43.9235260 104.6684320  22.3518350  44.5986340 104.3868770
  20.8737470  44.3323240 104.5771820  17.0276690  43.1135120  93.5491170
  16.6504670  43.6022220  92.8176070  17.2849760  43.7860400  94.1797700
  32.6521940  45.3874670 102.5838960  31.9685460  46.0573780 102.5755630
  33.1916230  45.5855320 101.8183820  34.1046080  35.2154330 100.7120690
  33.1570990  35.2493310 100.8436120  34.4296070  36.0293280 101.0970050
  24.6365620  31.5151510  99.0076680  24.9440600  30.9598400  98.2912180
  23.7066320  31.6495970  98.8249670  30.1880680  47.2318800 101.2984140
  30.2007840  46.8281090 100.4306400  29.6355900  48.0066090 101.1945570
  31.4826100  43.9535020  96.3874310  31.3722430  43.0109350  96.5123730
  31.4794350  44.3150660  97.2737070  29.5866120  42.1348640 102.6266750
  30.0034910  41.9208750 101.7920210  30.3105940  42.3921430 103.1975370
  27.0246380  39.5800340  95.7436800  26.0975660  39.5137720  95.9725270
  27.1771200  40.5180470  95.6292040  27.0115460  35.8517340  92.7403960
  26.0719130  36.0131300  92.8256420  27.3298720  36.5703020  92.1939950
  33.5328220  40.5335860 102.7182990  32.7046850  40.6028950 102.2433120
  34.1278700  41.1190170 102.2498820  31.0543670  41.1420640  96.2472050
  30.4356090  40.8040190  95.5998350  31.0368120  40.4980400  96.9551240
  30.4970230  37.3205180 103.6637860  30.0841410  38.1458890 103.9177850
  29.7646180  36.7350220 103.4714220  22.6303020  40.1065080  98.5256530
  22.2260020  39.3942330  98.0302430  22.7166140  39.7618320  99.4144570
  23.0984720  43.7932640 100.6895740  22.8013010  43.1878110 100.0103520
  24.0484540  43.8309950 100.5785100  21.3431640  36.8808290 102.3055570
  21.8946230  36.9903630 101.5308820  21.8575150  37.2545890 103.0210800
  31.1870330  47.3664510 104.3518840  30.7100890  48.1736700 104.1591450
  30.5032120  46.7142840 104.5045050  29.2308370  40.3807450  93.2544800
  29.6701650  39.5429880  93.1082620  29.9436790  41.0136850  93.3408940
  27.3403750  45.3203520  97.2226040  27.7799660  46.0627850  96.8081430
  27.2790640  45.5630090  98.1465000  32.8125510  31.6350260  91.5685840
  32.4998170  31.7277090  92.4684910  33.5737980  32.2131290  91.5183270
  19.3307650  39.0010060  96.0263180  19.2105250  39.7272150  95.4144450
  19.0208540  38.2312970  95.5491090  16.9693020  42.1725200 101.8331820
  17.0473440  42.3073970 100.8887540  17.5834700  41.4641090 102.0259940
  18.2140650  43.8725390  98.2438000  17.8068730  44.0139980  97.3891600
  19.1053660  43.5885550  98.0409210  30.0073930  48.3072640  94.5789050
  29.8475070  48.0175580  95.4770880  29.8420640  47.5312770  94.0434280
  22.4862310  48.0871170  96.3560670  22.3104790  47.1706710  96.1428470
  21.6318050  48.4458460  96.5958470  29.7100060  45.8160200  93.1387050
  29.0165220  45.8137490  92.4789330  30.4522920  45.3919520  92.7081220
  29.2749990  47.4422910  97.2135540  29.7306940  46.6612290  97.5274160
  29.6142510  48.1529730  97.7576720  21.7971310  32.3445130  99.4086850
  21.3539460  33.1254670  99.0771370  22.3556300  32.6675020 100.1157790
  24.9130130  31.9655830  94.2892680  24.2884310  31.9615700  95.0145990
  24.8260250  31.0986790  93.8928650  23.8347210  32.8892460 101.2676450
  24.1319540  33.7955290 101.1868470  24.3832770  32.4011240 100.6536020
  21.5885530  37.4678700  97.1368100  21.3626450  37.2515870  98.0414720
  20.8078060  37.9007160  96.7914070  28.8183290  37.4742070  95.7358750
  28.2192180  38.1977870  95.5522370  29.3662900  37.4118850  94.9535200
  27.4248160  36.1105610  97.7662030  27.8177730  36.4277810  96.9530720
  27.7865010  35.2317490  97.8806550  16.4612330  32.7006410  99.9892230
  16.1725380  33.2709270 100.7017210  17.2058090  32.2210860 100.3523460
  16.6482560  36.6426530  91.1994950  16.5657230  37.5857290  91.3409940
  16.2965620  36.5001440  90.3207300  28.0103300  38.7011360 101.8612810
  27.2784420  39.2098170 102.2102910  27.6127640  37.8841340 101.5601590
  24.4480690  35.3765560 100.2665300  24.4516750  34.9355510  99.4169840
  25.3431810  35.6982890 100.3737120  20.2983070  35.2592050  99.2259510
  19.9583120  35.7367280  99.9826560  19.5360390  34.8057170  98.8660610
  24.5100840  36.3777640  93.2572060  24.6313660  36.3364120  94.2057880
  24.1249350  37.2401790  93.1018790  28.4729210  34.1545040 101.2735750
  28.4901950  34.6053690 102.1177600  28.2244790  33.2550680 101.4869190
  23.5222340  38.6878780  92.6555360  22.9539240  38.2397030  92.0291270
  24.2311340  39.0471560  92.1220510  24.7488660  39.4367340 102.0130710
  25.1158790  38.9625910 102.7592050  24.5593720  40.3108910 102.3539050
  17.6129150  34.1811030  98.1424180  17.3276070  33.8166700  98.9802800
  17.5508010  33.4491490  97.5287320  22.5388030  38.4775980 104.3314920
  22.2345100  39.3567960 104.5565280  23.4934490  38.5375770 104.3672360
  21.0669820  42.6836970  94.9281770  20.2932080  42.1434590  94.7680490
  21.7964450  42.1643580  94.5899530  31.8257800  41.6802330 100.7208160
  32.5456920  42.1757620 100.3304270  31.6239620  41.0020220 100.0762030
  27.2867740  33.0740290  94.8637550  26.4732350  32.5753460  94.7882860
  27.0929690  33.9138540  94.4473900  30.0016130  37.4459940  93.1599710
  30.8895750  37.7577170  92.9851050  29.9721220  36.5732190  92.7680290
  21.1107220  42.3517350  98.5660580  21.6285890  41.5485610  98.5117470
  20.6591240  42.2896490  99.4077410  25.9976720  43.6183630  93.8387880
  26.3392420  44.3625860  93.3431200  25.1689430  43.9314750  94.2012710
  32.2730400  38.7571780  92.6279570  32.1894120  39.1886000  91.7776010
  32.9924590  39.2170130  93.0606390  33.3017650  45.6114040  95.3561700
  32.6593810  44.9569660  95.6305420  32.9148310  46.0169130  94.5802370
  28.8804130  42.9399470  99.2033390  29.2327950  42.3427600  98.5434760
  27.9966460  42.6143700  99.3741640  24.9667410  43.6997160  96.6103800
  25.6538540  44.2466370  96.9911390  24.1799830  44.2437890  96.6453410
  17.1059810  39.3169980  92.1020880  17.9754660  39.5994780  92.3856800
  16.6150130  40.1305850  91.9869690  24.2694620  40.7043190  96.2229160
  24.7257400  41.5148440  96.4489350  23.9182830  40.3866330  97.0547650
  26.5727230  46.2149530 103.4521460  27.2169450  46.4208910 104.1294880
  26.9356670  45.4537930 102.9992310  20.1706400  31.0480840  96.6951680
  20.0421030  31.0398740  97.6436600  19.3468420  31.3863930  96.3442690
  27.8459310  44.2181880 102.1698910  28.4881540  43.5175040 102.2831080
  28.3708660  44.9980320 101.9895800  31.6915030  44.5030500  91.8938050
  31.4652610  43.7860940  92.4862690  31.3011230  44.2542940  91.0559800
  17.4731060  48.5297360  92.6682510  17.8328700  49.1286700  92.0139780
  17.3323400  49.0757250  93.4417540  31.2731280  42.4202440  93.5552210
  30.9852980  42.8815130  94.3430090  32.0683450  41.9600210  93.8236430
  23.4899680  45.9128560  93.4856180  23.4809780  46.6458250  92.8700690
  22.5698040  45.6660140  93.5783140  19.0906320  41.1343450  94.2302940
  18.4834270  41.8742350  94.2398240  19.5655670  41.2242810  93.4041140
  28.6639110  35.2994270 103.9059830  29.0319930  34.4789480 104.2339400
  27.8037310  35.3596160 104.3215480  32.0301140  34.2551210  94.7147390
  31.4014300  34.3596880  94.0005620  31.5353060  34.4747990  95.5041270
  26.4759280  45.9756800  92.1481370  26.5771260  45.7720790  91.2183350
  25.5761020  45.7215080  92.3529150  23.9985170  36.5337160  96.1305270
  23.2901320  37.0023500  96.5718880  24.2829650  35.8759170  96.7650460
  25.6241100  37.9533860 104.1297800  26.1226350  38.4279680 104.7949650
  25.7664050  37.0297380 104.3367830  28.0300600  33.2587820  97.5701060
  27.9068380  33.2773950  96.6210570  28.9785160  33.3066760  97.6899460
  25.1177390  48.4943120  96.8429040  25.3718890  48.4564510  95.9208410
  24.1689870  48.3676450  96.8357290  22.2020190  34.8422240  93.5055980
  23.0510720  35.2792390  93.4396170  21.8351460  35.1542500  94.3328040
  31.1229970  39.4135000  98.4187550  30.1820110  39.4285230  98.5935240
  31.4374040  38.6270960  98.8647850  21.1011610  41.0954600  91.9791510
  21.8674880  40.9835960  92.5416940  21.1786300  40.3992570  91.3268280
  19.7958370  38.5279670  92.6624400  19.8761960  37.5807180  92.7741800
  20.6878120  38.8586550  92.7685060  33.1255550  46.5843850 100.0941810
  33.2502970  47.4075020 100.5665620  33.9921110  46.3734580  99.7465960
  20.5973080  48.6775060  99.7658940  21.3335560  48.1290520 100.0367510
  20.9814000  49.5431070  99.6264930  17.4818560  44.7448630  95.6400450
  16.5558340  44.9869770  95.6305860  17.9474990  45.5722890  95.5185200
  23.7075390  47.8505370  91.5884510  24.5004000  48.1394200  91.1366300
  23.1879740  47.4197540  90.9096990  32.7605560  47.0775500  93.0121250
  32.4747070  46.6640640  92.1975430  32.5625110  48.0063210  92.8921770
  24.2252790  43.0708780  91.4526860  24.1203430  42.4561130  92.1788240
  24.0577010  42.5474670  90.6689870  27.4655520  42.1328810  92.0568850
  26.9165620  42.5798110  92.7011590  28.0874780  41.6278060  92.5806520
  23.1330640  41.0919730  93.9534150  23.5547060  40.9259600  94.7965540
  23.2581480  40.2819960  93.4589290  25.6458280  40.1157340  91.2011250
  26.1663940  39.4006360  90.8352400  26.2926680  40.7543210  91.5011760
  24.5491800  32.5951890 103.8729810  24.1009100  32.6176150 103.0275360
  23.9157000  32.1970910 104.4700110  24.9551350  41.4906220 104.4942250
  25.3739460  42.3338950 104.3218490  24.0359980  41.6278260 104.2649030
  22.0289540  37.1652960  90.8992310  21.8278600  36.3020320  91.2605650
  21.8581590  37.0786320  89.9613910  29.5077850  31.9761190  93.4279190
  29.7880140  31.1329090  93.7838610  28.7343580  32.2084300  93.9417940
  20.8272340  34.2653580  90.8870190  21.1298240  34.2721010  89.9789340
  21.5666930  33.9151440  91.3837850  24.0457270  33.2088200  91.8726390
  23.6979270  32.5312190  91.2928840  24.2470040  32.7477710  92.6869780
  26.2106310  48.1968950  93.4912990  27.1057100  48.5353920  93.5131750
  26.2423940  47.4748360  92.8637270  19.8502470  43.5696000  91.7199990
  20.2877340  44.1125670  92.3757570  20.3350200  42.7442950  91.7296330
  17.0648270  46.3585030  99.1720250  17.3951280  45.4906090  98.9398890
  17.4939270  46.5643550 100.0025210  21.6610190  44.6894040  96.8322220
  21.3605730  44.5659010  97.7326130  21.5547680  43.8302630  96.4237950
  17.5538480  47.2255620 101.9101880  17.1169470  47.4056420 102.7426030
  18.1216160  47.9830240 101.7683600  34.4302110  44.4690440  91.5348900
  33.5995070  44.5367090  92.0056130  34.6073940  45.3594560  91.2315760
  33.8858570  41.2137920  94.0383100  34.6477480  41.7834570  94.1442790
  33.9012940  40.6465120  94.8091410  17.3862910  39.7375850  98.2690760
  16.7311750  39.4687490  97.6250460  18.2240860  39.6280330  97.8192740
  34.8918540  42.0688020  98.8825030  35.2627370  41.2855340  98.4761000
  35.5320470  42.7577120  98.7042330  31.8752300  43.4524600 104.2955350
  31.0612140  43.8821760 104.5581140  32.2826500  44.0643010 103.6824400
  33.9377740  41.5072290  91.1955620  34.2126580  42.4151170  91.0674840
  33.7488480  41.4434820  92.1317610  30.3353350  34.5317140  92.4909250
  30.7538230  34.3448120  91.6505910  30.0289410  33.6796190  92.8012180
  33.8343080  39.4441280  96.1885050  33.4586680  38.6769210  95.7566340
  33.1046200  39.8263980  96.6759980  18.4238840  40.1228420 102.8094100
  18.7911880  40.0355820 103.6890120  17.8549660  39.3594970 102.7100960
  16.6000990  36.9474780  94.2116090  15.6965070  37.2104980  94.0367750
  17.0841610  37.2185950  93.4316050  33.1094040  37.6698770  99.4892290
  33.6331520  37.1761420  98.8582460  33.6953460  37.8049130 100.2339860
  33.2883760  37.7538640 103.0111840  32.3386470  37.7202180 103.1256830
  33.4696770  38.6638750 102.7761610  19.1428200  36.0040320  92.1210470
  19.8519900  35.5823540  91.6357750  18.4268140  36.0715550  91.4893820
  18.7902360  32.0579650  91.1613120  19.5130490  32.5988590  91.4794340
  19.0626880  31.7843070  90.2854660  32.5994010  36.9272120  95.4284700
  33.0953130  36.6942990  96.2133580  32.4010080  36.0883960  95.0122340
  18.4794550  31.3085840 101.0635740  19.1270740  30.7583220 100.6230900
  18.8996390  31.5628990 101.8851550  34.0281170  35.5633070  97.9622380
  33.9180450  35.4089110  98.9004650  34.7888760  35.0354010  97.7197790
  32.3746890  31.5027200 104.4205380  33.0119110  32.1161340 104.7864570
  32.5221780  31.5387860 103.4754610  34.9171440  33.3940990  91.2028520
  35.8420750  33.2622170  90.9946810  34.8947230  33.4733810  92.1564970
  34.9909930  34.1651650  93.8285230  34.1961430  34.0996770  94.3578140
  35.1953210  35.1002290  93.8170580  31.9328350  48.2043200  97.8223620
  32.5287420  47.8827770  97.1458040  32.1906500  47.7315020  98.6136890
  18.2326550  31.4641510 103.8061060  17.8841370  31.9205330 104.5719240
  17.9014250  30.5698640 103.8883490  23.5396950  46.1920700 103.5723970
  23.2988310  46.4595260 102.6854490  24.4799590  46.3626430 103.6274830
  34.8001110  48.2115080 104.3734610  34.3059390  48.6083950 103.6561740
  34.1914400  47.5864290 104.7671890  29.1233970  30.8755590 103.2942060
  28.2493810  31.2090700 103.0914990  29.0144720  30.4028770 104.1193930
  30.0305950  33.0826460 104.6783780  29.7019310  32.2678220 104.2985510
  30.9788250  33.0396270 104.5549470  32.4840560  48.8538500 101.6521350
  32.0243530  49.6054310 101.2779370  31.8553020  48.1344970 101.5936150
  19.3091180  44.9481740 104.0420070  18.5825240  44.3287030 103.9746020
  19.3700330  45.3422350 103.1718150  22.9136280  47.1626740 100.8269480
  23.4301300  46.5514100 100.3017740  23.5633660  47.6655520 101.3180490
  25.6531780  48.0535230 101.6538460  25.9409590  47.7989530 100.7771470
  26.1655000  47.5012590 102.2444030  26.8708790  31.7925430 102.2334970
  26.0880580  32.2670930 102.5131730  26.5771720  30.8880260 102.1248150
  31.4229860  32.4948530 100.2784060  31.8637950  32.4393630  99.4305660
  31.1537450  33.4106540 100.3494240  33.2868430  32.1263770  98.2892880
  33.2256830  31.1824990  98.1423900  34.0660460  32.2343860  98.8346340
  17.5921180  48.2656130  97.2516830  17.4243220  47.6326810  97.9498720
  16.7255690  48.4715530  96.9011020  18.2149200  32.0972910  94.7548690
  18.9728560  32.2101790  94.1812720  17.7526370  32.9342110  94.7092120
  24.7563010  34.2112180  97.7451000  23.9437520  33.8369070  97.4046880
  25.2604650  33.4557260  98.0472190  29.2587990  30.8754630  98.9834070
  29.8617360  31.4474840  99.4582590  28.5180980  31.4394070  98.7607970
  32.4022590  31.2776190  94.2574350  32.5973220  32.1759640  94.5241780
  31.6152460  31.0463270  94.7507300  19.1983880  46.9589360  94.6966970
  18.6731500  47.3397390  93.9928930  19.1228460  47.5840130  95.4176680
  20.5874350  32.6236960  93.2950660  21.1167110  31.8366760  93.1658610
  21.2202670  33.3028150  93.5286190  22.7812190  32.3612100  96.3496050
  22.1514930  31.6599410  96.5166180  22.2417330  33.1216230  96.1329210
  33.9549200  48.5176900  96.0180910  34.1301390  47.8314640  95.3741830
  33.2570770  49.0423950  95.6257580  21.7976850  48.9071740  93.5716220
  22.5295670  48.6231020  93.0240110  22.0570520  48.6685020  94.4615600
  20.9591640  45.0236470  93.5762550  20.3300520  45.4921570  94.1248380
  21.0739470  44.1785690  94.0108740  26.5459400  40.8521150  81.6073020
  25.7701500  40.3721590  81.8971590  27.1972330  40.1726800  81.4329180
  20.5625230  41.1640960  82.4848780  19.7310110  40.9089670  82.8845290
  21.1706210  41.2351730  83.2206700  30.5666830  45.2581340  80.3872150
  30.1048360  44.4868580  80.7159320  31.3792380  45.2847410  80.8924600
  20.5426490  45.1981050  82.6806800  20.8454530  44.3078790  82.5017020
  21.2870080  45.7551270  82.4529050  18.9717180  36.1242850  76.2691170
  18.0833880  36.4658820  76.1671050  19.2558370  35.9243170  75.3772000
  16.9350190  38.7248500  82.1530870  17.5066300  37.9570700  82.1534510
  16.9351730  39.0237260  81.2437480  26.7930140  47.5439350  80.0076140
  26.1741580  47.9996850  79.4370580  27.6481920  47.6990810  79.6065840
  25.9868390  43.5278340  81.6143180  25.9176670  42.5868280  81.4532310
  26.7488250  43.6179750  82.1865750  18.1775060  34.1332860  83.9399800
  17.9977900  33.2358610  84.2202560  17.7755140  34.6804730  84.6146750
  27.0173560  36.3348720  81.8412110  27.3938380  35.4620600  81.7285780
  26.9193070  36.6707420  80.9502550  21.1478570  34.7074350  77.3029550
  21.2545320  35.6078080  77.6098310  20.2370930  34.6592320  77.0124200
  30.7997680  33.8299160  78.7740450  31.6207300  33.3395730  78.8165930
  30.8331760  34.4196820  79.5272290  18.7961730  36.6293360  82.5482140
  19.4771840  36.8931730  83.1669540  18.4809780  35.7894230  82.8820150
  22.9886300  37.6760720  81.6354730  23.4964520  38.1741690  82.2759750
  23.5199540  36.8995920  81.4594090  35.0897230  35.8465910  85.3384080
  34.3849400  36.2347620  84.8199190  35.3555150  36.5416200  85.9405010
  21.2722400  32.3159280  85.9018150  21.2740840  32.8331670  85.0964050
  20.4426710  31.8389460  85.8788080  22.5225250  41.9554460  84.0791650
  22.1894630  42.5823380  84.7212720  22.6991930  42.4816340  83.2993320
  31.0359160  35.7699540  81.5467990  30.3314730  36.0584430  82.1271100
  31.3971320  36.5799650  81.1867550  20.9537730  34.0269240  83.9088600
  21.2954540  34.8711290  83.6142470  20.0153540  34.1752980  84.0253940
  21.7344350  43.9235260  85.8940830  22.3518350  44.5986340  85.6125280
  20.8737470  44.3323240  85.8028330  17.0276690  43.1135120  74.7747680
  16.6504670  43.6022220  74.0432580  17.2849760  43.7860400  75.4054210
  32.6521940  45.3874670  83.8095470  31.9685460  46.0573780  83.8012140
  33.1916230  45.5855320  83.0440330  34.1046080  35.2154330  81.9377200
  33.1570990  35.2493310  82.0692630  34.4296070  36.0293280  82.3226560
  24.6365620  31.5151510  80.2333190  24.9440600  30.9598400  79.5168690
  23.7066320  31.6495970  80.0506180  30.1880680  47.2318800  82.5240650
  30.2007840  46.8281090  81.6562910  29.6355900  48.0066090  82.4202080
  31.4826100  43.9535020  77.6130820  31.3722430  43.0109350  77.7380240
  31.4794350  44.3150660  78.4993580  29.5866120  42.1348640  83.8523260
  30.0034910  41.9208750  83.0176720  30.3105940  42.3921430  84.4231880
  33.5328220  40.5335860  83.9439500  32.7046850  40.6028950  83.4689630
  34.1278700  41.1190170  83.4755330  31.0543670  41.1420640  77.4728560
  30.4356090  40.8040190  76.8254860  31.0368120  40.4980400  78.1807750
  30.4970230  37.3205180  84.8894370  30.0841410  38.1458890  85.1434360
  29.7646180  36.7350220  84.6970730  23.0984720  43.7932640  81.9152250
  22.8013010  43.1878110  81.2360030  24.0484540  43.8309950  81.8041610
  21.3431640  36.8808290  83.5312080  21.8946230  36.9903630  82.7565330
  21.8575150  37.2545890  84.2467310  31.1870330  47.3664510  85.5775350
  30.7100890  48.1736700  85.3847960  30.5032120  46.7142840  85.7301560
  22.1903150  43.5314330  88.5660050  21.2931680  43.7554300  88.8133450
  22.2156020  43.6549270  87.6171450  21.0174370  40.4027650  87.1417420
  20.8782140  41.2750450  87.5104820  20.1355730  40.0600460  86.9965360
  27.3403750  45.3203520  78.4482550  27.7799660  46.0627850  78.0337940
  27.2790640  45.5630090  79.3721510  22.8154720  46.3449350  89.3502570
  22.7870150  46.7492300  88.4831000  22.6519690  45.4159710  89.1874170
  32.8125510  31.6350260  72.7942350  32.4998170  31.7277090  73.6941420
  33.5737980  32.2131290  72.7439780  34.7669540  47.1276450  90.6466740
  35.2429260  47.6059340  91.3255820  35.3876700  47.0593940  89.9212240
  16.9693020  42.1725200  83.0588330  17.0473440  42.3073970  82.1144050
  17.5834700  41.4641090  83.2516450  18.2140650  43.8725390  79.4694510
  17.8068730  44.0139980  78.6148110  19.1053660  43.5885550  79.2665720
  34.1702790  44.3189300  87.8066750  34.2965850  44.0801180  86.8883930
  34.2124170  43.4873840  88.2788830  28.0319530  48.0217300  86.3761560
  28.5464200  47.9325310  87.1783990  27.1888610  48.3677000  86.6689470
  29.2749990  47.4422910  78.4392050  29.7306940  46.6612290  78.7530670
  29.6142510  48.1529730  78.9833230  34.0226800  36.3721760  88.7716490
  33.4071070  36.8801430  88.2431950  33.7023220  35.4720090  88.7142430
  17.0252540  43.2139370  85.5982790  17.1883580  42.7444730  84.7802160
  17.4904990  42.7062930  86.2631630  21.7971310  32.3445130  80.6343360
  21.3539460  33.1254670  80.3027880  22.3556300  32.6675020  81.3414300
  26.0841120  35.2113650  86.2378680  25.6220490  35.4196670  87.0498620
  25.6819230  34.3973000  85.9349350  31.0845630  36.4322600  87.3675340
  30.2339220  36.1328350  87.6884410  30.9247420  36.6764610  86.4559160
  28.1795340  37.9324350  89.4674130  28.5048750  37.0988100  89.1276360
  28.9675670  38.4552870  89.6152460  24.9130130  31.9655830  75.5149190
  24.2884310  31.9615700  76.2402500  24.8260250  31.0986790  75.1185160
  23.8347210  32.8892460  82.4932960  24.1319540  33.7955290  82.4124980
  24.3832770  32.4011240  81.8792530  24.0284740  38.3664280  89.0284880
  23.9328340  37.4259010  88.8785280  24.8716720  38.5879350  88.6332950
  27.4248160  36.1105610  78.9918540  27.8177730  36.4277810  78.1787230
  27.7865010  35.2317490  79.1063060  19.1595280  34.7777950  87.1818660
  18.7658670  35.6253160  87.3891440  18.4713680  34.1404320  87.3727300
  25.7340330  34.8612920  90.2515400  25.0438650  34.6685120  90.8861490
  26.4772630  35.1447560  90.7839700  16.4612330  32.7006410  81.2148740
  16.1725380  33.2709270  81.9273720  17.2058090  32.2210860  81.5779970
  16.6482560  36.6426530  72.4251460  16.5657230  37.5857290  72.5666450
  16.2965620  36.5001440  71.5463810  28.0103300  38.7011360  83.0869320
  27.2784420  39.2098170  83.4359420  27.6127640  37.8841340  82.7858100
  24.4480690  35.3765560  81.4921810  24.4516750  34.9355510  80.6426350
  25.3431810  35.6982890  81.5993630  20.2983070  35.2592050  80.4516020
  19.9583120  35.7367280  81.2083070  19.5360390  34.8057170  80.0917120
  28.4729210  34.1545040  82.4992260  28.4901950  34.6053690  83.3434110
  28.2244790  33.2550680  82.7125700  31.8999960  31.5677220  88.3378640
  32.2245730  30.8366880  88.8636620  31.9356470  31.2490860  87.4359630
  18.5991520  42.5890800  87.7578600  18.2146310  41.9484470  88.3561560
  18.9103710  43.2926920  88.3273330  24.7488660  39.4367340  83.2387220
  25.1158790  38.9625910  83.9848560  24.5593720  40.3108910  83.5795560
  17.6129150  34.1811030  79.3680690  17.3276070  33.8166700  80.2059310
  17.5508010  33.4491490  78.7543830  22.5388030  38.4775980  85.5571430
  22.2345100  39.3567960  85.7821790  23.4934490  38.5375770  85.5928870
  31.8257800  41.6802330  81.9464670  32.5456920  42.1757620  81.5560780
  31.6239620  41.0020220  81.3018540  27.2867740  33.0740290  76.0894060
  26.4732350  32.5753460  76.0139370  27.0929690  33.9138540  75.6730410
  27.2076600  41.7511390  87.8333670  27.1413910  40.8307060  87.5791260
  26.5781740  41.8486830  88.5478310  30.0016130  37.4459940  74.3856220
  30.8895750  37.7577170  74.2107560  29.9721220  36.5732190  73.9936800
  18.5951760  39.3178720  86.7042790  18.2366700  39.9832570  87.2916130
  18.3006320  38.4862270  87.0755410  21.7964880  39.7762960  89.5882340
  21.4965020  39.9220140  88.6910160  22.5676120  39.2168250  89.4955730
  27.1393330  44.5731960  87.5837470  27.1537870  43.6412920  87.3656380
  26.4318430  44.6591720  88.2227240  32.2730400  38.7571780  73.8536080
  32.1894120  39.1886000  73.0032520  32.9924590  39.2170130  74.2862900
  33.3504540  41.2139300  86.9306050  32.6252730  41.8068080  86.7335440
  33.8780000  41.2062840  86.1319420  28.8804130  42.9399470  80.4289900
  29.2327950  42.3427600  79.7691270  27.9966460  42.6143700  80.5998150
  17.1059810  39.3169980  73.3277390  17.9754660  39.5994780  73.6113310
  16.6150130  40.1305850  73.2126200  26.5727230  46.2149530  84.6777970
  27.2169450  46.4208910  85.3551390  26.9356670  45.4537930  84.2248820
  20.1706400  31.0480840  77.9208190  20.0421030  31.0398740  78.8693110
  19.3468420  31.3863930  77.5699200  27.8459310  44.2181880  83.3955420
  28.4881540  43.5175040  83.5087590  28.3708660  44.9980320  83.2152310
  29.6196930  45.0176780  86.5991480  29.9553170  45.6043470  87.2769400
  28.6997270  44.8869490  86.8289270  17.4731060  48.5297360  73.8939020
  17.8328700  49.1286700  73.2396290  17.3323400  49.0757250  74.6674050
  17.1700330  32.8071960  87.3814890  16.4558850  33.0068880  87.9867500
  17.5895370  32.0311530  87.7529690  31.2731280  42.4202440  74.7808720
  30.9852980  42.8815130  75.5686600  32.0683450  41.9600210  75.0492940
  17.4572920  46.7952220  88.3681420  17.5664040  45.8546960  88.2276810
  16.8053480  47.0606970  87.7195150  25.4485510  45.0668110  89.7679540
  25.1282380  44.3477350  90.3125230  24.7743870  45.7423180  89.8415600
  28.6639110  35.2994270  85.1316340  29.0319930  34.4789480  85.4595910
  27.8037310  35.3596160  85.5471990  32.0301140  34.2551210  75.9403900
  31.4014300  34.3596880  75.2262130  31.5353060  34.4747990  76.7297780
  25.6241100  37.9533860  85.3554310  26.1226350  38.4279680  86.0206160
  25.7664050  37.0297380  85.5624340  28.0300600  33.2587820  78.7957570
  27.9068380  33.2773950  77.8467080  28.9785160  33.3066760  78.9155970
  25.1177390  48.4943120  78.0685550  25.3718890  48.4564510  77.1464920
  24.1689870  48.3676450  78.0613800  22.2020190  34.8422240  74.7312490
  23.0510720  35.2792390  74.6652680  21.8351460  35.1542500  75.5584550
  32.8307960  34.1701820  86.1982700  32.3281560  34.9107220  86.5376510
  33.6464620  34.5585820  85.8819490  31.1229970  39.4135000  79.6444060
  30.1820110  39.4285230  79.8191750  31.4374040  38.6270960  80.0904360
  19.7958370  38.5279670  73.8880910  19.8761960  37.5807180  73.9998310
  20.6878120  38.8586550  73.9941570  33.1255550  46.5843850  81.3198320
  33.2502970  47.4075020  81.7922130  33.9921110  46.3734580  80.9722470
  20.5973080  48.6775060  80.9915450  21.3335560  48.1290520  81.2624020
  20.9814000  49.5431070  80.8521440  17.4818560  44.7448630  76.8656960
  16.5558340  44.9869770  76.8562370  17.9474990  45.5722890  76.7441710
  19.6031360  47.8621130  90.1801030  20.4044090  48.1833180  90.5936430
  19.0883180  47.5016710  90.9020940  28.4395990  43.9701000  90.1276440
  27.8334150  43.9932600  89.3872190  28.1350100  43.2384040  90.6643690
  29.8696360  47.6981290  88.7385850  30.8218110  47.6139310  88.6886090
  29.7224580  48.3623000  89.4119640  17.3229170  40.3494590  89.1237080
  17.8268190  39.7701870  89.6953310  16.5836590  40.6334820  89.6613450
  24.3767110  41.7565580  88.6572600  23.6112780  42.3250580  88.5727270
  24.5583070  41.4641790  87.7640830  31.5190460  43.4870910  89.2147620
  32.2599930  43.8246670  88.7115080  30.7563140  43.6562970  88.6617390
  19.3552250  38.4924180  90.0187150  19.3957590  38.1938050  90.9272380
  20.2097750  38.8931790  89.8594670  21.2958060  37.0716280  87.9861640
  20.7654520  36.5807230  87.3584980  21.9646130  37.5000480  87.4519570
  30.1936120  41.5385740  87.7502830  30.6077140  41.6930820  88.5993250
  29.2587120  41.6640960  87.9128610  30.6658290  38.8781900  89.7541980
  31.2479060  38.1234220  89.6662460  30.8420060  39.4089340  88.9773460
  21.7830360  34.0378650  88.0658930  21.6887230  33.4199400  87.3409800
  21.2027750  34.7644940  87.8388840  24.5491800  32.5951890  85.0986320
  24.1009100  32.6176150  84.2531870  23.9157000  32.1970910  85.6956620
  24.9551350  41.4906220  85.7198760  25.3739460  42.3338950  85.5475000
  24.0359980  41.6278260  85.4905540  27.2915250  39.2222400  87.1036600
  27.4111460  38.6263540  87.8431440  28.1509250  39.2592090  86.6837900
  29.6303150  39.7759590  85.6799110  29.1038370  40.3002210  85.0764250
  29.9734490  40.4086980  86.3108840  22.8058770  47.7959230  86.8356490
  22.2679860  48.5205290  86.5165190  23.0592730  47.3189570  86.0453830
  24.0584020  35.7643750  88.3612420  24.6483710  35.4559600  89.0490240
  23.2404260  35.2923500  88.5172320  28.8777450  35.3809560  88.5945440
  28.1892970  34.7191100  88.5295430  29.5983470  34.9347830  89.0393900
  29.5077850  31.9761190  74.6535700  29.7880140  31.1329090  75.0095120
  28.7343580  32.2084300  75.1674450  20.8272340  34.2653580  72.1126700
  21.1298240  34.2721010  71.2045850  21.5666930  33.9151440  72.6094360
  25.6620980  49.0310440  87.0943140  25.5879680  49.9345580  87.4015510
  24.7599820  48.7122340  87.0665210  24.0457270  33.2088200  73.0982900
  23.6979270  32.5312190  72.5185350  24.2470040  32.7477710  73.9126290
  17.0648270  46.3585030  80.3976760  17.3951280  45.4906090  80.1655400
  17.4939270  46.5643550  81.2281720  17.5538480  47.2255620  83.1358390
  17.1169470  47.4056420  83.9682540  18.1216160  47.9830240  82.9940110
  33.1900660  46.7272620  87.4235700  32.5902650  46.7865180  86.6799620
  33.3194560  45.7877600  87.5532550  33.8858570  41.2137920  75.2639610
  34.6477480  41.7834570  75.3699300  33.9012940  40.6465120  76.0347920
  17.3862910  39.7375850  79.4947270  16.7311750  39.4687490  78.8506970
  18.2240860  39.6280330  79.0449250  34.8918540  42.0688020  80.1081540
  35.2627370  41.2855340  79.7017510  35.5320470  42.7577120  79.9298840
  31.8752300  43.4524600  85.5211860  31.0612140  43.8821760  85.7837650
  32.2826500  44.0643010  84.9080910  33.9377740  41.5072290  72.4212130
  34.2126580  42.4151170  72.2931350  33.7488480  41.4434820  73.3574120
  30.3353350  34.5317140  73.7165760  30.7538230  34.3448120  72.8762420
  30.0289410  33.6796190  74.0268690  33.8343080  39.4441280  77.4141560
  33.4586680  38.6769210  76.9822850  33.1046200  39.8263980  77.9016490
  18.4238840  40.1228420  84.0350610  18.7911880  40.0355820  84.9146630
  17.8549660  39.3594970  83.9357470  33.2242700  38.5912800  87.0481080
  32.9928790  38.3625550  86.1479030  33.4847250  39.5112350  87.0025970
  17.9754840  37.0337510  87.9409030  17.0810890  37.0004270  88.2802740
  18.5152390  37.2324300  88.7060280  31.6630770  33.8169230  89.8260780
  32.5400950  33.8252630  90.2094780  31.6751610  33.0800070  89.2153130
  16.6000990  36.9474780  75.4372600  15.6965070  37.2104980  75.2624260
  17.0841610  37.2185950  74.6572560  33.1094040  37.6698770  80.7148800
  33.6331520  37.1761420  80.0838970  33.6953460  37.8049130  81.4596370
  33.2883760  37.7538640  84.2368350  32.3386470  37.7202180  84.3513340
  33.4696770  38.6638750  84.0018120  19.1428200  36.0040320  73.3466980
  19.8519900  35.5823540  72.8614260  18.4268140  36.0715550  72.7150330
  18.7902360  32.0579650  72.3869630  19.5130490  32.5988590  72.7050850
  19.0626880  31.7843070  71.5111170  32.5994010  36.9272120  76.6541210
  33.0953130  36.6942990  77.4390090  32.4010080  36.0883960  76.2378850
  18.4794550  31.3085840  82.2892250  19.1270740  30.7583220  81.8487410
  18.8996390  31.5628990  83.1108060  34.0281170  35.5633070  79.1878890
  33.9180450  35.4089110  80.1261160  34.7888760  35.0354010  78.9454300
  32.3746890  31.5027200  85.6461890  33.0119110  32.1161340  86.0121080
  32.5221780  31.5387860  84.7011120  34.9171440  33.3940990  72.4285030
  35.8420750  33.2622170  72.2203320  34.8947230  33.4733810  73.3821480
  34.9909930  34.1651650  75.0541740  34.1961430  34.0996770  75.5834650
  35.1953210  35.1002290  75.0427090  31.9328350  48.2043200  79.0480130
  32.5287420  47.8827770  78.3714550  32.1906500  47.7315020  79.8393400
  18.2326550  31.4641510  85.0317570  17.8841370  31.9205330  85.7975750
  17.9014250  30.5698640  85.1140000  19.8390920  44.6361110  89.1970760
  19.7960550  44.2654020  90.0785220  19.9701930  45.5738680  89.3372580
  23.5396950  46.1920700  84.7980480  23.2988310  46.4595260  83.9111000
  24.4799590  46.3626430  84.8531340  25.7451370  32.6553390  88.5536990
  25.6840260  33.2475220  89.3032400  26.6851750  32.5479350  88.4087250
  28.3825930  32.3123450  88.1929280  28.9966340  32.6302740  87.5310360
  28.9275490  31.8272040  88.8125140  34.8001110  48.2115080  85.5991120
  34.3059390  48.6083950  84.8818250  34.1914400  47.5864290  85.9928400
  18.9047190  30.9917710  88.3068340  19.4530180  30.8105760  87.5434450
  18.9702500  30.2011820  88.8424650  19.6778950  47.5823360  86.3168540
  19.0839270  47.4508060  87.0558580  19.6702790  46.7461500  85.8510640
  29.1233970  30.8755590  84.5198570  28.2493810  31.2090700  84.3171500
  29.0144720  30.4028770  85.3450440  30.0305950  33.0826460  85.9040290
  29.7019310  32.2678220  85.5242020  30.9788250  33.0396270  85.7805980
  32.4840560  48.8538500  82.8777860  32.0243530  49.6054310  82.5035880
  31.8553020  48.1344970  82.8192660  19.3091180  44.9481740  85.2676580
  18.5825240  44.3287030  85.2002530  19.3700330  45.3422350  84.3974660
  22.9136280  47.1626740  82.0525990  23.4301300  46.5514100  81.5274250
  23.5633660  47.6655520  82.5437000  25.6531780  48.0535230  82.8794970
  25.9409590  47.7989530  82.0027980  26.1655000  47.5012590  83.4700540
  26.8708790  31.7925430  83.4591480  26.0880580  32.2670930  83.7388240
  26.5771720  30.8880260  83.3504660  31.4229860  32.4948530  81.5040570
  31.8637950  32.4393630  80.6562170  31.1537450  33.4106540  81.5750750
  33.2868430  32.1263770  79.5149390  33.2256830  31.1824990  79.3680410
  34.0660460  32.2343860  80.0602850  17.5921180  48.2656130  78.4773340
  17.4243220  47.6326810  79.1755230  16.7255690  48.4715530  78.1267530
  18.2149200  32.0972910  75.9805200  18.9728560  32.2101790  75.4069230
  17.7526370  32.9342110  75.9348630  24.7563010  34.2112180  78.9707510
  23.9437520  33.8369070  78.6303390  25.2604650  33.4557260  79.2728700
  29.2587990  30.8754630  80.2090580  29.8617360  31.4474840  80.6839100
  28.5180980  31.4394070  79.9864480  32.4022590  31.2776190  75.4830860
  32.5973220  32.1759640  75.7498290  31.6152460  31.0463270  75.9763810
  20.5874350  32.6236960  74.5207170  21.1167110  31.8366760  74.3915120
  21.2202670  33.3028150  74.7542700  22.7812190  32.3612100  77.5752560
  22.1514930  31.6599410  77.7422690  22.2417330  33.1216230  77.3585720
  25.7204140  48.9751330  90.2463170  26.6471450  48.7395600  90.2899130
  25.7054570  49.8023330  89.7649200  22.9067750  31.6396080  90.0105050
  22.6252020  32.1429680  89.2465870  23.2887450  30.8417830  89.6447180
  29.5083210  31.0549660  90.5885520  29.3948660  31.3744270  91.4837040
  30.3252950  31.4562170  90.2922800  32.2881700  48.2021190  90.0704210
  33.0807020  47.7070420  89.8630170  32.5814850  48.8811330  90.6779820
  20.5625230  41.1640960  63.7105290  19.7310110  40.9089670  64.1101800
  21.1706210  41.2351730  64.4463210  18.9717180  36.1242850  57.4947680
  18.0833880  36.4658820  57.3927560  19.2558370  35.9243170  56.6028510
  16.9350190  38.7248500  63.3787380  17.5066300  37.9570700  63.3791020
  16.9351730  39.0237260  62.4693990  18.1775060  34.1332860  65.1656310
  17.9977900  33.2358610  65.4459070  17.7755140  34.6804730  65.8403260
  27.0173560  36.3348720  63.0668620  27.3938380  35.4620600  62.9542290
  26.9193070  36.6707420  62.1759060  21.1478570  34.7074350  58.5286060
  21.2545320  35.6078080  58.8354820  20.2370930  34.6592320  58.2380710
  18.7961730  36.6293360  63.7738650  19.4771840  36.8931730  64.3926050
  18.4809780  35.7894230  64.1076660  22.9886300  37.6760720  62.8611240
  23.4964520  38.1741690  63.5016260  23.5199540  36.8995920  62.6850600
  35.0897230  35.8465910  66.5640590  34.3849400  36.2347620  66.0455700
  35.3555150  36.5416200  67.1661520  21.2722400  32.3159280  67.1274660
  21.2740840  32.8331670  66.3220560  20.4426710  31.8389460  67.1044590
  27.6593490  42.4278590  58.6264560  27.0410760  42.8928040  58.0627280
  28.1716740  43.1206070  59.0434070  22.5225250  41.9554460  65.3048160
  22.1894630  42.5823380  65.9469230  22.6991930  42.4816340  64.5249830
  31.0359160  35.7699540  62.7724500  30.3314730  36.0584430  63.3527610
  31.3971320  36.5799650  62.4124060  20.9537730  34.0269240  65.1345110
  21.2954540  34.8711290  64.8398980  20.0153540  34.1752980  65.2510450
  21.7344350  43.9235260  67.1197340  22.3518350  44.5986340  66.8381790
  20.8737470  44.3323240  67.0284840  17.0276690  43.1135120  56.0004190
  16.6504670  43.6022220  55.2689090  17.2849760  43.7860400  56.6310720
  24.6365620  31.5151510  61.4589700  24.9440600  30.9598400  60.7425200
  23.7066320  31.6495970  61.2762690  27.0246380  39.5800340  58.1949820
  26.0975660  39.5137720  58.4238290  27.1771200  40.5180470  58.0805060
  30.4970230  37.3205180  66.1150880  30.0841410  38.1458890  66.3690870
  29.7646180  36.7350220  65.9227240  22.6303020  40.1065080  60.9769550
  22.2260020  39.3942330  60.4815450  22.7166140  39.7618320  61.8657590
  21.3431640  36.8808290  64.7568590  21.8946230  36.9903630  63.9821840
  21.8575150  37.2545890  65.4723820  21.0174370  40.4027650  68.3673930
  20.8782140  41.2750450  68.7361330  20.1355730  40.0600460  68.2221870
  27.3403750  45.3203520  59.6739060  27.7799660  46.0627850  59.2594450
  27.2790640  45.5630090  60.5978020  19.3307650  39.0010060  58.4776200
  19.2105250  39.7272150  57.8657470  19.0208540  38.2312970  58.0004110
  16.9693020  42.1725200  64.2844840  17.0473440  42.3073970  63.3400560
  17.5834700  41.4641090  64.4772960  18.2140650  43.8725390  60.6951020
  17.8068730  44.0139980  59.8404620  19.1053660  43.5885550  60.4922230
  30.0073930  48.3072640  57.0302070  29.8475070  48.0175580  57.9283900
  29.8420640  47.5312770  56.4947300  22.4862310  48.0871170  58.8073690
  22.3104790  47.1706710  58.5941490  21.6318050  48.4458460  59.0471490
  29.2749990  47.4422910  59.6648560  29.7306940  46.6612290  59.9787180
  29.6142510  48.1529730  60.2089740  34.0226800  36.3721760  69.9973000
  33.4071070  36.8801430  69.4688460  33.7023220  35.4720090  69.9398940
  17.0252540  43.2139370  66.8239300  17.1883580  42.7444730  66.0058670
  17.4904990  42.7062930  67.4888140  21.7971310  32.3445130  61.8599870
  21.3539460  33.1254670  61.5284390  22.3556300  32.6675020  62.5670810
  31.0845630  36.4322600  68.5931850  30.2339220  36.1328350  68.9140920
  30.9247420  36.6764610  67.6815670  23.8347210  32.8892460  63.7189470
  24.1319540  33.7955290  63.6381490  24.3832770  32.4011240  63.1049040
  21.5885530  37.4678700  59.5881120  21.3626450  37.2515870  60.4927740
  20.8078060  37.9007160  59.2427090  27.4248160  36.1105610  60.2175050
  27.8177730  36.4277810  59.4043740  27.7865010  35.2317490  60.3319570
  19.1595280  34.7777950  68.4075170  18.7658670  35.6253160  68.6147950
  18.4713680  34.1404320  68.5983810  25.7340330  34.8612920  71.4771910
  25.0438650  34.6685120  72.1118000  26.4772630  35.1447560  72.0096210
  16.4612330  32.7006410  62.4405250  16.1725380  33.2709270  63.1530230
  17.2058090  32.2210860  62.8036480  16.6482560  36.6426530  53.6507970
  16.5657230  37.5857290  53.7922960  16.2965620  36.5001440  52.7720320
  24.4480690  35.3765560  62.7178320  24.4516750  34.9355510  61.8682860
  25.3431810  35.6982890  62.8250140  20.2983070  35.2592050  61.6772530
  19.9583120  35.7367280  62.4339580  19.5360390  34.8057170  61.3173630
  28.4729210  34.1545040  63.7248770  28.4901950  34.6053690  64.5690620
  28.2244790  33.2550680  63.9382210  23.5222340  38.6878780  55.1068380
  22.9539240  38.2397030  54.4804290  24.2311340  39.0471560  54.5733530
  31.8999960  31.5677220  69.5635150  32.2245730  30.8366880  70.0893130
  31.9356470  31.2490860  68.6616140  18.5991520  42.5890800  68.9835110
  18.2146310  41.9484470  69.5818070  18.9103710  43.2926920  69.5529840
  17.6129150  34.1811030  60.5937200  17.3276070  33.8166700  61.4315820
  17.5508010  33.4491490  59.9800340  22.5388030  38.4775980  66.7827940
  22.2345100  39.3567960  67.0078300  23.4934490  38.5375770  66.8185380
  21.0669820  42.6836970  57.3794790  20.2932080  42.1434590  57.2193510
  21.7964450  42.1643580  57.0412550  21.1107220  42.3517350  61.0173600
  21.6285890  41.5485610  60.9630490  20.6591240  42.2896490  61.8590430
  18.5951760  39.3178720  67.9299300  18.2366700  39.9832570  68.5172640
  18.3006320  38.4862270  68.3011920  21.7964880  39.7762960  70.8138850
  21.4965020  39.9220140  69.9166670  22.5676120  39.2168250  70.7212240
  33.3504540  41.2139300  68.1562560  32.6252730  41.8068080  67.9591950
  33.8780000  41.2062840  67.3575930  33.3017650  45.6114040  57.8074720
  32.6593810  44.9569660  58.0818440  32.9148310  46.0169130  57.0315390
  24.9667410  43.6997160  59.0616820  25.6538540  44.2466370  59.4424410
  24.1799830  44.2437890  59.0966430  17.1059810  39.3169980  54.5533900
  17.9754660  39.5994780  54.8369820  16.6150130  40.1305850  54.4382710
  24.2694620  40.7043190  58.6742180  24.7257400  41.5148440  58.9002370
  23.9182830  40.3866330  59.5060670  20.1706400  31.0480840  59.1464700
  20.0421030  31.0398740  60.0949620  19.3468420  31.3863930  58.7955710
  17.4731060  48.5297360  55.1195530  17.8328700  49.1286700  54.4652800
  17.3323400  49.0757250  55.8930560  17.1700330  32.8071960  68.6071400
  16.4558850  33.0068880  69.2124010  17.5895370  32.0311530  68.9786200
  17.4572920  46.7952220  69.5937930  17.5664040  45.8546960  69.4533320
  16.8053480  47.0606970  68.9451660  23.4899680  45.9128560  55.9369200
  23.4809780  46.6458250  55.3213710  22.5698040  45.6660140  56.0296160
  19.0906320  41.1343450  56.6815960  18.4834270  41.8742350  56.6911260
  19.5655670  41.2242810  55.8554160  28.6639110  35.2994270  66.3572850
  29.0319930  34.4789480  66.6852420  27.8037310  35.3596160  66.7728500
  23.9985170  36.5337160  58.5818290  23.2901320  37.0023500  59.0231900
  24.2829650  35.8759170  59.2163480  22.2020190  34.8422240  55.9569000
  23.0510720  35.2792390  55.8909190  21.8351460  35.1542500  56.7841060
  32.8307960  34.1701820  67.4239210  32.3281560  34.9107220  67.7633020
  33.6464620  34.5585820  67.1076000  21.1011610  41.0954600  54.4304530
  21.8674880  40.9835960  54.9929960  21.1786300  40.3992570  53.7781300
  19.7958370  38.5279670  55.1137420  19.8761960  37.5807180  55.2254820
  20.6878120  38.8586550  55.2198080  17.4818560  44.7448630  58.0913470
  16.5558340  44.9869770  58.0818880  17.9474990  45.5722890  57.9698220
  23.7075390  47.8505370  54.0397530  24.5004000  48.1394200  53.5879320
  23.1879740  47.4197540  53.3610010  32.7605560  47.0775500  55.4634270
  32.4747070  46.6640640  54.6488450  32.5625110  48.0063210  55.3434790
  17.3229170  40.3494590  70.3493590  17.8268190  39.7701870  70.9209820
  16.5836590  40.6334820  70.8869960  24.2252790  43.0708780  53.9039880
  24.1203430  42.4561130  54.6301260  24.0577010  42.5474670  53.1202890
  19.3552250  38.4924180  71.2443660  19.3957590  38.1938050  72.1528890
  20.2097750  38.8931790  71.0851180  23.1330640  41.0919730  56.4047170
  23.5547060  40.9259600  57.2478560  23.2581480  40.2819960  55.9102310
  21.2958060  37.0716280  69.2118150  20.7654520  36.5807230  68.5841490
  21.9646130  37.5000480  68.6776080  21.7830360  34.0378650  69.2915440
  21.6887230  33.4199400  68.5666310  21.2027750  34.7644940  69.0645350
  24.5491800  32.5951890  66.3242830  24.1009100  32.6176150  65.4788380
  23.9157000  32.1970910  66.9213130  22.0289540  37.1652960  53.3505330
  21.8278600  36.3020320  53.7118670  21.8581590  37.0786320  52.4126930
  24.0584020  35.7643750  69.5868930  24.6483710  35.4559600  70.2746750
  23.2404260  35.2923500  69.7428830  20.8272340  34.2653580  53.3383210
  21.1298240  34.2721010  52.4302360  21.5666930  33.9151440  53.8350870
  26.2106310  48.1968950  55.9426010  27.1057100  48.5353920  55.9644770
  26.2423940  47.4748360  55.3150290  19.8502470  43.5696000  54.1713010
  20.2877340  44.1125670  54.8270590  20.3350200  42.7442950  54.1809350
  17.0648270  46.3585030  61.6233270  17.3951280  45.4906090  61.3911910
  17.4939270  46.5643550  62.4538230  21.6610190  44.6894040  59.2835240
  21.3605730  44.5659010  60.1839150  21.5547680  43.8302630  58.8750970
  17.5538480  47.2255620  64.3614900  17.1169470  47.4056420  65.1939050
  18.1216160  47.9830240  64.2196620  17.3862910  39.7375850  60.7203780
  16.7311750  39.4687490  60.0763480  18.2240860  39.6280330  60.2705760
  18.4238840  40.1228420  65.2607120  18.7911880  40.0355820  66.1403140
  17.8549660  39.3594970  65.1613980  33.2242700  38.5912800  68.2737590
  32.9928790  38.3625550  67.3735540  33.4847250  39.5112350  68.2282480
  17.9754840  37.0337510  69.1665540  17.0810890  37.0004270  69.5059250
  18.5152390  37.2324300  69.9316790  31.6630770  33.8169230  71.0517290
  32.5400950  33.8252630  71.4351290  31.6751610  33.0800070  70.4409640
  16.6000990  36.9474780  56.6629110  15.6965070  37.2104980  56.4880770
  17.0841610  37.2185950  55.8829070  33.2883760  37.7538640  65.4624860
  32.3386470  37.7202180  65.5769850  33.4696770  38.6638750  65.2274630
  19.1428200  36.0040320  54.5723490  19.8519900  35.5823540  54.0870770
  18.4268140  36.0715550  53.9406840  18.7902360  32.0579650  53.6126140
  19.5130490  32.5988590  53.9307360  19.0626880  31.7843070  52.7367680
  18.4794550  31.3085840  63.5148760  19.1270740  30.7583220  63.0743920
  18.8996390  31.5628990  64.3364570  32.3746890  31.5027200  66.8718400
  33.0119110  32.1161340  67.2377590  32.5221780  31.5387860  65.9267630
  18.2326550  31.4641510  66.2574080  17.8841370  31.9205330  67.0232260
  17.9014250  30.5698640  66.3396510  25.7451370  32.6553390  69.7793500
  25.6840260  33.2475220  70.5288910  26.6851750  32.5479350  69.6343760
  28.3825930  32.3123450  69.4185790  28.9966340  32.6302740  68.7566870
  28.9275490  31.8272040  70.0381650  18.9047190  30.9917710  69.5324850
  19.4530180  30.8105760  68.7690960  18.9702500  30.2011820  70.0681160
  29.1233970  30.8755590  65.7455080  28.2493810  31.2090700  65.5428010
  29.0144720  30.4028770  66.5706950  30.0305950  33.0826460  67.1296800
  29.7019310  32.2678220  66.7498530  30.9788250  33.0396270  67.0062490
  19.3091180  44.9481740  66.4933090  18.5825240  44.3287030  66.4259040
  19.3700330  45.3422350  65.6231170  26.8708790  31.7925430  64.6847990
  26.0880580  32.2670930  64.9644750  26.5771720  30.8880260  64.5761170
  17.5921180  48.2656130  59.7029850  17.4243220  47.6326810  60.4011740
  16.7255690  48.4715530  59.3524040  18.2149200  32.0972910  57.2061710
  18.9728560  32.2101790  56.6325740  17.7526370  32.9342110  57.1605140
  24.7563010  34.2112180  60.1964020  23.9437520  33.8369070  59.8559900
  25.2604650  33.4557260  60.4985210  19.1983880  46.9589360  57.1479990
  18.6731500  47.3397390  56.4441950  19.1228460  47.5840130  57.8689700
  20.5874350  32.6236960  55.7463680  21.1167110  31.8366760  55.6171630
  21.2202670  33.3028150  55.9799210  22.7812190  32.3612100  58.8009070
  22.1514930  31.6599410  58.9679200  22.2417330  33.1216230  58.5842230
  22.9067750  31.6396080  71.2361560  22.6252020  32.1429680  70.4722380
  23.2887450  30.8417830  70.8703690  21.7976850  48.9071740  56.0229240
  22.5295670  48.6231020  55.4753130  22.0570520  48.6685020  56.9128620
  20.9591640  45.0236470  56.0275570  20.3300520  45.4921570  56.5761400
  21.0739470  44.1785690  56.4621760  29.5083210  31.0549660  71.8142030
  29.3948660  31.3744270  72.7093550  30.3252950  31.4562170  71.5179310
  16.9350190  38.7248500  44.6043890  17.5066300  37.9570700  44.6047530
  16.9351730  39.0237260  43.6950500  18.1775060  34.1332860  46.3912820
  17.9977900  33.2358610  46.6715580  17.7755140  34.6804730  47.0659770
  18.7961730  36.6293360  44.9995160  19.4771840  36.8931730  45.6182560
  18.4809780  35.7894230  45.3333170  21.2722400  32.3159280  48.3531170
  21.2740840  32.8331670  47.5477070  20.4426710  31.8389460  48.3301100
  20.9537730  34.0269240  46.3601620  21.2954540  34.8711290  46.0655490
  20.0153540  34.1752980  46.4766960  21.7344350  43.9235260  48.3453850
  22.3518350  44.5986340  48.0638300  20.8737470  44.3323240  48.2541350
  22.1903150  43.5314330  51.0173070  21.2931680  43.7554300  51.2646470
  22.2156020  43.6549270  50.0684470  21.0174370  40.4027650  49.5930440
  20.8782140  41.2750450  49.9617840  20.1355730  40.0600460  49.4478380
  22.8154720  46.3449350  51.8015590  22.7870150  46.7492300  50.9344020
  22.6519690  45.4159710  51.6387190  34.7669540  47.1276450  53.0979760
  35.2429260  47.6059340  53.7768840  35.3876700  47.0593940  52.3725260
  16.9693020  42.1725200  45.5101350  17.0473440  42.3073970  44.5657070
  17.5834700  41.4641090  45.7029470  18.2140650  43.8725390  41.9207530
  17.8068730  44.0139980  41.0661130  19.1053660  43.5885550  41.7178740
  17.0252540  43.2139370  48.0495810  17.1883580  42.7444730  47.2315180
  17.4904990  42.7062930  48.7144650  24.0284740  38.3664280  51.4797900
  23.9328340  37.4259010  51.3298300  24.8716720  38.5879350  51.0845970
  19.1595280  34.7777950  49.6331680  18.7658670  35.6253160  49.8404460
  18.4713680  34.1404320  49.8240320  16.4612330  32.7006410  43.6661760
  16.1725380  33.2709270  44.3786740  17.2058090  32.2210860  44.0292990
  18.5991520  42.5890800  50.2091620  18.2146310  41.9484470  50.8074580
  18.9103710  43.2926920  50.7786350  22.5388030  38.4775980  48.0084450
  22.2345100  39.3567960  48.2334810  23.4934490  38.5375770  48.0441890
  18.5951760  39.3178720  49.1555810  18.2366700  39.9832570  49.7429150
  18.3006320  38.4862270  49.5268430  21.7964880  39.7762960  52.0395360
  21.4965020  39.9220140  51.1423180  22.5676120  39.2168250  51.9468750
  17.1700330  32.8071960  49.8327910  16.4558850  33.0068880  50.4380520
  17.5895370  32.0311530  50.2042710  17.4572920  46.7952220  50.8194440
  17.5664040  45.8546960  50.6789830  16.8053480  47.0606970  50.1708170
  17.4818560  44.7448630  39.3169980  16.5558340  44.9869770  39.3075390
  17.9474990  45.5722890  39.1954730  19.6031360  47.8621130  52.6314050
  20.4044090  48.1833180  53.0449450  19.0883180  47.5016710  53.3533960
  17.3229170  40.3494590  51.5750100  17.8268190  39.7701870  52.1466330
  16.5836590  40.6334820  52.1126470  24.3767110  41.7565580  51.1085620
  23.6112780  42.3250580  51.0240290  24.5583070  41.4641790  50.2153850
  19.3552250  38.4924180  52.4700170  19.3957590  38.1938050  53.3785400
  20.2097750  38.8931790  52.3107690  21.2958060  37.0716280  50.4374660
  20.7654520  36.5807230  49.8098000  21.9646130  37.5000480  49.9032590
  21.7830360  34.0378650  50.5171950  21.6887230  33.4199400  49.7922820
  21.2027750  34.7644940  50.2901860  24.5491800  32.5951890  47.5499340
  24.1009100  32.6176150  46.7044890  23.9157000  32.1970910  48.1469640
  22.8058770  47.7959230  49.2869510  22.2679860  48.5205290  48.9678210
  23.0592730  47.3189570  48.4966850  24.0584020  35.7643750  50.8125440
  24.6483710  35.4559600  51.5003260  23.2404260  35.2923500  50.9685340
  17.0648270  46.3585030  42.8489780  17.3951280  45.4906090  42.6168420
  17.4939270  46.5643550  43.6794740  17.5538480  47.2255620  45.5871410
  17.1169470  47.4056420  46.4195560  18.1216160  47.9830240  45.4453130
  17.3862910  39.7375850  41.9460290  16.7311750  39.4687490  41.3019990
  18.2240860  39.6280330  41.4962270  18.4238840  40.1228420  46.4863630
  18.7911880  40.0355820  47.3659650  17.8549660  39.3594970  46.3870490
  17.9754840  37.0337510  50.3922050  17.0810890  37.0004270  50.7315760
  18.5152390  37.2324300  51.1573300  18.4794550  31.3085840  44.7405270
  19.1270740  30.7583220  44.3000430  18.8996390  31.5628990  45.5621080
  18.2326550  31.4641510  47.4830590  17.8841370  31.9205330  48.2488770
  17.9014250  30.5698640  47.5653020  19.8390920  44.6361110  51.6483780
  19.7960550  44.2654020  52.5298240  19.9701930  45.5738680  51.7885600
  18.9047190  30.9917710  50.7581360  19.4530180  30.8105760  49.9947470
  18.9702500  30.2011820  51.2937670  19.6778950  47.5823360  48.7681560
  19.0839270  47.4508060  49.5071600  19.6702790  46.7461500  48.3023660
  19.3091180  44.9481740  47.7189600  18.5825240  44.3287030  47.6515550
  19.3700330  45.3422350  46.8487680  17.5921180  48.2656130  40.9286360
  17.4243220  47.6326810  41.6268250  16.7255690  48.4715530  40.5780550
  19.1983880  46.9589360  38.3736500  18.6731500  47.3397390  37.6698460
  19.1228460  47.5840130  39.0946210  25.7204140  48.9751330  52.6976190
  26.6471450  48.7395600  52.7412150  25.7054570  49.8023330  52.2162220
  22.9067750  31.6396080  52.4618070  22.6252020  32.1429680  51.6978890
  23.2887450  30.8417830  52.0960200  30.0073930  48.3072640  19.4815090
  29.8475070  48.0175580  20.3796920  29.8420640  47.5312770  18.9460320
  23.5222340  38.6878780  17.5581400  22.9539240  38.2397030  16.9317310
  24.2311340  39.0471560  17.0246550  32.7605560  47.0775500  17.9147290
  32.4747070  46.6640640  17.1001470  32.5625110  48.0063210  17.7947810
  25.6458280  40.1157340  16.1037290  26.1663940  39.4006360  15.7378440
  26.2926680  40.7543210  16.4037800  20.8272340  34.2653580  15.7896230
  21.1298240  34.2721010  14.8815380  21.5666930  33.9151440  16.2863890
  34.4302110  44.4690440  16.4374940  33.5995070  44.5367090  16.9082170
  34.6073940  45.3594560  16.1341800  18.7902360  32.0579650  16.0639160
  19.5130490  32.5988590  16.3820380  19.0626880  31.7843070  15.1880700
  31.9328350  48.2043200  22.7249660  32.5287420  47.8827770  22.0484080
  32.1906500  47.7315020  23.5162930  20.5874350  32.6236960  18.1976700
  21.1167110  31.8366760  18.0684650  21.2202670  33.3028150  18.4312230
  28.4141360  39.0742130   4.6289790  28.3335410  38.1596740   4.3581500
  28.0005780  39.5709200   3.9229500  26.5459400  40.8521150   6.5099060
  25.7701500  40.3721590   6.7997630  27.1972330  40.1726800   6.3355220
  20.5625230  41.1640960   7.3874820  19.7310110  40.9089670   7.7871330
  21.1706210  41.2351730   8.1232740  30.5666830  45.2581340   5.2898190
  30.1048360  44.4868580   5.6185360  31.3792380  45.2847410   5.7950640
  20.5426490  45.1981050   7.5832840  20.8454530  44.3078790   7.4043060
  21.2870080  45.7551270   7.3555090  16.9350190  38.7248500   7.0556910
  17.5066300  37.9570700   7.0560550  16.9351730  39.0237260   6.1463520
  26.7930140  47.5439350   4.9102180  26.1741580  47.9996850   4.3396620
  27.6481920  47.6990810   4.5091880  25.9868390  43.5278340   6.5169220
  25.9176670  42.5868280   6.3558350  26.7488250  43.6179750   7.0891790
  18.1775060  34.1332860   8.8425840  17.9977900  33.2358610   9.1228600
  17.7755140  34.6804730   9.5172790  27.0173560  36.3348720   6.7438150
  27.3938380  35.4620600   6.6311820  26.9193070  36.6707420   5.8528590
  21.1478570  34.7074350   2.2055590  21.2545320  35.6078080   2.5124350
  20.2370930  34.6592320   1.9150240  30.7997680  33.8299160   3.6766490
  31.6207300  33.3395730   3.7191970  30.8331760  34.4196820   4.4298330
  18.7961730  36.6293360   7.4508180  19.4771840  36.8931730   8.0695580
  18.4809780  35.7894230   7.7846190  22.9886300  37.6760720   6.5380770
  23.4964520  38.1741690   7.1785790  23.5199540  36.8995920   6.3620130
  35.0897230  35.8465910  10.2410120  34.3849400  36.2347620   9.7225230
  35.3555150  36.5416200  10.8431050  21.2722400  32.3159280  10.8044190
  21.2740840  32.8331670   9.9990090  20.4426710  31.8389460  10.7814120
  27.6593490  42.4278590   2.3034090  27.0410760  42.8928040   1.7396810
  28.1716740  43.1206070   2.7203600  22.5225250  41.9554460   8.9817690
  22.1894630  42.5823380   9.6238760  22.6991930  42.4816340   8.2019360
  31.0359160  35.7699540   6.4494030  30.3314730  36.0584430   7.0297140
  31.3971320  36.5799650   6.0893590  20.9537730  34.0269240   8.8114640
  21.2954540  34.8711290   8.5168510  20.0153540  34.1752980   8.9279980
  21.7344350  43.9235260  10.7966870  22.3518350  44.5986340  10.5151320
  20.8737470  44.3323240  10.7054370  32.6521940  45.3874670   8.7121510
  31.9685460  46.0573780   8.7038180  33.1916230  45.5855320   7.9466370
  34.1046080  35.2154330   6.8403240  33.1570990  35.2493310   6.9718670
  34.4296070  36.0293280   7.2252600  24.6365620  31.5151510   5.1359230
  24.9440600  30.9598400   4.4194730  23.7066320  31.6495970   4.9532220
  30.1880680  47.2318800   7.4266690  30.2007840  46.8281090   6.5588950
  29.6355900  48.0066090   7.3228120  31.4826100  43.9535020   2.5156860
  31.3722430  43.0109350   2.6406280  31.4794350  44.3150660   3.4019620
  29.5866120  42.1348640   8.7549300  30.0034910  41.9208750   7.9202760
  30.3105940  42.3921430   9.3257920  27.0246380  39.5800340   1.8719350
  26.0975660  39.5137720   2.1007820  27.1771200  40.5180470   1.7574590
  33.5328220  40.5335860   8.8465540  32.7046850  40.6028950   8.3715670
  34.1278700  41.1190170   8.3781370  31.0543670  41.1420640   2.3754600
  30.4356090  40.8040190   1.7280900  31.0368120  40.4980400   3.0833790
  30.4970230  37.3205180   9.7920410  30.0841410  38.1458890  10.0460400
  29.7646180  36.7350220   9.5996770  22.6303020  40.1065080   4.6539080
  22.2260020  39.3942330   4.1584980  22.7166140  39.7618320   5.5427120
  23.0984720  43.7932640   6.8178290  22.8013010  43.1878110   6.1386070
  24.0484540  43.8309950   6.7067650  21.3431640  36.8808290   8.4338120
  21.8946230  36.9903630   7.6591370  21.8575150  37.2545890   9.1493350
  31.1870330  47.3664510  10.4801390  30.7100890  48.1736700  10.2874000
  30.5032120  46.7142840  10.6327600  22.1903150  43.5314330  13.4686090
  21.2931680  43.7554300  13.7159490  22.2156020  43.6549270  12.5197490
  21.0174370  40.4027650  12.0443460  20.8782140  41.2750450  12.4130860
  20.1355730  40.0600460  11.8991400  27.3403750  45.3203520   3.3508590
  27.7799660  46.0627850   2.9363980  27.2790640  45.5630090   4.2747550
  22.8154720  46.3449350  14.2528610  22.7870150  46.7492300  13.3857040
  22.6519690  45.4159710  14.0900210  19.3307650  39.0010060   2.1545730
  19.2105250  39.7272150   1.5427000  19.0208540  38.2312970   1.6773640
  34.7669540  47.1276450  15.5492780  35.2429260  47.6059340  16.2281860
  35.3876700  47.0593940  14.8238280  16.9693020  42.1725200   7.9614370
  17.0473440  42.3073970   7.0170090  17.5834700  41.4641090   8.1542490
  18.2140650  43.8725390   4.3720550  17.8068730  44.0139980   3.5174150
  19.1053660  43.5885550   4.1691760  34.1702790  44.3189300  12.7092790
  34.2965850  44.0801180  11.7909970  34.2124170  43.4873840  13.1814870
  28.0319530  48.0217300  11.2787600  28.5464200  47.9325310  12.0810030
  27.1888610  48.3677000  11.5715510  22.4862310  48.0871170   2.4843220
  22.3104790  47.1706710   2.2711020  21.6318050  48.4458460   2.7241020
  29.2749990  47.4422910   3.3418090  29.7306940  46.6612290   3.6556710
  29.6142510  48.1529730   3.8859270  17.0252540  43.2139370  10.5008830
  17.1883580  42.7444730   9.6828200  17.4904990  42.7062930  11.1657670
  21.7971310  32.3445130   5.5369400  21.3539460  33.1254670   5.2053920
  22.3556300  32.6675020   6.2440340  26.0841120  35.2113650  11.1404720
  25.6220490  35.4196670  11.9524660  25.6819230  34.3973000  10.8375390
  28.1795340  37.9324350  14.3700170  28.5048750  37.0988100  14.0302400
  28.9675670  38.4552870  14.5178500  23.8347210  32.8892460   7.3959000
  24.1319540  33.7955290   7.3151020  24.3832770  32.4011240   6.7818570
  21.5885530  37.4678700   3.2650650  21.3626450  37.2515870   4.1697270
  20.8078060  37.9007160   2.9196620  24.0284740  38.3664280  13.9310920
  23.9328340  37.4259010  13.7811320  24.8716720  38.5879350  13.5358990
  27.4248160  36.1105610   3.8944580  27.8177730  36.4277810   3.0813270
  27.7865010  35.2317490   4.0089100  19.1595280  34.7777950  12.0844700
  18.7658670  35.6253160  12.2917480  18.4713680  34.1404320  12.2753340
  16.4612330  32.7006410   6.1174780  16.1725380  33.2709270   6.8299760
  17.2058090  32.2210860   6.4806010  28.0103300  38.7011360   7.9895360
  27.2784420  39.2098170   8.3385460  27.6127640  37.8841340   7.6884140
  24.4480690  35.3765560   6.3947850  24.4516750  34.9355510   5.5452390
  25.3431810  35.6982890   6.5019670  20.2983070  35.2592050   5.3542060
  19.9583120  35.7367280   6.1109110  19.5360390  34.8057170   4.9943160
  28.4729210  34.1545040   7.4018300  28.4901950  34.6053690   8.2460150
  28.2244790  33.2550680   7.6151740  18.5991520  42.5890800  12.6604640
  18.2146310  41.9484470  13.2587600  18.9103710  43.2926920  13.2299370
  24.7488660  39.4367340   8.1413260  25.1158790  38.9625910   8.8874600
  24.5593720  40.3108910   8.4821600  17.6129150  34.1811030   4.2706730
  17.3276070  33.8166700   5.1085350  17.5508010  33.4491490   3.6569870
  22.5388030  38.4775980  10.4597470  22.2345100  39.3567960  10.6847830
  23.4934490  38.5375770  10.4954910  31.8257800  41.6802330   6.8490710
  32.5456920  42.1757620   6.4586820  31.6239620  41.0020220   6.2044580
  27.2076600  41.7511390  12.7359710  27.1413910  40.8307060  12.4817300
  26.5781740  41.8486830  13.4504350  21.1107220  42.3517350   4.6943130
  21.6285890  41.5485610   4.6400020  20.6591240  42.2896490   5.5359960
  18.5951760  39.3178720  11.6068830  18.2366700  39.9832570  12.1942170
  18.3006320  38.4862270  11.9781450  27.1393330  44.5731960  12.4863510
  27.1537870  43.6412920  12.2682420  26.4318430  44.6591720  13.1253280
  33.3504540  41.2139300  11.8332090  32.6252730  41.8068080  11.6361480
  33.8780000  41.2062840  11.0345460  28.8804130  42.9399470   5.3315940
  29.2327950  42.3427600   4.6717310  27.9966460  42.6143700   5.5024190
  24.9667410  43.6997160   2.7386350  25.6538540  44.2466370   3.1193940
  24.1799830  44.2437890   2.7735960  24.2694620  40.7043190   2.3511710
  24.7257400  41.5148440   2.5771900  23.9182830  40.3866330   3.1830200
  26.5727230  46.2149530   9.5804010  27.2169450  46.4208910  10.2577430
  26.9356670  45.4537930   9.1274860  20.1706400  31.0480840   2.8234230
  20.0421030  31.0398740   3.7719150  19.3468420  31.3863930   2.4725240
  27.8459310  44.2181880   8.2981460  28.4881540  43.5175040   8.4113630
  28.3708660  44.9980320   8.1178350  29.6196930  45.0176780  11.5017520
  29.9553170  45.6043470  12.1795440  28.6997270  44.8869490  11.7315310
  17.1700330  32.8071960  12.2840930  16.4558850  33.0068880  12.8893540
  17.5895370  32.0311530  12.6555730  28.6639110  35.2994270  10.0342380
  29.0319930  34.4789480  10.3621950  27.8037310  35.3596160  10.4498030
  23.9985170  36.5337160   2.2587820  23.2901320  37.0023500   2.7001430
  24.2829650  35.8759170   2.8933010  25.6241100  37.9533860  10.2580350
  26.1226350  38.4279680  10.9232200  25.7664050  37.0297380  10.4650380
  28.0300600  33.2587820   3.6983610  27.9068380  33.2773950   2.7493120
  28.9785160  33.3066760   3.8182010  25.1177390  48.4943120   2.9711590
  25.3718890  48.4564510   2.0490960  24.1689870  48.3676450   2.9639840
  31.1229970  39.4135000   4.5470100  30.1820110  39.4285230   4.7217790
  31.4374040  38.6270960   4.9930400  33.1255550  46.5843850   6.2224360
  33.2502970  47.4075020   6.6948170  33.9921110  46.3734580   5.8748510
  20.5973080  48.6775060   5.8941490  21.3335560  48.1290520   6.1650060
  20.9814000  49.5431070   5.7547480  17.4818560  44.7448630   1.7683000
  16.5558340  44.9869770   1.7588410  17.9474990  45.5722890   1.6467750
  28.4395990  43.9701000  15.0302480  27.8334150  43.9932600  14.2898230
  28.1350100  43.2384040  15.5669730  29.8696360  47.6981290  13.6411890
  30.8218110  47.6139310  13.5912130  29.7224580  48.3623000  14.3145680
  24.3767110  41.7565580  13.5598640  23.6112780  42.3250580  13.4753310
  24.5583070  41.4641790  12.6666870  31.5190460  43.4870910  14.1173660
  32.2599930  43.8246670  13.6141120  30.7563140  43.6562970  13.5643430
  21.2958060  37.0716280  12.8887680  20.7654520  36.5807230  12.2611020
  21.9646130  37.5000480  12.3545610  30.1936120  41.5385740  12.6528870
  30.6077140  41.6930820  13.5019290  29.2587120  41.6640960  12.8154650
  21.7830360  34.0378650  12.9684970  21.6887230  33.4199400  12.2435840
  21.2027750  34.7644940  12.7414880  24.5491800  32.5951890  10.0012360
  24.1009100  32.6176150   9.1557910  23.9157000  32.1970910  10.5982660
  24.9551350  41.4906220  10.6224800  25.3739460  42.3338950  10.4501040
  24.0359980  41.6278260  10.3931580  27.2915250  39.2222400  12.0062640
  27.4111460  38.6263540  12.7457480  28.1509250  39.2592090  11.5863940
  29.6303150  39.7759590  10.5825150  29.1038370  40.3002210   9.9790290
  29.9734490  40.4086980  11.2134880  22.8058770  47.7959230  11.7382530
  22.2679860  48.5205290  11.4191230  23.0592730  47.3189570  10.9479870
  24.0584020  35.7643750  13.2638460  24.6483710  35.4559600  13.9516280
  23.2404260  35.2923500  13.4198360  25.6620980  49.0310440  11.9969180
  25.5879680  49.9345580  12.3041550  24.7599820  48.7122340  11.9691250
  17.0648270  46.3585030   5.3002800  17.3951280  45.4906090   5.0681440
  17.4939270  46.5643550   6.1307760  21.6610190  44.6894040   2.9604770
  21.3605730  44.5659010   3.8608680  21.5547680  43.8302630   2.5520500
  17.5538480  47.2255620   8.0384430  17.1169470  47.4056420   8.8708580
  18.1216160  47.9830240   7.8966150  33.1900660  46.7272620  12.3261740
  32.5902650  46.7865180  11.5825660  33.3194560  45.7877600  12.4558590
  17.3862910  39.7375850   4.3973310  16.7311750  39.4687490   3.7533010
  18.2240860  39.6280330   3.9475290  34.8918540  42.0688020   5.0107580
  35.2627370  41.2855340   4.6043550  35.5320470  42.7577120   4.8324880
  31.8752300  43.4524600  10.4237900  31.0612140  43.8821760  10.6863690
  32.2826500  44.0643010   9.8106950  33.8343080  39.4441280   2.3167600
  33.4586680  38.6769210   1.8848890  33.1046200  39.8263980   2.8042530
  18.4238840  40.1228420   8.9376650  18.7911880  40.0355820   9.8172670
  17.8549660  39.3594970   8.8383510  33.2242700  38.5912800  11.9507120
  32.9928790  38.3625550  11.0505070  33.4847250  39.5112350  11.9052010
  33.1094040  37.6698770   5.6174840  33.6331520  37.1761420   4.9865010
  33.6953460  37.8049130   6.3622410  33.2883760  37.7538640   9.1394390
  32.3386470  37.7202180   9.2539380  33.4696770  38.6638750   8.9044160
  18.4794550  31.3085840   7.1918290  19.1270740  30.7583220   6.7513450
  18.8996390  31.5628990   8.0134100  34.0281170  35.5633070   4.0904930
  33.9180450  35.4089110   5.0287200  34.7888760  35.0354010   3.8480340
  32.3746890  31.5027200  10.5487930  33.0119110  32.1161340  10.9147120
  32.5221780  31.5387860   9.6037160  31.9328350  48.2043200   3.9506170
  32.5287420  47.8827770   3.2740590  32.1906500  47.7315020   4.7419440
  18.2326550  31.4641510   9.9343610  17.8841370  31.9205330  10.7001790
  17.9014250  30.5698640  10.0166040  23.5396950  46.1920700   9.7006520
  23.2988310  46.4595260   8.8137040  24.4799590  46.3626430   9.7557380
  25.7451370  32.6553390  13.4563030  25.6840260  33.2475220  14.2058440
  26.6851750  32.5479350  13.3113290  28.3825930  32.3123450  13.0955320
  28.9966340  32.6302740  12.4336400  28.9275490  31.8272040  13.7151180
  34.8001110  48.2115080  10.5017160  34.3059390  48.6083950   9.7844290
  34.1914400  47.5864290  10.8954440  18.9047190  30.9917710  13.2094380
  19.4530180  30.8105760  12.4460490  18.9702500  30.2011820  13.7450690
  19.6778950  47.5823360  11.2194580  19.0839270  47.4508060  11.9584620
  19.6702790  46.7461500  10.7536680  29.1233970  30.8755590   9.4224610
  28.2493810  31.2090700   9.2197540  29.0144720  30.4028770  10.2476480
  32.4840560  48.8538500   7.7803900  32.0243530  49.6054310   7.4061920
  31.8553020  48.1344970   7.7218700  19.3091180  44.9481740  10.1702620
  18.5825240  44.3287030  10.1028570  19.3700330  45.3422350   9.3000700
  22.9136280  47.1626740   6.9552030  23.4301300  46.5514100   6.4300290
  23.5633660  47.6655520   7.4463040  25.6531780  48.0535230   7.7821010
  25.9409590  47.7989530   6.9054020  26.1655000  47.5012590   8.3726580
  26.8708790  31.7925430   8.3617520  26.0880580  32.2670930   8.6414280
  26.5771720  30.8880260   8.2530700  31.4229860  32.4948530   6.4066610
  31.8637950  32.4393630   5.5588210  31.1537450  33.4106540   6.4776790
  33.2868430  32.1263770   4.4175430  33.2256830  31.1824990   4.2706450
  34.0660460  32.2343860   4.9628890  17.5921180  48.2656130   3.3799380
  17.4243220  47.6326810   4.0781270  16.7255690  48.4715530   3.0293570
  24.7563010  34.2112180   3.8733550  23.9437520  33.8369070   3.5329430
  25.2604650  33.4557260   4.1754740  29.2587990  30.8754630   5.1116620
  29.8617360  31.4474840   5.5865140  28.5180980  31.4394070   4.8890520
  22.7812190  32.3612100   2.4778600  22.1514930  31.6599410   2.6448730
  22.2417330  33.1216230   2.2611760  25.7204140  48.9751330  15.1489210
  26.6471450  48.7395600  15.1925170  25.7054570  49.8023330  14.6675240
  33.9549200  48.5176900   2.1463460  34.1301390  47.8314640   1.5024380
  33.2570770  49.0423950   1.7540130  22.9067750  31.6396080  14.9131090
  22.6252020  32.1429680  14.1491910  23.2887450  30.8417830  14.5473220
  32.2881700  48.2021190  14.9730250  33.0807020  47.7070420  14.7656210
  32.5814850  48.8811330  15.5805860  28.4141360  20.2998640  98.5007240
  28.3335410  19.3853250  98.2298950  28.0005780  20.7965710  97.7946950
  26.5459400  22.0777660 100.3816510  25.7701500  21.5978100 100.6715080
  27.1972330  21.3983310 100.2072670  20.5625230  22.3897470 101.2592270
  19.7310110  22.1346180 101.6588780  21.1706210  22.4608240 101.9950190
  30.5666830  26.4837850  99.1615640  30.1048360  25.7125090  99.4902810
  31.3792380  26.5103920  99.6668090  20.5426490  26.4237560 101.4550290
  20.8454530  25.5335300 101.2760510  21.2870080  26.9807780 101.2272540
  18.9717180  17.3499360  95.0434660  18.0833880  17.6915330  94.9414540
  19.2558370  17.1499680  94.1515490  16.9350190  19.9505010 100.9274360
  17.5066300  19.1827210 100.9278000  16.9351730  20.2493770 100.0180970
  26.7930140  28.7695860  98.7819630  26.1741580  29.2253360  98.2114070
  27.6481920  28.9247320  98.3809330  25.9868390  24.7534850 100.3886670
  25.9176670  23.8124790 100.2275800  26.7488250  24.8436260 100.9609240
  18.1775060  15.3589370 102.7143290  17.9977900  14.4615120 102.9946050
  17.7755140  15.9061240 103.3890240  27.0173560  17.5605230 100.6155600
  27.3938380  16.6877110 100.5029270  26.9193070  17.8963930  99.7246040
  21.1478570  15.9330860  96.0773040  21.2545320  16.8334590  96.3841800
  20.2370930  15.8848830  95.7867690  30.7997680  15.0555670  97.5483940
  31.6207300  14.5652240  97.5909420  30.8331760  15.6453330  98.3015780
  18.7961730  17.8549870 101.3225630  19.4771840  18.1188240 101.9413030
  18.4809780  17.0150740 101.6563640  22.9886300  18.9017230 100.4098220
  23.4964520  19.3998200 101.0503240  23.5199540  18.1252430 100.2337580
  35.0897230  17.0722420 104.1127570  34.3849400  17.4604130 103.5942680
  35.3555150  17.7672710 104.7148500  21.2722400  13.5415790 104.6761640
  21.2740840  14.0588180 103.8707540  20.4426710  13.0645970 104.6531570
  27.6593490  23.6535100  96.1751540  27.0410760  24.1184550  95.6114260
  28.1716740  24.3462580  96.5921050  22.5225250  23.1810970 102.8535140
  22.1894630  23.8079890 103.4956210  22.6991930  23.7072850 102.0736810
  31.0359160  16.9956050 100.3211480  30.3314730  17.2840940 100.9014590
  31.3971320  17.8056160  99.9611040  20.9537730  15.2525750 102.6832090
  21.2954540  16.0967800 102.3885960  20.0153540  15.4009490 102.7997430
  21.7344350  25.1491770 104.6684320  22.3518350  25.8242850 104.3868770
  20.8737470  25.5579750 104.5771820  17.0276690  24.3391630  93.5491170
  16.6504670  24.8278730  92.8176070  17.2849760  25.0116910  94.1797700
  32.6521940  26.6131180 102.5838960  31.9685460  27.2830290 102.5755630
  33.1916230  26.8111830 101.8183820  34.1046080  16.4410840 100.7120690
  33.1570990  16.4749820 100.8436120  34.4296070  17.2549790 101.0970050
  24.6365620  12.7408020  99.0076680  24.9440600  12.1854910  98.2912180
  23.7066320  12.8752480  98.8249670  30.1880680  28.4575310 101.2984140
  30.2007840  28.0537600 100.4306400  29.6355900  29.2322600 101.1945570
  31.4826100  25.1791530  96.3874310  31.3722430  24.2365860  96.5123730
  31.4794350  25.5407170  97.2737070  29.5866120  23.3605150 102.6266750
  30.0034910  23.1465260 101.7920210  30.3105940  23.6177940 103.1975370
  27.0246380  20.8056850  95.7436800  26.0975660  20.7394230  95.9725270
  27.1771200  21.7436980  95.6292040  27.0115460  17.0773850  92.7403960
  26.0719130  17.2387810  92.8256420  27.3298720  17.7959530  92.1939950
  33.5328220  21.7592370 102.7182990  32.7046850  21.8285460 102.2433120
  34.1278700  22.3446680 102.2498820  31.0543670  22.3677150  96.2472050
  30.4356090  22.0296700  95.5998350  31.0368120  21.7236910  96.9551240
  30.4970230  18.5461690 103.6637860  30.0841410  19.3715400 103.9177850
  29.7646180  17.9606730 103.4714220  22.6303020  21.3321590  98.5256530
  22.2260020  20.6198840  98.0302430  22.7166140  20.9874830  99.4144570
  23.0984720  25.0189150 100.6895740  22.8013010  24.4134620 100.0103520
  24.0484540  25.0566460 100.5785100  21.3431640  18.1064800 102.3055570
  21.8946230  18.2160140 101.5308820  21.8575150  18.4802400 103.0210800
  31.1870330  28.5921020 104.3518840  30.7100890  29.3993210 104.1591450
  30.5032120  27.9399350 104.5045050  29.2308370  21.6063960  93.2544800
  29.6701650  20.7686390  93.1082620  29.9436790  22.2393360  93.3408940
  27.3403750  26.5460030  97.2226040  27.7799660  27.2884360  96.8081430
  27.2790640  26.7886600  98.1465000  32.8125510  12.8606770  91.5685840
  32.4998170  12.9533600  92.4684910  33.5737980  13.4387800  91.5183270
  19.3307650  20.2266570  96.0263180  19.2105250  20.9528660  95.4144450
  19.0208540  19.4569480  95.5491090  16.9693020  23.3981710 101.8331820
  17.0473440  23.5330480 100.8887540  17.5834700  22.6897600 102.0259940
  18.2140650  25.0981900  98.2438000  17.8068730  25.2396490  97.3891600
  19.1053660  24.8142060  98.0409210  30.0073930  29.5329150  94.5789050
  29.8475070  29.2432090  95.4770880  29.8420640  28.7569280  94.0434280
  22.4862310  29.3127680  96.3560670  22.3104790  28.3963220  96.1428470
  21.6318050  29.6714970  96.5958470  29.7100060  27.0416710  93.1387050
  29.0165220  27.0394000  92.4789330  30.4522920  26.6176030  92.7081220
  29.2749990  28.6679420  97.2135540  29.7306940  27.8868800  97.5274160
  29.6142510  29.3786240  97.7576720  21.7971310  13.5701640  99.4086850
  21.3539460  14.3511180  99.0771370  22.3556300  13.8931530 100.1157790
  24.9130130  13.1912340  94.2892680  24.2884310  13.1872210  95.0145990
  24.8260250  12.3243300  93.8928650  23.8347210  14.1148970 101.2676450
  24.1319540  15.0211800 101.1868470  24.3832770  13.6267750 100.6536020
  21.5885530  18.6935210  97.1368100  21.3626450  18.4772380  98.0414720
  20.8078060  19.1263670  96.7914070  28.8183290  18.6998580  95.7358750
  28.2192180  19.4234380  95.5522370  29.3662900  18.6375360  94.9535200
  27.4248160  17.3362120  97.7662030  27.8177730  17.6534320  96.9530720
  27.7865010  16.4574000  97.8806550  16.4612330  13.9262920  99.9892230
  16.1725380  14.4965780 100.7017210  17.2058090  13.4467370 100.3523460
  16.6482560  17.8683040  91.1994950  16.5657230  18.8113800  91.3409940
  16.2965620  17.7257950  90.3207300  28.0103300  19.9267870 101.8612810
  27.2784420  20.4354680 102.2102910  27.6127640  19.1097850 101.5601590
  24.4480690  16.6022070 100.2665300  24.4516750  16.1612020  99.4169840
  25.3431810  16.9239400 100.3737120  20.2983070  16.4848560  99.2259510
  19.9583120  16.9623790  99.9826560  19.5360390  16.0313680  98.8660610
  24.5100840  17.6034150  93.2572060  24.6313660  17.5620630  94.2057880
  24.1249350  18.4658300  93.1018790  28.4729210  15.3801550 101.2735750
  28.4901950  15.8310200 102.1177600  28.2244790  14.4807190 101.4869190
  23.5222340  19.9135290  92.6555360  22.9539240  19.4653540  92.0291270
  24.2311340  20.2728070  92.1220510  24.7488660  20.6623850 102.0130710
  25.1158790  20.1882420 102.7592050  24.5593720  21.5365420 102.3539050
  17.6129150  15.4067540  98.1424180  17.3276070  15.0423210  98.9802800
  17.5508010  14.6748000  97.5287320  22.5388030  19.7032490 104.3314920
  22.2345100  20.5824470 104.5565280  23.4934490  19.7632280 104.3672360
  21.0669820  23.9093480  94.9281770  20.2932080  23.3691100  94.7680490
  21.7964450  23.3900090  94.5899530  31.8257800  22.9058840 100.7208160
  32.5456920  23.4014130 100.3304270  31.6239620  22.2276730 100.0762030
  27.2867740  14.2996800  94.8637550  26.4732350  13.8009970  94.7882860
  27.0929690  15.1395050  94.4473900  30.0016130  18.6716450  93.1599710
  30.8895750  18.9833680  92.9851050  29.9721220  17.7988700  92.7680290
  21.1107220  23.5773860  98.5660580  21.6285890  22.7742120  98.5117470
  20.6591240  23.5153000  99.4077410  25.9976720  24.8440140  93.8387880
  26.3392420  25.5882370  93.3431200  25.1689430  25.1571260  94.2012710
  32.2730400  19.9828290  92.6279570  32.1894120  20.4142510  91.7776010
  32.9924590  20.4426640  93.0606390  33.3017650  26.8370550  95.3561700
  32.6593810  26.1826170  95.6305420  32.9148310  27.2425640  94.5802370
  28.8804130  24.1655980  99.2033390  29.2327950  23.5684110  98.5434760
  27.9966460  23.8400210  99.3741640  24.9667410  24.9253670  96.6103800
  25.6538540  25.4722880  96.9911390  24.1799830  25.4694400  96.6453410
  17.1059810  20.5426490  92.1020880  17.9754660  20.8251290  92.3856800
  16.6150130  21.3562360  91.9869690  24.2694620  21.9299700  96.2229160
  24.7257400  22.7404950  96.4489350  23.9182830  21.6122840  97.0547650
  26.5727230  27.4406040 103.4521460  27.2169450  27.6465420 104.1294880
  26.9356670  26.6794440 102.9992310  20.1706400  12.2737350  96.6951680
  20.0421030  12.2655250  97.6436600  19.3468420  12.6120440  96.3442690
  27.8459310  25.4438390 102.1698910  28.4881540  24.7431550 102.2831080
  28.3708660  26.2236830 101.9895800  31.6915030  25.7287010  91.8938050
  31.4652610  25.0117450  92.4862690  31.3011230  25.4799450  91.0559800
  17.4731060  29.7553870  92.6682510  17.8328700  30.3543210  92.0139780
  17.3323400  30.3013760  93.4417540  31.2731280  23.6458950  93.5552210
  30.9852980  24.1071640  94.3430090  32.0683450  23.1856720  93.8236430
  23.4899680  27.1385070  93.4856180  23.4809780  27.8714760  92.8700690
  22.5698040  26.8916650  93.5783140  19.0906320  22.3599960  94.2302940
  18.4834270  23.0998860  94.2398240  19.5655670  22.4499320  93.4041140
  28.6639110  16.5250780 103.9059830  29.0319930  15.7045990 104.2339400
  27.8037310  16.5852670 104.3215480  32.0301140  15.4807720  94.7147390
  31.4014300  15.5853390  94.0005620  31.5353060  15.7004500  95.5041270
  26.4759280  27.2013310  92.1481370  26.5771260  26.9977300  91.2183350
  25.5761020  26.9471590  92.3529150  23.9985170  17.7593670  96.1305270
  23.2901320  18.2280010  96.5718880  24.2829650  17.1015680  96.7650460
  25.6241100  19.1790370 104.1297800  26.1226350  19.6536190 104.7949650
  25.7664050  18.2553890 104.3367830  28.0300600  14.4844330  97.5701060
  27.9068380  14.5030460  96.6210570  28.9785160  14.5323270  97.6899460
  25.1177390  29.7199630  96.8429040  25.3718890  29.6821020  95.9208410
  24.1689870  29.5932960  96.8357290  22.2020190  16.0678750  93.5055980
  23.0510720  16.5048900  93.4396170  21.8351460  16.3799010  94.3328040
  31.1229970  20.6391510  98.4187550  30.1820110  20.6541740  98.5935240
  31.4374040  19.8527470  98.8647850  21.1011610  22.3211110  91.9791510
  21.8674880  22.2092470  92.5416940  21.1786300  21.6249080  91.3268280
  19.7958370  19.7536180  92.6624400  19.8761960  18.8063690  92.7741800
  20.6878120  20.0843060  92.7685060  33.1255550  27.8100360 100.0941810
  33.2502970  28.6331530 100.5665620  33.9921110  27.5991090  99.7465960
  20.5973080  29.9031570  99.7658940  21.3335560  29.3547030 100.0367510
  20.9814000  30.7687580  99.6264930  17.4818560  25.9705140  95.6400450
  16.5558340  26.2126280  95.6305860  17.9474990  26.7979400  95.5185200
  23.7075390  29.0761880  91.5884510  24.5004000  29.3650710  91.1366300
  23.1879740  28.6454050  90.9096990  32.7605560  28.3032010  93.0121250
  32.4747070  27.8897150  92.1975430  32.5625110  29.2319720  92.8921770
  24.2252790  24.2965290  91.4526860  24.1203430  23.6817640  92.1788240
  24.0577010  23.7731180  90.6689870  27.4655520  23.3585320  92.0568850
  26.9165620  23.8054620  92.7011590  28.0874780  22.8534570  92.5806520
  23.1330640  22.3176240  93.9534150  23.5547060  22.1516110  94.7965540
  23.2581480  21.5076470  93.4589290  25.6458280  21.3413850  91.2011250
  26.1663940  20.6262870  90.8352400  26.2926680  21.9799720  91.5011760
  24.5491800  13.8208400 103.8729810  24.1009100  13.8432660 103.0275360
  23.9157000  13.4227420 104.4700110  24.9551350  22.7162730 104.4942250
  25.3739460  23.5595460 104.3218490  24.0359980  22.8534770 104.2649030
  22.0289540  18.3909470  90.8992310  21.8278600  17.5276830  91.2605650
  21.8581590  18.3042830  89.9613910  29.5077850  13.2017700  93.4279190
  29.7880140  12.3585600  93.7838610  28.7343580  13.4340810  93.9417940
  20.8272340  15.4910090  90.8870190  21.1298240  15.4977520  89.9789340
  21.5666930  15.1407950  91.3837850  24.0457270  14.4344710  91.8726390
  23.6979270  13.7568700  91.2928840  24.2470040  13.9734220  92.6869780
  26.2106310  29.4225460  93.4912990  27.1057100  29.7610430  93.5131750
  26.2423940  28.7004870  92.8637270  19.8502470  24.7952510  91.7199990
  20.2877340  25.3382180  92.3757570  20.3350200  23.9699460  91.7296330
  17.0648270  27.5841540  99.1720250  17.3951280  26.7162600  98.9398890
  17.4939270  27.7900060 100.0025210  21.6610190  25.9150550  96.8322220
  21.3605730  25.7915520  97.7326130  21.5547680  25.0559140  96.4237950
  17.5538480  28.4512130 101.9101880  17.1169470  28.6312930 102.7426030
  18.1216160  29.2086750 101.7683600  34.4302110  25.6946950  91.5348900
  33.5995070  25.7623600  92.0056130  34.6073940  26.5851070  91.2315760
  33.8858570  22.4394430  94.0383100  34.6477480  23.0091080  94.1442790
  33.9012940  21.8721630  94.8091410  17.3862910  20.9632360  98.2690760
  16.7311750  20.6944000  97.6250460  18.2240860  20.8536840  97.8192740
  34.8918540  23.2944530  98.8825030  35.2627370  22.5111850  98.4761000
  35.5320470  23.9833630  98.7042330  31.8752300  24.6781110 104.2955350
  31.0612140  25.1078270 104.5581140  32.2826500  25.2899520 103.6824400
  33.9377740  22.7328800  91.1955620  34.2126580  23.6407680  91.0674840
  33.7488480  22.6691330  92.1317610  30.3353350  15.7573650  92.4909250
  30.7538230  15.5704630  91.6505910  30.0289410  14.9052700  92.8012180
  33.8343080  20.6697790  96.1885050  33.4586680  19.9025720  95.7566340
  33.1046200  21.0520490  96.6759980  18.4238840  21.3484930 102.8094100
  18.7911880  21.2612330 103.6890120  17.8549660  20.5851480 102.7100960
  16.6000990  18.1731290  94.2116090  15.6965070  18.4361490  94.0367750
  17.0841610  18.4442460  93.4316050  33.1094040  18.8955280  99.4892290
  33.6331520  18.4017930  98.8582460  33.6953460  19.0305640 100.2339860
  33.2883760  18.9795150 103.0111840  32.3386470  18.9458690 103.1256830
  33.4696770  19.8895260 102.7761610  19.1428200  17.2296830  92.1210470
  19.8519900  16.8080050  91.6357750  18.4268140  17.2972060  91.4893820
  18.7902360  13.2836160  91.1613120  19.5130490  13.8245100  91.4794340
  19.0626880  13.0099580  90.2854660  32.5994010  18.1528630  95.4284700
  33.0953130  17.9199500  96.2133580  32.4010080  17.3140470  95.0122340
  18.4794550  12.5342350 101.0635740  19.1270740  11.9839730 100.6230900
  18.8996390  12.7885500 101.8851550  34.0281170  16.7889580  97.9622380
  33.9180450  16.6345620  98.9004650  34.7888760  16.2610520  97.7197790
  32.3746890  12.7283710 104.4205380  33.0119110  13.3417850 104.7864570
  32.5221780  12.7644370 103.4754610  34.9171440  14.6197500  91.2028520
  35.8420750  14.4878680  90.9946810  34.8947230  14.6990320  92.1564970
  34.9909930  15.3908160  93.8285230  34.1961430  15.3253280  94.3578140
  35.1953210  16.3258800  93.8170580  31.9328350  29.4299710  97.8223620
  32.5287420  29.1084280  97.1458040  32.1906500  28.9571530  98.6136890
  18.2326550  12.6898020 103.8061060  17.8841370  13.1461840 104.5719240
  17.9014250  11.7955150 103.8883490  23.5396950  27.4177210 103.5723970
  23.2988310  27.6851770 102.6854490  24.4799590  27.5882940 103.6274830
  34.8001110  29.4371590 104.3734610  34.3059390  29.8340460 103.6561740
  34.1914400  28.8120800 104.7671890  29.1233970  12.1012100 103.2942060
  28.2493810  12.4347210 103.0914990  29.0144720  11.6285280 104.1193930
  30.0305950  14.3082970 104.6783780  29.7019310  13.4934730 104.2985510
  30.9788250  14.2652780 104.5549470  32.4840560  30.0795010 101.6521350
  32.0243530  30.8310820 101.2779370  31.8553020  29.3601480 101.5936150
  19.3091180  26.1738250 104.0420070  18.5825240  25.5543540 103.9746020
  19.3700330  26.5678860 103.1718150  22.9136280  28.3883250 100.8269480
  23.4301300  27.7770610 100.3017740  23.5633660  28.8912030 101.3180490
  25.6531780  29.2791740 101.6538460  25.9409590  29.0246040 100.7771470
  26.1655000  28.7269100 102.2444030  26.8708790  13.0181940 102.2334970
  26.0880580  13.4927440 102.5131730  26.5771720  12.1136770 102.1248150
  31.4229860  13.7205040 100.2784060  31.8637950  13.6650140  99.4305660
  31.1537450  14.6363050 100.3494240  33.2868430  13.3520280  98.2892880
  33.2256830  12.4081500  98.1423900  34.0660460  13.4600370  98.8346340
  17.5921180  29.4912640  97.2516830  17.4243220  28.8583320  97.9498720
  16.7255690  29.6972040  96.9011020  18.2149200  13.3229420  94.7548690
  18.9728560  13.4358300  94.1812720  17.7526370  14.1598620  94.7092120
  24.7563010  15.4368690  97.7451000  23.9437520  15.0625580  97.4046880
  25.2604650  14.6813770  98.0472190  29.2587990  12.1011140  98.9834070
  29.8617360  12.6731350  99.4582590  28.5180980  12.6650580  98.7607970
  32.4022590  12.5032700  94.2574350  32.5973220  13.4016150  94.5241780
  31.6152460  12.2719780  94.7507300  19.1983880  28.1845870  94.6966970
  18.6731500  28.5653900  93.9928930  19.1228460  28.8096640  95.4176680
  20.5874350  13.8493470  93.2950660  21.1167110  13.0623270  93.1658610
  21.2202670  14.5284660  93.5286190  22.7812190  13.5868610  96.3496050
  22.1514930  12.8855920  96.5166180  22.2417330  14.3472740  96.1329210
  33.9549200  29.7433410  96.0180910  34.1301390  29.0571150  95.3741830
  33.2570770  30.2680460  95.6257580  21.7976850  30.1328250  93.5716220
  22.5295670  29.8487530  93.0240110  22.0570520  29.8941530  94.4615600
  20.9591640  26.2492980  93.5762550  20.3300520  26.7178080  94.1248380
  21.0739470  25.4042200  94.0108740  28.4141360  20.2998640  79.7263750
  28.3335410  19.3853250  79.4555460  28.0005780  20.7965710  79.0203460
  26.5459400  22.0777660  81.6073020  25.7701500  21.5978100  81.8971590
  27.1972330  21.3983310  81.4329180  20.5625230  22.3897470  82.4848780
  19.7310110  22.1346180  82.8845290  21.1706210  22.4608240  83.2206700
  30.5666830  26.4837850  80.3872150  30.1048360  25.7125090  80.7159320
  31.3792380  26.5103920  80.8924600  20.5426490  26.4237560  82.6806800
  20.8454530  25.5335300  82.5017020  21.2870080  26.9807780  82.4529050
  18.9717180  17.3499360  76.2691170  18.0833880  17.6915330  76.1671050
  19.2558370  17.1499680  75.3772000  16.9350190  19.9505010  82.1530870
  17.5066300  19.1827210  82.1534510  16.9351730  20.2493770  81.2437480
  26.7930140  28.7695860  80.0076140  26.1741580  29.2253360  79.4370580
  27.6481920  28.9247320  79.6065840  25.9868390  24.7534850  81.6143180
  25.9176670  23.8124790  81.4532310  26.7488250  24.8436260  82.1865750
  18.1775060  15.3589370  83.9399800  17.9977900  14.4615120  84.2202560
  17.7755140  15.9061240  84.6146750  27.0173560  17.5605230  81.8412110
  27.3938380  16.6877110  81.7285780  26.9193070  17.8963930  80.9502550
  21.1478570  15.9330860  77.3029550  21.2545320  16.8334590  77.6098310
  20.2370930  15.8848830  77.0124200  30.7997680  15.0555670  78.7740450
  31.6207300  14.5652240  78.8165930  30.8331760  15.6453330  79.5272290
  18.7961730  17.8549870  82.5482140  19.4771840  18.1188240  83.1669540
  18.4809780  17.0150740  82.8820150  22.9886300  18.9017230  81.6354730
  23.4964520  19.3998200  82.2759750  23.5199540  18.1252430  81.4594090
  35.0897230  17.0722420  85.3384080  34.3849400  17.4604130  84.8199190
  35.3555150  17.7672710  85.9405010  21.2722400  13.5415790  85.9018150
  21.2740840  14.0588180  85.0964050  20.4426710  13.0645970  85.8788080
  27.6593490  23.6535100  77.4008050  27.0410760  24.1184550  76.8370770
  28.1716740  24.3462580  77.8177560  22.5225250  23.1810970  84.0791650
  22.1894630  23.8079890  84.7212720  22.6991930  23.7072850  83.2993320
  31.0359160  16.9956050  81.5467990  30.3314730  17.2840940  82.1271100
  31.3971320  17.8056160  81.1867550  20.9537730  15.2525750  83.9088600
  21.2954540  16.0967800  83.6142470  20.0153540  15.4009490  84.0253940
  21.7344350  25.1491770  85.8940830  22.3518350  25.8242850  85.6125280
  20.8737470  25.5579750  85.8028330  17.0276690  24.3391630  74.7747680
  16.6504670  24.8278730  74.0432580  17.2849760  25.0116910  75.4054210
  32.6521940  26.6131180  83.8095470  31.9685460  27.2830290  83.8012140
  33.1916230  26.8111830  83.0440330  34.1046080  16.4410840  81.9377200
  33.1570990  16.4749820  82.0692630  34.4296070  17.2549790  82.3226560
  24.6365620  12.7408020  80.2333190  24.9440600  12.1854910  79.5168690
  23.7066320  12.8752480  80.0506180  30.1880680  28.4575310  82.5240650
  30.2007840  28.0537600  81.6562910  29.6355900  29.2322600  82.4202080
  31.4826100  25.1791530  77.6130820  31.3722430  24.2365860  77.7380240
  31.4794350  25.5407170  78.4993580  29.5866120  23.3605150  83.8523260
  30.0034910  23.1465260  83.0176720  30.3105940  23.6177940  84.4231880
  27.0246380  20.8056850  76.9693310  26.0975660  20.7394230  77.1981780
  27.1771200  21.7436980  76.8548550  27.0115460  17.0773850  73.9660470
  26.0719130  17.2387810  74.0512930  27.3298720  17.7959530  73.4196460
  33.5328220  21.7592370  83.9439500  32.7046850  21.8285460  83.4689630
  34.1278700  22.3446680  83.4755330  31.0543670  22.3677150  77.4728560
  30.4356090  22.0296700  76.8254860  31.0368120  21.7236910  78.1807750
  30.4970230  18.5461690  84.8894370  30.0841410  19.3715400  85.1434360
  29.7646180  17.9606730  84.6970730  22.6303020  21.3321590  79.7513040
  22.2260020  20.6198840  79.2558940  22.7166140  20.9874830  80.6401080
  23.0984720  25.0189150  81.9152250  22.8013010  24.4134620  81.2360030
  24.0484540  25.0566460  81.8041610  21.3431640  18.1064800  83.5312080
  21.8946230  18.2160140  82.7565330  21.8575150  18.4802400  84.2467310
  31.1870330  28.5921020  85.5775350  30.7100890  29.3993210  85.3847960
  30.5032120  27.9399350  85.7301560  22.1903150  24.7570840  88.5660050
  21.2931680  24.9810810  88.8133450  22.2156020  24.8805780  87.6171450
  29.2308370  21.6063960  74.4801310  29.6701650  20.7686390  74.3339130
  29.9436790  22.2393360  74.5665450  21.0174370  21.6284160  87.1417420
  20.8782140  22.5006960  87.5104820  20.1355730  21.2856970  86.9965360
  27.3403750  26.5460030  78.4482550  27.7799660  27.2884360  78.0337940
  27.2790640  26.7886600  79.3721510  22.8154720  27.5705860  89.3502570
  22.7870150  27.9748810  88.4831000  22.6519690  26.6416220  89.1874170
  32.8125510  12.8606770  72.7942350  32.4998170  12.9533600  73.6941420
  33.5737980  13.4387800  72.7439780  19.3307650  20.2266570  77.2519690
  19.2105250  20.9528660  76.6400960  19.0208540  19.4569480  76.7747600
  34.7669540  28.3532960  90.6466740  35.2429260  28.8315850  91.3255820
  35.3876700  28.2850450  89.9212240  16.9693020  23.3981710  83.0588330
  17.0473440  23.5330480  82.1144050  17.5834700  22.6897600  83.2516450
  18.2140650  25.0981900  79.4694510  17.8068730  25.2396490  78.6148110
  19.1053660  24.8142060  79.2665720  34.1702790  25.5445810  87.8066750
  34.2965850  25.3057690  86.8883930  34.2124170  24.7130350  88.2788830
  28.0319530  29.2473810  86.3761560  28.5464200  29.1581820  87.1783990
  27.1888610  29.5933510  86.6689470  30.0073930  29.5329150  75.8045560
  29.8475070  29.2432090  76.7027390  29.8420640  28.7569280  75.2690790
  22.4862310  29.3127680  77.5817180  22.3104790  28.3963220  77.3684980
  21.6318050  29.6714970  77.8214980  29.7100060  27.0416710  74.3643560
  29.0165220  27.0394000  73.7045840  30.4522920  26.6176030  73.9337730
  29.2749990  28.6679420  78.4392050  29.7306940  27.8868800  78.7530670
  29.6142510  29.3786240  78.9833230  34.0226800  17.5978270  88.7716490
  33.4071070  18.1057940  88.2431950  33.7023220  16.6976600  88.7142430
  17.0252540  24.4395880  85.5982790  17.1883580  23.9701240  84.7802160
  17.4904990  23.9319440  86.2631630  21.7971310  13.5701640  80.6343360
  21.3539460  14.3511180  80.3027880  22.3556300  13.8931530  81.3414300
  26.0841120  16.4370160  86.2378680  25.6220490  16.6453180  87.0498620
  25.6819230  15.6229510  85.9349350  31.0845630  17.6579110  87.3675340
  30.2339220  17.3584860  87.6884410  30.9247420  17.9021120  86.4559160
  28.1795340  19.1580860  89.4674130  28.5048750  18.3244610  89.1276360
  28.9675670  19.6809380  89.6152460  24.9130130  13.1912340  75.5149190
  24.2884310  13.1872210  76.2402500  24.8260250  12.3243300  75.1185160
  23.8347210  14.1148970  82.4932960  24.1319540  15.0211800  82.4124980
  24.3832770  13.6267750  81.8792530  21.5885530  18.6935210  78.3624610
  21.3626450  18.4772380  79.2671230  20.8078060  19.1263670  78.0170580
  28.8183290  18.6998580  76.9615260  28.2192180  19.4234380  76.7778880
  29.3662900  18.6375360  76.1791710  24.0284740  19.5920790  89.0284880
  23.9328340  18.6515520  88.8785280  24.8716720  19.8135860  88.6332950
  27.4248160  17.3362120  78.9918540  27.8177730  17.6534320  78.1787230
  27.7865010  16.4574000  79.1063060  19.1595280  16.0034460  87.1818660
  18.7658670  16.8509670  87.3891440  18.4713680  15.3660830  87.3727300
  25.7340330  16.0869430  90.2515400  25.0438650  15.8941630  90.8861490
  26.4772630  16.3704070  90.7839700  16.4612330  13.9262920  81.2148740
  16.1725380  14.4965780  81.9273720  17.2058090  13.4467370  81.5779970
  16.6482560  17.8683040  72.4251460  16.5657230  18.8113800  72.5666450
  16.2965620  17.7257950  71.5463810  28.0103300  19.9267870  83.0869320
  27.2784420  20.4354680  83.4359420  27.6127640  19.1097850  82.7858100
  24.4480690  16.6022070  81.4921810  24.4516750  16.1612020  80.6426350
  25.3431810  16.9239400  81.5993630  20.2983070  16.4848560  80.4516020
  19.9583120  16.9623790  81.2083070  19.5360390  16.0313680  80.0917120
  24.5100840  17.6034150  74.4828570  24.6313660  17.5620630  75.4314390
  24.1249350  18.4658300  74.3275300  28.4729210  15.3801550  82.4992260
  28.4901950  15.8310200  83.3434110  28.2244790  14.4807190  82.7125700
  23.5222340  19.9135290  73.8811870  22.9539240  19.4653540  73.2547780
  24.2311340  20.2728070  73.3477020  31.8999960  12.7933730  88.3378640
  32.2245730  12.0623390  88.8636620  31.9356470  12.4747370  87.4359630
  18.5991520  23.8147310  87.7578600  18.2146310  23.1740980  88.3561560
  18.9103710  24.5183430  88.3273330  24.7488660  20.6623850  83.2387220
  25.1158790  20.1882420  83.9848560  24.5593720  21.5365420  83.5795560
  17.6129150  15.4067540  79.3680690  17.3276070  15.0423210  80.2059310
  17.5508010  14.6748000  78.7543830  22.5388030  19.7032490  85.5571430
  22.2345100  20.5824470  85.7821790  23.4934490  19.7632280  85.5928870
  21.0669820  23.9093480  76.1538280  20.2932080  23.3691100  75.9937000
  21.7964450  23.3900090  75.8156040  31.8257800  22.9058840  81.9464670
  32.5456920  23.4014130  81.5560780  31.6239620  22.2276730  81.3018540
  27.2867740  14.2996800  76.0894060  26.4732350  13.8009970  76.0139370
  27.0929690  15.1395050  75.6730410  27.2076600  22.9767900  87.8333670
  27.1413910  22.0563570  87.5791260  26.5781740  23.0743340  88.5478310
  30.0016130  18.6716450  74.3856220  30.8895750  18.9833680  74.2107560
  29.9721220  17.7988700  73.9936800  21.1107220  23.5773860  79.7917090
  21.6285890  22.7742120  79.7373980  20.6591240  23.5153000  80.6333920
  25.9976720  24.8440140  75.0644390  26.3392420  25.5882370  74.5687710
  25.1689430  25.1571260  75.4269220  18.5951760  20.5435230  86.7042790
  18.2366700  21.2089080  87.2916130  18.3006320  19.7118780  87.0755410
  21.7964880  21.0019470  89.5882340  21.4965020  21.1476650  88.6910160
  22.5676120  20.4424760  89.4955730  27.1393330  25.7988470  87.5837470
  27.1537870  24.8669430  87.3656380  26.4318430  25.8848230  88.2227240
  32.2730400  19.9828290  73.8536080  32.1894120  20.4142510  73.0032520
  32.9924590  20.4426640  74.2862900  33.3504540  22.4395810  86.9306050
  32.6252730  23.0324590  86.7335440  33.8780000  22.4319350  86.1319420
  33.3017650  26.8370550  76.5818210  32.6593810  26.1826170  76.8561930
  32.9148310  27.2425640  75.8058880  28.8804130  24.1655980  80.4289900
  29.2327950  23.5684110  79.7691270  27.9966460  23.8400210  80.5998150
  24.9667410  24.9253670  77.8360310  25.6538540  25.4722880  78.2167900
  24.1799830  25.4694400  77.8709920  17.1059810  20.5426490  73.3277390
  17.9754660  20.8251290  73.6113310  16.6150130  21.3562360  73.2126200
  24.2694620  21.9299700  77.4485670  24.7257400  22.7404950  77.6745860
  23.9182830  21.6122840  78.2804160  26.5727230  27.4406040  84.6777970
  27.2169450  27.6465420  85.3551390  26.9356670  26.6794440  84.2248820
  20.1706400  12.2737350  77.9208190  20.0421030  12.2655250  78.8693110
  19.3468420  12.6120440  77.5699200  27.8459310  25.4438390  83.3955420
  28.4881540  24.7431550  83.5087590  28.3708660  26.2236830  83.2152310
  31.6915030  25.7287010  73.1194560  31.4652610  25.0117450  73.7119200
  31.3011230  25.4799450  72.2816310  29.6196930  26.2433290  86.5991480
  29.9553170  26.8299980  87.2769400  28.6997270  26.1126000  86.8289270
  17.4731060  29.7553870  73.8939020  17.8328700  30.3543210  73.2396290
  17.3323400  30.3013760  74.6674050  17.1700330  14.0328470  87.3814890
  16.4558850  14.2325390  87.9867500  17.5895370  13.2568040  87.7529690
  31.2731280  23.6458950  74.7808720  30.9852980  24.1071640  75.5686600
  32.0683450  23.1856720  75.0492940  17.4572920  28.0208730  88.3681420
  17.5664040  27.0803470  88.2276810  16.8053480  28.2863480  87.7195150
  25.4485510  26.2924620  89.7679540  25.1282380  25.5733860  90.3125230
  24.7743870  26.9679690  89.8415600  23.4899680  27.1385070  74.7112690
  23.4809780  27.8714760  74.0957200  22.5698040  26.8916650  74.8039650
  19.0906320  22.3599960  75.4559450  18.4834270  23.0998860  75.4654750
  19.5655670  22.4499320  74.6297650  28.6639110  16.5250780  85.1316340
  29.0319930  15.7045990  85.4595910  27.8037310  16.5852670  85.5471990
  32.0301140  15.4807720  75.9403900  31.4014300  15.5853390  75.2262130
  31.5353060  15.7004500  76.7297780  26.4759280  27.2013310  73.3737880
  26.5771260  26.9977300  72.4439860  25.5761020  26.9471590  73.5785660
  23.9985170  17.7593670  77.3561780  23.2901320  18.2280010  77.7975390
  24.2829650  17.1015680  77.9906970  25.6241100  19.1790370  85.3554310
  26.1226350  19.6536190  86.0206160  25.7664050  18.2553890  85.5624340
  28.0300600  14.4844330  78.7957570  27.9068380  14.5030460  77.8467080
  28.9785160  14.5323270  78.9155970  25.1177390  29.7199630  78.0685550
  25.3718890  29.6821020  77.1464920  24.1689870  29.5932960  78.0613800
  22.2020190  16.0678750  74.7312490  23.0510720  16.5048900  74.6652680
  21.8351460  16.3799010  75.5584550  32.8307960  15.3958330  86.1982700
  32.3281560  16.1363730  86.5376510  33.6464620  15.7842330  85.8819490
  31.1229970  20.6391510  79.6444060  30.1820110  20.6541740  79.8191750
  31.4374040  19.8527470  80.0904360  21.1011610  22.3211110  73.2048020
  21.8674880  22.2092470  73.7673450  21.1786300  21.6249080  72.5524790
  19.7958370  19.7536180  73.8880910  19.8761960  18.8063690  73.9998310
  20.6878120  20.0843060  73.9941570  33.1255550  27.8100360  81.3198320
  33.2502970  28.6331530  81.7922130  33.9921110  27.5991090  80.9722470
  20.5973080  29.9031570  80.9915450  21.3335560  29.3547030  81.2624020
  20.9814000  30.7687580  80.8521440  17.4818560  25.9705140  76.8656960
  16.5558340  26.2126280  76.8562370  17.9474990  26.7979400  76.7441710
  19.6031360  29.0877640  90.1801030  20.4044090  29.4089690  90.5936430
  19.0883180  28.7273220  90.9020940  23.7075390  29.0761880  72.8141020
  24.5004000  29.3650710  72.3622810  23.1879740  28.6454050  72.1353500
  28.4395990  25.1957510  90.1276440  27.8334150  25.2189110  89.3872190
  28.1350100  24.4640550  90.6643690  29.8696360  28.9237800  88.7385850
  30.8218110  28.8395820  88.6886090  29.7224580  29.5879510  89.4119640
  32.7605560  28.3032010  74.2377760  32.4747070  27.8897150  73.4231940
  32.5625110  29.2319720  74.1178280  17.3229170  21.5751100  89.1237080
  17.8268190  20.9958380  89.6953310  16.5836590  21.8591330  89.6613450
  24.2252790  24.2965290  72.6783370  24.1203430  23.6817640  73.4044750
  24.0577010  23.7731180  71.8946380  24.3767110  22.9822090  88.6572600
  23.6112780  23.5507090  88.5727270  24.5583070  22.6898300  87.7640830
  27.4655520  23.3585320  73.2825360  26.9165620  23.8054620  73.9268100
  28.0874780  22.8534570  73.8063030  31.5190460  24.7127420  89.2147620
  32.2599930  25.0503180  88.7115080  30.7563140  24.8819480  88.6617390
  19.3552250  19.7180690  90.0187150  19.3957590  19.4194560  90.9272380
  20.2097750  20.1188300  89.8594670  23.1330640  22.3176240  75.1790660
  23.5547060  22.1516110  76.0222050  23.2581480  21.5076470  74.6845800
  21.2958060  18.2972790  87.9861640  20.7654520  17.8063740  87.3584980
  21.9646130  18.7256990  87.4519570  25.6458280  21.3413850  72.4267760
  26.1663940  20.6262870  72.0608910  26.2926680  21.9799720  72.7268270
  30.1936120  22.7642250  87.7502830  30.6077140  22.9187330  88.5993250
  29.2587120  22.8897470  87.9128610  30.6658290  20.1038410  89.7541980
  31.2479060  19.3490730  89.6662460  30.8420060  20.6345850  88.9773460
  21.7830360  15.2635160  88.0658930  21.6887230  14.6455910  87.3409800
  21.2027750  15.9901450  87.8388840  24.5491800  13.8208400  85.0986320
  24.1009100  13.8432660  84.2531870  23.9157000  13.4227420  85.6956620
  24.9551350  22.7162730  85.7198760  25.3739460  23.5595460  85.5475000
  24.0359980  22.8534770  85.4905540  27.2915250  20.4478910  87.1036600
  27.4111460  19.8520050  87.8431440  28.1509250  20.4848600  86.6837900
  29.6303150  21.0016100  85.6799110  29.1038370  21.5258720  85.0764250
  29.9734490  21.6343490  86.3108840  22.0289540  18.3909470  72.1248820
  21.8278600  17.5276830  72.4862160  21.8581590  18.3042830  71.1870420
  22.8058770  29.0215740  86.8356490  22.2679860  29.7461800  86.5165190
  23.0592730  28.5446080  86.0453830  24.0584020  16.9900260  88.3612420
  24.6483710  16.6816110  89.0490240  23.2404260  16.5180010  88.5172320
  28.8777450  16.6066070  88.5945440  28.1892970  15.9447610  88.5295430
  29.5983470  16.1604340  89.0393900  29.5077850  13.2017700  74.6535700
  29.7880140  12.3585600  75.0095120  28.7343580  13.4340810  75.1674450
  20.8272340  15.4910090  72.1126700  21.1298240  15.4977520  71.2045850
  21.5666930  15.1407950  72.6094360  25.6620980  30.2566950  87.0943140
  25.5879680  31.1602090  87.4015510  24.7599820  29.9378850  87.0665210
  24.0457270  14.4344710  73.0982900  23.6979270  13.7568700  72.5185350
  24.2470040  13.9734220  73.9126290  26.2106310  29.4225460  74.7169500
  27.1057100  29.7610430  74.7388260  26.2423940  28.7004870  74.0893780
  19.8502470  24.7952510  72.9456500  20.2877340  25.3382180  73.6014080
  20.3350200  23.9699460  72.9552840  17.0648270  27.5841540  80.3976760
  17.3951280  26.7162600  80.1655400  17.4939270  27.7900060  81.2281720
  21.6610190  25.9150550  78.0578730  21.3605730  25.7915520  78.9582640
  21.5547680  25.0559140  77.6494460  17.5538480  28.4512130  83.1358390
  17.1169470  28.6312930  83.9682540  18.1216160  29.2086750  82.9940110
  33.1900660  27.9529130  87.4235700  32.5902650  28.0121690  86.6799620
  33.3194560  27.0134110  87.5532550  34.4302110  25.6946950  72.7605410
  33.5995070  25.7623600  73.2312640  34.6073940  26.5851070  72.4572270
  33.8858570  22.4394430  75.2639610  34.6477480  23.0091080  75.3699300
  33.9012940  21.8721630  76.0347920  17.3862910  20.9632360  79.4947270
  16.7311750  20.6944000  78.8506970  18.2240860  20.8536840  79.0449250
  34.8918540  23.2944530  80.1081540  35.2627370  22.5111850  79.7017510
  35.5320470  23.9833630  79.9298840  31.8752300  24.6781110  85.5211860
  31.0612140  25.1078270  85.7837650  32.2826500  25.2899520  84.9080910
  33.9377740  22.7328800  72.4212130  34.2126580  23.6407680  72.2931350
  33.7488480  22.6691330  73.3574120  30.3353350  15.7573650  73.7165760
  30.7538230  15.5704630  72.8762420  30.0289410  14.9052700  74.0268690
  33.8343080  20.6697790  77.4141560  33.4586680  19.9025720  76.9822850
  33.1046200  21.0520490  77.9016490  18.4238840  21.3484930  84.0350610
  18.7911880  21.2612330  84.9146630  17.8549660  20.5851480  83.9357470
  33.2242700  19.8169310  87.0481080  32.9928790  19.5882060  86.1479030
  33.4847250  20.7368860  87.0025970  17.9754840  18.2594020  87.9409030
  17.0810890  18.2260780  88.2802740  18.5152390  18.4580810  88.7060280
  31.6630770  15.0425740  89.8260780  32.5400950  15.0509140  90.2094780
  31.6751610  14.3056580  89.2153130  16.6000990  18.1731290  75.4372600
  15.6965070  18.4361490  75.2624260  17.0841610  18.4442460  74.6572560
  33.1094040  18.8955280  80.7148800  33.6331520  18.4017930  80.0838970
  33.6953460  19.0305640  81.4596370  33.2883760  18.9795150  84.2368350
  32.3386470  18.9458690  84.3513340  33.4696770  19.8895260  84.0018120
  19.1428200  17.2296830  73.3466980  19.8519900  16.8080050  72.8614260
  18.4268140  17.2972060  72.7150330  18.7902360  13.2836160  72.3869630
  19.5130490  13.8245100  72.7050850  19.0626880  13.0099580  71.5111170
  32.5994010  18.1528630  76.6541210  33.0953130  17.9199500  77.4390090
  32.4010080  17.3140470  76.2378850  18.4794550  12.5342350  82.2892250
  19.1270740  11.9839730  81.8487410  18.8996390  12.7885500  83.1108060
  34.0281170  16.7889580  79.1878890  33.9180450  16.6345620  80.1261160
  34.7888760  16.2610520  78.9454300  32.3746890  12.7283710  85.6461890
  33.0119110  13.3417850  86.0121080  32.5221780  12.7644370  84.7011120
  34.9171440  14.6197500  72.4285030  35.8420750  14.4878680  72.2203320
  34.8947230  14.6990320  73.3821480  34.9909930  15.3908160  75.0541740
  34.1961430  15.3253280  75.5834650  35.1953210  16.3258800  75.0427090
  31.9328350  29.4299710  79.0480130  32.5287420  29.1084280  78.3714550
  32.1906500  28.9571530  79.8393400  18.2326550  12.6898020  85.0317570
  17.8841370  13.1461840  85.7975750  17.9014250  11.7955150  85.1140000
  19.8390920  25.8617620  89.1970760  19.7960550  25.4910530  90.0785220
  19.9701930  26.7995190  89.3372580  23.5396950  27.4177210  84.7980480
  23.2988310  27.6851770  83.9111000  24.4799590  27.5882940  84.8531340
  25.7451370  13.8809900  88.5536990  25.6840260  14.4731730  89.3032400
  26.6851750  13.7735860  88.4087250  28.3825930  13.5379960  88.1929280
  28.9966340  13.8559250  87.5310360  28.9275490  13.0528550  88.8125140
  34.8001110  29.4371590  85.5991120  34.3059390  29.8340460  84.8818250
  34.1914400  28.8120800  85.9928400  18.9047190  12.2174220  88.3068340
  19.4530180  12.0362270  87.5434450  18.9702500  11.4268330  88.8424650
  19.6778950  28.8079870  86.3168540  19.0839270  28.6764570  87.0558580
  19.6702790  27.9718010  85.8510640  29.1233970  12.1012100  84.5198570
  28.2493810  12.4347210  84.3171500  29.0144720  11.6285280  85.3450440
  30.0305950  14.3082970  85.9040290  29.7019310  13.4934730  85.5242020
  30.9788250  14.2652780  85.7805980  32.4840560  30.0795010  82.8777860
  32.0243530  30.8310820  82.5035880  31.8553020  29.3601480  82.8192660
  19.3091180  26.1738250  85.2676580  18.5825240  25.5543540  85.2002530
  19.3700330  26.5678860  84.3974660  22.9136280  28.3883250  82.0525990
  23.4301300  27.7770610  81.5274250  23.5633660  28.8912030  82.5437000
  25.6531780  29.2791740  82.8794970  25.9409590  29.0246040  82.0027980
  26.1655000  28.7269100  83.4700540  26.8708790  13.0181940  83.4591480
  26.0880580  13.4927440  83.7388240  26.5771720  12.1136770  83.3504660
  31.4229860  13.7205040  81.5040570  31.8637950  13.6650140  80.6562170
  31.1537450  14.6363050  81.5750750  33.2868430  13.3520280  79.5149390
  33.2256830  12.4081500  79.3680410  34.0660460  13.4600370  80.0602850
  17.5921180  29.4912640  78.4773340  17.4243220  28.8583320  79.1755230
  16.7255690  29.6972040  78.1267530  18.2149200  13.3229420  75.9805200
  18.9728560  13.4358300  75.4069230  17.7526370  14.1598620  75.9348630
  24.7563010  15.4368690  78.9707510  23.9437520  15.0625580  78.6303390
  25.2604650  14.6813770  79.2728700  29.2587990  12.1011140  80.2090580
  29.8617360  12.6731350  80.6839100  28.5180980  12.6650580  79.9864480
  32.4022590  12.5032700  75.4830860  32.5973220  13.4016150  75.7498290
  31.6152460  12.2719780  75.9763810  19.1983880  28.1845870  75.9223480
  18.6731500  28.5653900  75.2185440  19.1228460  28.8096640  76.6433190
  20.5874350  13.8493470  74.5207170  21.1167110  13.0623270  74.3915120
  21.2202670  14.5284660  74.7542700  22.7812190  13.5868610  77.5752560
  22.1514930  12.8855920  77.7422690  22.2417330  14.3472740  77.3585720
  25.7204140  30.2007840  90.2463170  26.6471450  29.9652110  90.2899130
  25.7054570  31.0279840  89.7649200  33.9549200  29.7433410  77.2437420
  34.1301390  29.0571150  76.5998340  33.2570770  30.2680460  76.8514090
  22.9067750  12.8652590  90.0105050  22.6252020  13.3686190  89.2465870
  23.2887450  12.0674340  89.6447180  21.7976850  30.1328250  74.7972730
  22.5295670  29.8487530  74.2496620  22.0570520  29.8941530  75.6872110
  20.9591640  26.2492980  74.8019060  20.3300520  26.7178080  75.3504890
  21.0739470  25.4042200  75.2365250  29.5083210  12.2806170  90.5885520
  29.3948660  12.6000780  91.4837040  30.3252950  12.6818680  90.2922800
  32.2881700  29.4277700  90.0704210  33.0807020  28.9326930  89.8630170
  32.5814850  30.1067840  90.6779820  28.4141360  20.2998640  60.9520260
  28.3335410  19.3853250  60.6811970  28.0005780  20.7965710  60.2459970
  26.5459400  22.0777660  62.8329530  25.7701500  21.5978100  63.1228100
  27.1972330  21.3983310  62.6585690  20.5625230  22.3897470  63.7105290
  19.7310110  22.1346180  64.1101800  21.1706210  22.4608240  64.4463210
  20.5426490  26.4237560  63.9063310  20.8454530  25.5335300  63.7273530
  21.2870080  26.9807780  63.6785560  18.9717180  17.3499360  57.4947680
  18.0833880  17.6915330  57.3927560  19.2558370  17.1499680  56.6028510
  16.9350190  19.9505010  63.3787380  17.5066300  19.1827210  63.3791020
  16.9351730  20.2493770  62.4693990  25.9868390  24.7534850  62.8399690
  25.9176670  23.8124790  62.6788820  26.7488250  24.8436260  63.4122260
  18.1775060  15.3589370  65.1656310  17.9977900  14.4615120  65.4459070
  17.7755140  15.9061240  65.8403260  27.0173560  17.5605230  63.0668620
  27.3938380  16.6877110  62.9542290  26.9193070  17.8963930  62.1759060
  21.1478570  15.9330860  58.5286060  21.2545320  16.8334590  58.8354820
  20.2370930  15.8848830  58.2380710  30.7997680  15.0555670  59.9996960
  31.6207300  14.5652240  60.0422440  30.8331760  15.6453330  60.7528800
  18.7961730  17.8549870  63.7738650  19.4771840  18.1188240  64.3926050
  18.4809780  17.0150740  64.1076660  22.9886300  18.9017230  62.8611240
  23.4964520  19.3998200  63.5016260  23.5199540  18.1252430  62.6850600
  35.0897230  17.0722420  66.5640590  34.3849400  17.4604130  66.0455700
  35.3555150  17.7672710  67.1661520  21.2722400  13.5415790  67.1274660
  21.2740840  14.0588180  66.3220560  20.4426710  13.0645970  67.1044590
  27.6593490  23.6535100  58.6264560  27.0410760  24.1184550  58.0627280
  28.1716740  24.3462580  59.0434070  22.5225250  23.1810970  65.3048160
  22.1894630  23.8079890  65.9469230  22.6991930  23.7072850  64.5249830
  31.0359160  16.9956050  62.7724500  30.3314730  17.2840940  63.3527610
  31.3971320  17.8056160  62.4124060  20.9537730  15.2525750  65.1345110
  21.2954540  16.0967800  64.8398980  20.0153540  15.4009490  65.2510450
  21.7344350  25.1491770  67.1197340  22.3518350  25.8242850  66.8381790
  20.8737470  25.5579750  67.0284840  17.0276690  24.3391630  56.0004190
  16.6504670  24.8278730  55.2689090  17.2849760  25.0116910  56.6310720
  34.1046080  16.4410840  63.1633710  33.1570990  16.4749820  63.2949140
  34.4296070  17.2549790  63.5483070  24.6365620  12.7408020  61.4589700
  24.9440600  12.1854910  60.7425200  23.7066320  12.8752480  61.2762690
  30.1880680  28.4575310  63.7497160  30.2007840  28.0537600  62.8819420
  29.6355900  29.2322600  63.6458590  27.0246380  20.8056850  58.1949820
  26.0975660  20.7394230  58.4238290  27.1771200  21.7436980  58.0805060
  27.0115460  17.0773850  55.1916980  26.0719130  17.2387810  55.2769440
  27.3298720  17.7959530  54.6452970  30.4970230  18.5461690  66.1150880
  30.0841410  19.3715400  66.3690870  29.7646180  17.9606730  65.9227240
  22.6303020  21.3321590  60.9769550  22.2260020  20.6198840  60.4815450
  22.7166140  20.9874830  61.8657590  23.0984720  25.0189150  63.1408760
  22.8013010  24.4134620  62.4616540  24.0484540  25.0566460  63.0298120
  21.3431640  18.1064800  64.7568590  21.8946230  18.2160140  63.9821840
  21.8575150  18.4802400  65.4723820  31.1870330  28.5921020  66.8031860
  30.7100890  29.3993210  66.6104470  30.5032120  27.9399350  66.9558070
  22.1903150  24.7570840  69.7916560  21.2931680  24.9810810  70.0389960
  22.2156020  24.8805780  68.8427960  29.2308370  21.6063960  55.7057820
  29.6701650  20.7686390  55.5595640  29.9436790  22.2393360  55.7921960
  21.0174370  21.6284160  68.3673930  20.8782140  22.5006960  68.7361330
  20.1355730  21.2856970  68.2221870  22.8154720  27.5705860  70.5759080
  22.7870150  27.9748810  69.7087510  22.6519690  26.6416220  70.4130680
  32.8125510  12.8606770  54.0198860  32.4998170  12.9533600  54.9197930
  33.5737980  13.4387800  53.9696290  19.3307650  20.2266570  58.4776200
  19.2105250  20.9528660  57.8657470  19.0208540  19.4569480  58.0004110
  34.7669540  28.3532960  71.8723250  35.2429260  28.8315850  72.5512330
  35.3876700  28.2850450  71.1468750  16.9693020  23.3981710  64.2844840
  17.0473440  23.5330480  63.3400560  17.5834700  22.6897600  64.4772960
  18.2140650  25.0981900  60.6951020  17.8068730  25.2396490  59.8404620
  19.1053660  24.8142060  60.4922230  34.1702790  25.5445810  69.0323260
  34.2965850  25.3057690  68.1140440  34.2124170  24.7130350  69.5045340
  28.0319530  29.2473810  67.6018070  28.5464200  29.1581820  68.4040500
  27.1888610  29.5933510  67.8945980  22.4862310  29.3127680  58.8073690
  22.3104790  28.3963220  58.5941490  21.6318050  29.6714970  59.0471490
  34.0226800  17.5978270  69.9973000  33.4071070  18.1057940  69.4688460
  33.7023220  16.6976600  69.9398940  17.0252540  24.4395880  66.8239300
  17.1883580  23.9701240  66.0058670  17.4904990  23.9319440  67.4888140
  21.7971310  13.5701640  61.8599870  21.3539460  14.3511180  61.5284390
  22.3556300  13.8931530  62.5670810  26.0841120  16.4370160  67.4635190
  25.6220490  16.6453180  68.2755130  25.6819230  15.6229510  67.1605860
  31.0845630  17.6579110  68.5931850  30.2339220  17.3584860  68.9140920
  30.9247420  17.9021120  67.6815670  28.1795340  19.1580860  70.6930640
  28.5048750  18.3244610  70.3532870  28.9675670  19.6809380  70.8408970
  24.9130130  13.1912340  56.7405700  24.2884310  13.1872210  57.4659010
  24.8260250  12.3243300  56.3441670  23.8347210  14.1148970  63.7189470
  24.1319540  15.0211800  63.6381490  24.3832770  13.6267750  63.1049040
  21.5885530  18.6935210  59.5881120  21.3626450  18.4772380  60.4927740
  20.8078060  19.1263670  59.2427090  28.8183290  18.6998580  58.1871770
  28.2192180  19.4234380  58.0035390  29.3662900  18.6375360  57.4048220
  24.0284740  19.5920790  70.2541390  23.9328340  18.6515520  70.1041790
  24.8716720  19.8135860  69.8589460  27.4248160  17.3362120  60.2175050
  27.8177730  17.6534320  59.4043740  27.7865010  16.4574000  60.3319570
  19.1595280  16.0034460  68.4075170  18.7658670  16.8509670  68.6147950
  18.4713680  15.3660830  68.5983810  25.7340330  16.0869430  71.4771910
  25.0438650  15.8941630  72.1118000  26.4772630  16.3704070  72.0096210
  16.4612330  13.9262920  62.4405250  16.1725380  14.4965780  63.1530230
  17.2058090  13.4467370  62.8036480  16.6482560  17.8683040  53.6507970
  16.5657230  18.8113800  53.7922960  16.2965620  17.7257950  52.7720320
  28.0103300  19.9267870  64.3125830  27.2784420  20.4354680  64.6615930
  27.6127640  19.1097850  64.0114610  24.4480690  16.6022070  62.7178320
  24.4516750  16.1612020  61.8682860  25.3431810  16.9239400  62.8250140
  20.2983070  16.4848560  61.6772530  19.9583120  16.9623790  62.4339580
  19.5360390  16.0313680  61.3173630  24.5100840  17.6034150  55.7085080
  24.6313660  17.5620630  56.6570900  24.1249350  18.4658300  55.5531810
  28.4729210  15.3801550  63.7248770  28.4901950  15.8310200  64.5690620
  28.2244790  14.4807190  63.9382210  23.5222340  19.9135290  55.1068380
  22.9539240  19.4653540  54.4804290  24.2311340  20.2728070  54.5733530
  31.8999960  12.7933730  69.5635150  32.2245730  12.0623390  70.0893130
  31.9356470  12.4747370  68.6616140  18.5991520  23.8147310  68.9835110
  18.2146310  23.1740980  69.5818070  18.9103710  24.5183430  69.5529840
  24.7488660  20.6623850  64.4643730  25.1158790  20.1882420  65.2105070
  24.5593720  21.5365420  64.8052070  17.6129150  15.4067540  60.5937200
  17.3276070  15.0423210  61.4315820  17.5508010  14.6748000  59.9800340
  22.5388030  19.7032490  66.7827940  22.2345100  20.5824470  67.0078300
  23.4934490  19.7632280  66.8185380  21.0669820  23.9093480  57.3794790
  20.2932080  23.3691100  57.2193510  21.7964450  23.3900090  57.0412550
  27.2867740  14.2996800  57.3150570  26.4732350  13.8009970  57.2395880
  27.0929690  15.1395050  56.8986920  27.2076600  22.9767900  69.0590180
  27.1413910  22.0563570  68.8047770  26.5781740  23.0743340  69.7734820
  30.0016130  18.6716450  55.6112730  30.8895750  18.9833680  55.4364070
  29.9721220  17.7988700  55.2193310  21.1107220  23.5773860  61.0173600
  21.6285890  22.7742120  60.9630490  20.6591240  23.5153000  61.8590430
  18.5951760  20.5435230  67.9299300  18.2366700  21.2089080  68.5172640
  18.3006320  19.7118780  68.3011920  21.7964880  21.0019470  70.8138850
  21.4965020  21.1476650  69.9166670  22.5676120  20.4424760  70.7212240
  27.1393330  25.7988470  68.8093980  27.1537870  24.8669430  68.5912890
  26.4318430  25.8848230  69.4483750  32.2730400  19.9828290  55.0792590
  32.1894120  20.4142510  54.2289030  32.9924590  20.4426640  55.5119410
  33.3504540  22.4395810  68.1562560  32.6252730  23.0324590  67.9591950
  33.8780000  22.4319350  67.3575930  24.9667410  24.9253670  59.0616820
  25.6538540  25.4722880  59.4424410  24.1799830  25.4694400  59.0966430
  17.1059810  20.5426490  54.5533900  17.9754660  20.8251290  54.8369820
  16.6150130  21.3562360  54.4382710  24.2694620  21.9299700  58.6742180
  24.7257400  22.7404950  58.9002370  23.9182830  21.6122840  59.5060670
  26.5727230  27.4406040  65.9034480  27.2169450  27.6465420  66.5807900
  26.9356670  26.6794440  65.4505330  20.1706400  12.2737350  59.1464700
  20.0421030  12.2655250  60.0949620  19.3468420  12.6120440  58.7955710
  27.8459310  25.4438390  64.6211930  28.4881540  24.7431550  64.7344100
  28.3708660  26.2236830  64.4408820  29.6196930  26.2433290  67.8247990
  29.9553170  26.8299980  68.5025910  28.6997270  26.1126000  68.0545780
  17.4731060  29.7553870  55.1195530  17.8328700  30.3543210  54.4652800
  17.3323400  30.3013760  55.8930560  17.1700330  14.0328470  68.6071400
  16.4558850  14.2325390  69.2124010  17.5895370  13.2568040  68.9786200
  17.4572920  28.0208730  69.5937930  17.5664040  27.0803470  69.4533320
  16.8053480  28.2863480  68.9451660  25.4485510  26.2924620  70.9936050
  25.1282380  25.5733860  71.5381740  24.7743870  26.9679690  71.0672110
  23.4899680  27.1385070  55.9369200  23.4809780  27.8714760  55.3213710
  22.5698040  26.8916650  56.0296160  19.0906320  22.3599960  56.6815960
  18.4834270  23.0998860  56.6911260  19.5655670  22.4499320  55.8554160
  28.6639110  16.5250780  66.3572850  29.0319930  15.7045990  66.6852420
  27.8037310  16.5852670  66.7728500  32.0301140  15.4807720  57.1660410
  31.4014300  15.5853390  56.4518640  31.5353060  15.7004500  57.9554290
  23.9985170  17.7593670  58.5818290  23.2901320  18.2280010  59.0231900
  24.2829650  17.1015680  59.2163480  25.6241100  19.1790370  66.5810820
  26.1226350  19.6536190  67.2462670  25.7664050  18.2553890  66.7880850
  28.0300600  14.4844330  60.0214080  27.9068380  14.5030460  59.0723590
  28.9785160  14.5323270  60.1412480  25.1177390  29.7199630  59.2942060
  25.3718890  29.6821020  58.3721430  24.1689870  29.5932960  59.2870310
  22.2020190  16.0678750  55.9569000  23.0510720  16.5048900  55.8909190
  21.8351460  16.3799010  56.7841060  32.8307960  15.3958330  67.4239210
  32.3281560  16.1363730  67.7633020  33.6464620  15.7842330  67.1076000
  31.1229970  20.6391510  60.8700570  30.1820110  20.6541740  61.0448260
  31.4374040  19.8527470  61.3160870  21.1011610  22.3211110  54.4304530
  21.8674880  22.2092470  54.9929960  21.1786300  21.6249080  53.7781300
  19.7958370  19.7536180  55.1137420  19.8761960  18.8063690  55.2254820
  20.6878120  20.0843060  55.2198080  20.5973080  29.9031570  62.2171960
  21.3335560  29.3547030  62.4880530  20.9814000  30.7687580  62.0777950
  17.4818560  25.9705140  58.0913470  16.5558340  26.2126280  58.0818880
  17.9474990  26.7979400  57.9698220  19.6031360  29.0877640  71.4057540
  20.4044090  29.4089690  71.8192940  19.0883180  28.7273220  72.1277450
  23.7075390  29.0761880  54.0397530  24.5004000  29.3650710  53.5879320
  23.1879740  28.6454050  53.3610010  28.4395990  25.1957510  71.3532950
  27.8334150  25.2189110  70.6128700  28.1350100  24.4640550  71.8900200
  29.8696360  28.9237800  69.9642360  30.8218110  28.8395820  69.9142600
  29.7224580  29.5879510  70.6376150  17.3229170  21.5751100  70.3493590
  17.8268190  20.9958380  70.9209820  16.5836590  21.8591330  70.8869960
  24.3767110  22.9822090  69.8829110  23.6112780  23.5507090  69.7983780
  24.5583070  22.6898300  68.9897340  31.5190460  24.7127420  70.4404130
  32.2599930  25.0503180  69.9371590  30.7563140  24.8819480  69.8873900
  19.3552250  19.7180690  71.2443660  19.3957590  19.4194560  72.1528890
  20.2097750  20.1188300  71.0851180  23.1330640  22.3176240  56.4047170
  23.5547060  22.1516110  57.2478560  23.2581480  21.5076470  55.9102310
  21.2958060  18.2972790  69.2118150  20.7654520  17.8063740  68.5841490
  21.9646130  18.7256990  68.6776080  30.1936120  22.7642250  68.9759340
  30.6077140  22.9187330  69.8249760  29.2587120  22.8897470  69.1385120
  30.6658290  20.1038410  70.9798490  31.2479060  19.3490730  70.8918970
  30.8420060  20.6345850  70.2029970  21.7830360  15.2635160  69.2915440
  21.6887230  14.6455910  68.5666310  21.2027750  15.9901450  69.0645350
  24.5491800  13.8208400  66.3242830  24.1009100  13.8432660  65.4788380
  23.9157000  13.4227420  66.9213130  24.9551350  22.7162730  66.9455270
  25.3739460  23.5595460  66.7731510  24.0359980  22.8534770  66.7162050
  27.2915250  20.4478910  68.3293110  27.4111460  19.8520050  69.0687950
  28.1509250  20.4848600  67.9094410  29.6303150  21.0016100  66.9055620
  29.1038370  21.5258720  66.3020760  29.9734490  21.6343490  67.5365350
  22.0289540  18.3909470  53.3505330  21.8278600  17.5276830  53.7118670
  21.8581590  18.3042830  52.4126930  22.8058770  29.0215740  68.0613000
  22.2679860  29.7461800  67.7421700  23.0592730  28.5446080  67.2710340
  24.0584020  16.9900260  69.5868930  24.6483710  16.6816110  70.2746750
  23.2404260  16.5180010  69.7428830  28.8777450  16.6066070  69.8201950
  28.1892970  15.9447610  69.7551940  29.5983470  16.1604340  70.2650410
  29.5077850  13.2017700  55.8792210  29.7880140  12.3585600  56.2351630
  28.7343580  13.4340810  56.3930960  20.8272340  15.4910090  53.3383210
  21.1298240  15.4977520  52.4302360  21.5666930  15.1407950  53.8350870
  25.6620980  30.2566950  68.3199650  25.5879680  31.1602090  68.6272020
  24.7599820  29.9378850  68.2921720  24.0457270  14.4344710  54.3239410
  23.6979270  13.7568700  53.7441860  24.2470040  13.9734220  55.1382800
  19.8502470  24.7952510  54.1713010  20.2877340  25.3382180  54.8270590
  20.3350200  23.9699460  54.1809350  17.0648270  27.5841540  61.6233270
  17.3951280  26.7162600  61.3911910  17.4939270  27.7900060  62.4538230
  21.6610190  25.9150550  59.2835240  21.3605730  25.7915520  60.1839150
  21.5547680  25.0559140  58.8750970  17.5538480  28.4512130  64.3614900
  17.1169470  28.6312930  65.1939050  18.1216160  29.2086750  64.2196620
  33.1900660  27.9529130  68.6492210  32.5902650  28.0121690  67.9056130
  33.3194560  27.0134110  68.7789060  17.3862910  20.9632360  60.7203780
  16.7311750  20.6944000  60.0763480  18.2240860  20.8536840  60.2705760
  30.3353350  15.7573650  54.9422270  30.7538230  15.5704630  54.1018930
  30.0289410  14.9052700  55.2525200  33.8343080  20.6697790  58.6398070
  33.4586680  19.9025720  58.2079360  33.1046200  21.0520490  59.1273000
  18.4238840  21.3484930  65.2607120  18.7911880  21.2612330  66.1403140
  17.8549660  20.5851480  65.1613980  33.2242700  19.8169310  68.2737590
  32.9928790  19.5882060  67.3735540  33.4847250  20.7368860  68.2282480
  17.9754840  18.2594020  69.1665540  17.0810890  18.2260780  69.5059250
  18.5152390  18.4580810  69.9316790  31.6630770  15.0425740  71.0517290
  32.5400950  15.0509140  71.4351290  31.6751610  14.3056580  70.4409640
  16.6000990  18.1731290  56.6629110  15.6965070  18.4361490  56.4880770
  17.0841610  18.4442460  55.8829070  33.1094040  18.8955280  61.9405310
  33.6331520  18.4017930  61.3095480  33.6953460  19.0305640  62.6852880
  33.2883760  18.9795150  65.4624860  32.3386470  18.9458690  65.5769850
  33.4696770  19.8895260  65.2274630  19.1428200  17.2296830  54.5723490
  19.8519900  16.8080050  54.0870770  18.4268140  17.2972060  53.9406840
  18.7902360  13.2836160  53.6126140  19.5130490  13.8245100  53.9307360
  19.0626880  13.0099580  52.7367680  32.5994010  18.1528630  57.8797720
  33.0953130  17.9199500  58.6646600  32.4010080  17.3140470  57.4635360
  18.4794550  12.5342350  63.5148760  19.1270740  11.9839730  63.0743920
  18.8996390  12.7885500  64.3364570  34.0281170  16.7889580  60.4135400
  33.9180450  16.6345620  61.3517670  34.7888760  16.2610520  60.1710810
  32.3746890  12.7283710  66.8718400  33.0119110  13.3417850  67.2377590
  32.5221780  12.7644370  65.9267630  34.9171440  14.6197500  53.6541540
  35.8420750  14.4878680  53.4459830  34.8947230  14.6990320  54.6077990
  34.9909930  15.3908160  56.2798250  34.1961430  15.3253280  56.8091160
  35.1953210  16.3258800  56.2683600  18.2326550  12.6898020  66.2574080
  17.8841370  13.1461840  67.0232260  17.9014250  11.7955150  66.3396510
  19.8390920  25.8617620  70.4227270  19.7960550  25.4910530  71.3041730
  19.9701930  26.7995190  70.5629090  23.5396950  27.4177210  66.0236990
  23.2988310  27.6851770  65.1367510  24.4799590  27.5882940  66.0787850
  25.7451370  13.8809900  69.7793500  25.6840260  14.4731730  70.5288910
  26.6851750  13.7735860  69.6343760  28.3825930  13.5379960  69.4185790
  28.9966340  13.8559250  68.7566870  28.9275490  13.0528550  70.0381650
  34.8001110  29.4371590  66.8247630  34.3059390  29.8340460  66.1074760
  34.1914400  28.8120800  67.2184910  18.9047190  12.2174220  69.5324850
  19.4530180  12.0362270  68.7690960  18.9702500  11.4268330  70.0681160
  19.6778950  28.8079870  67.5425050  19.0839270  28.6764570  68.2815090
  19.6702790  27.9718010  67.0767150  29.1233970  12.1012100  65.7455080
  28.2493810  12.4347210  65.5428010  29.0144720  11.6285280  66.5706950
  30.0305950  14.3082970  67.1296800  29.7019310  13.4934730  66.7498530
  30.9788250  14.2652780  67.0062490  32.4840560  30.0795010  64.1034370
  32.0243530  30.8310820  63.7292390  31.8553020  29.3601480  64.0449170
  19.3091180  26.1738250  66.4933090  18.5825240  25.5543540  66.4259040
  19.3700330  26.5678860  65.6231170  22.9136280  28.3883250  63.2782500
  23.4301300  27.7770610  62.7530760  23.5633660  28.8912030  63.7693510
  25.6531780  29.2791740  64.1051480  25.9409590  29.0246040  63.2284490
  26.1655000  28.7269100  64.6957050  26.8708790  13.0181940  64.6847990
  26.0880580  13.4927440  64.9644750  26.5771720  12.1136770  64.5761170
  31.4229860  13.7205040  62.7297080  31.8637950  13.6650140  61.8818680
  31.1537450  14.6363050  62.8007260  33.2868430  13.3520280  60.7405900
  33.2256830  12.4081500  60.5936920  34.0660460  13.4600370  61.2859360
  17.5921180  29.4912640  59.7029850  17.4243220  28.8583320  60.4011740
  16.7255690  29.6972040  59.3524040  18.2149200  13.3229420  57.2061710
  18.9728560  13.4358300  56.6325740  17.7526370  14.1598620  57.1605140
  24.7563010  15.4368690  60.1964020  23.9437520  15.0625580  59.8559900
  25.2604650  14.6813770  60.4985210  29.2587990  12.1011140  61.4347090
  29.8617360  12.6731350  61.9095610  28.5180980  12.6650580  61.2120990
  32.4022590  12.5032700  56.7087370  32.5973220  13.4016150  56.9754800
  31.6152460  12.2719780  57.2020320  19.1983880  28.1845870  57.1479990
  18.6731500  28.5653900  56.4441950  19.1228460  28.8096640  57.8689700
  20.5874350  13.8493470  55.7463680  21.1167110  13.0623270  55.6171630
  21.2202670  14.5284660  55.9799210  22.7812190  13.5868610  58.8009070
  22.1514930  12.8855920  58.9679200  22.2417330  14.3472740  58.5842230
  25.7204140  30.2007840  71.4719680  26.6471450  29.9652110  71.5155640
  25.7054570  31.0279840  70.9905710  22.9067750  12.8652590  71.2361560
  22.6252020  13.3686190  70.4722380  23.2887450  12.0674340  70.8703690
  21.7976850  30.1328250  56.0229240  22.5295670  29.8487530  55.4753130
  22.0570520  29.8941530  56.9128620  20.9591640  26.2492980  56.0275570
  20.3300520  26.7178080  56.5761400  21.0739470  25.4042200  56.4621760
  29.5083210  12.2806170  71.8142030  29.3948660  12.6000780  72.7093550
  30.3252950  12.6818680  71.5179310  32.2881700  29.4277700  71.2960720
  33.0807020  28.9326930  71.0886680  32.5814850  30.1067840  71.9036330
  26.5459400  22.0777660  44.0586040  25.7701500  21.5978100  44.3484610
  27.1972330  21.3983310  43.8842200  20.5625230  22.3897470  44.9361800
  19.7310110  22.1346180  45.3358310  21.1706210  22.4608240  45.6719720
  20.5426490  26.4237560  45.1319820  20.8454530  25.5335300  44.9530040
  21.2870080  26.9807780  44.9042070  18.9717180  17.3499360  38.7204190
  18.0833880  17.6915330  38.6184070  19.2558370  17.1499680  37.8285020
  16.9350190  19.9505010  44.6043890  17.5066300  19.1827210  44.6047530
  16.9351730  20.2493770  43.6950500  25.9868390  24.7534850  44.0656200
  25.9176670  23.8124790  43.9045330  26.7488250  24.8436260  44.6378770
  18.1775060  15.3589370  46.3912820  17.9977900  14.4615120  46.6715580
  17.7755140  15.9061240  47.0659770  27.0173560  17.5605230  44.2925130
  27.3938380  16.6877110  44.1798800  26.9193070  17.8963930  43.4015570
  21.1478570  15.9330860  39.7542570  21.2545320  16.8334590  40.0611330
  20.2370930  15.8848830  39.4637220  30.7997680  15.0555670  41.2253470
  31.6207300  14.5652240  41.2678950  30.8331760  15.6453330  41.9785310
  18.7961730  17.8549870  44.9995160  19.4771840  18.1188240  45.6182560
  18.4809780  17.0150740  45.3333170  22.9886300  18.9017230  44.0867750
  23.4964520  19.3998200  44.7272770  23.5199540  18.1252430  43.9107110
  21.2722400  13.5415790  48.3531170  21.2740840  14.0588180  47.5477070
  20.4426710  13.0645970  48.3301100  22.5225250  23.1810970  46.5304670
  22.1894630  23.8079890  47.1725740  22.6991930  23.7072850  45.7506340
  20.9537730  15.2525750  46.3601620  21.2954540  16.0967800  46.0655490
  20.0153540  15.4009490  46.4766960  21.7344350  25.1491770  48.3453850
  22.3518350  25.8242850  48.0638300  20.8737470  25.5579750  48.2541350
  24.6365620  12.7408020  42.6846210  24.9440600  12.1854910  41.9681710
  23.7066320  12.8752480  42.5019200  21.3431640  18.1064800  45.9825100
  21.8946230  18.2160140  45.2078350  21.8575150  18.4802400  46.6980330
  21.0174370  21.6284160  49.5930440  20.8782140  22.5006960  49.9617840
  20.1355730  21.2856970  49.4478380  22.8154720  27.5705860  51.8015590
  22.7870150  27.9748810  50.9344020  22.6519690  26.6416220  51.6387190
  32.8125510  12.8606770  35.2455370  32.4998170  12.9533600  36.1454440
  33.5737980  13.4387800  35.1952800  16.9693020  23.3981710  45.5101350
  17.0473440  23.5330480  44.5657070  17.5834700  22.6897600  45.7029470
  22.4862310  29.3127680  40.0330200  22.3104790  28.3963220  39.8198000
  21.6318050  29.6714970  40.2728000  34.0226800  17.5978270  51.2229510
  33.4071070  18.1057940  50.6944970  33.7023220  16.6976600  51.1655450
  17.0252540  24.4395880  48.0495810  17.1883580  23.9701240  47.2315180
  17.4904990  23.9319440  48.7144650  21.7971310  13.5701640  43.0856380
  21.3539460  14.3511180  42.7540900  22.3556300  13.8931530  43.7927320
  26.0841120  16.4370160  48.6891700  25.6220490  16.6453180  49.5011640
  25.6819230  15.6229510  48.3862370  31.0845630  17.6579110  49.8188360
  30.2339220  17.3584860  50.1397430  30.9247420  17.9021120  48.9072180
  28.1795340  19.1580860  51.9187150  28.5048750  18.3244610  51.5789380
  28.9675670  19.6809380  52.0665480  24.9130130  13.1912340  37.9662210
  24.2884310  13.1872210  38.6915520  24.8260250  12.3243300  37.5698180
  23.8347210  14.1148970  44.9445980  24.1319540  15.0211800  44.8638000
  24.3832770  13.6267750  44.3305550  21.5885530  18.6935210  40.8137630
  21.3626450  18.4772380  41.7184250  20.8078060  19.1263670  40.4683600
  24.0284740  19.5920790  51.4797900  23.9328340  18.6515520  51.3298300
  24.8716720  19.8135860  51.0845970  27.4248160  17.3362120  41.4431560
  27.8177730  17.6534320  40.6300250  27.7865010  16.4574000  41.5576080
  19.1595280  16.0034460  49.6331680  18.7658670  16.8509670  49.8404460
  18.4713680  15.3660830  49.8240320  25.7340330  16.0869430  52.7028420
  25.0438650  15.8941630  53.3374510  26.4772630  16.3704070  53.2352720
  16.4612330  13.9262920  43.6661760  16.1725380  14.4965780  44.3786740
  17.2058090  13.4467370  44.0292990  16.6482560  17.8683040  34.8764480
  16.5657230  18.8113800  35.0179470  16.2965620  17.7257950  33.9976830
  24.4480690  16.6022070  43.9434830  24.4516750  16.1612020  43.0939370
  25.3431810  16.9239400  44.0506650  20.2983070  16.4848560  42.9029040
  19.9583120  16.9623790  43.6596090  19.5360390  16.0313680  42.5430140
  24.5100840  17.6034150  36.9341590  24.6313660  17.5620630  37.8827410
  24.1249350  18.4658300  36.7788320  28.4729210  15.3801550  44.9505280
  28.4901950  15.8310200  45.7947130  28.2244790  14.4807190  45.1638720
  23.5222340  19.9135290  36.3324890  22.9539240  19.4653540  35.7060800
  24.2311340  20.2728070  35.7990040  31.8999960  12.7933730  50.7891660
  32.2245730  12.0623390  51.3149640  31.9356470  12.4747370  49.8872650
  18.5991520  23.8147310  50.2091620  18.2146310  23.1740980  50.8074580
  18.9103710  24.5183430  50.7786350  24.7488660  20.6623850  45.6900240
  25.1158790  20.1882420  46.4361580  24.5593720  21.5365420  46.0308580
  17.6129150  15.4067540  41.8193710  17.3276070  15.0423210  42.6572330
  17.5508010  14.6748000  41.2056850  22.5388030  19.7032490  48.0084450
  22.2345100  20.5824470  48.2334810  23.4934490  19.7632280  48.0441890
  27.2867740  14.2996800  38.5407080  26.4732350  13.8009970  38.4652390
  27.0929690  15.1395050  38.1243430  18.5951760  20.5435230  49.1555810
  18.2366700  21.2089080  49.7429150  18.3006320  19.7118780  49.5268430
  21.7964880  21.0019470  52.0395360  21.4965020  21.1476650  51.1423180
  22.5676120  20.4424760  51.9468750  17.1059810  20.5426490  35.7790410
  17.9754660  20.8251290  36.0626330  16.6150130  21.3562360  35.6639220
  26.5727230  27.4406040  47.1290990  27.2169450  27.6465420  47.8064410
  26.9356670  26.6794440  46.6761840  20.1706400  12.2737350  40.3721210
  20.0421030  12.2655250  41.3206130  19.3468420  12.6120440  40.0212220
  27.8459310  25.4438390  45.8468440  28.4881540  24.7431550  45.9600610
  28.3708660  26.2236830  45.6665330  17.1700330  14.0328470  49.8327910
  16.4558850  14.2325390  50.4380520  17.5895370  13.2568040  50.2042710
  17.4572920  28.0208730  50.8194440  17.5664040  27.0803470  50.6789830
  16.8053480  28.2863480  50.1708170  28.6639110  16.5250780  47.5829360
  29.0319930  15.7045990  47.9108930  27.8037310  16.5852670  47.9985010
  32.0301140  15.4807720  38.3916920  31.4014300  15.5853390  37.6775150
  31.5353060  15.7004500  39.1810800  23.9985170  17.7593670  39.8074800
  23.2901320  18.2280010  40.2488410  24.2829650  17.1015680  40.4419990
  25.6241100  19.1790370  47.8067330  26.1226350  19.6536190  48.4719180
  25.7664050  18.2553890  48.0137360  28.0300600  14.4844330  41.2470590
  27.9068380  14.5030460  40.2980100  28.9785160  14.5323270  41.3668990
  22.2020190  16.0678750  37.1825510  23.0510720  16.5048900  37.1165700
  21.8351460  16.3799010  38.0097570  32.8307960  15.3958330  48.6495720
  32.3281560  16.1363730  48.9889530  33.6464620  15.7842330  48.3332510
  19.7958370  19.7536180  36.3393930  19.8761960  18.8063690  36.4511330
  20.6878120  20.0843060  36.4454590  20.5973080  29.9031570  43.4428470
  21.3335560  29.3547030  43.7137040  20.9814000  30.7687580  43.3034460
  19.6031360  29.0877640  52.6314050  20.4044090  29.4089690  53.0449450
  19.0883180  28.7273220  53.3533960  17.3229170  21.5751100  51.5750100
  17.8268190  20.9958380  52.1466330  16.5836590  21.8591330  52.1126470
  19.3552250  19.7180690  52.4700170  19.3957590  19.4194560  53.3785400
  20.2097750  20.1188300  52.3107690  21.2958060  18.2972790  50.4374660
  20.7654520  17.8063740  49.8098000  21.9646130  18.7256990  49.9032590
  30.6658290  20.1038410  52.2055000  31.2479060  19.3490730  52.1175480
  30.8420060  20.6345850  51.4286480  21.7830360  15.2635160  50.5171950
  21.6887230  14.6455910  49.7922820  21.2027750  15.9901450  50.2901860
  24.5491800  13.8208400  47.5499340  24.1009100  13.8432660  46.7044890
  23.9157000  13.4227420  48.1469640  24.9551350  22.7162730  48.1711780
  25.3739460  23.5595460  47.9988020  24.0359980  22.8534770  47.9418560
  27.2915250  20.4478910  49.5549620  27.4111460  19.8520050  50.2944460
  28.1509250  20.4848600  49.1350920  22.0289540  18.3909470  34.5761840
  21.8278600  17.5276830  34.9375180  21.8581590  18.3042830  33.6383440
  22.8058770  29.0215740  49.2869510  22.2679860  29.7461800  48.9678210
  23.0592730  28.5446080  48.4966850  24.0584020  16.9900260  50.8125440
  24.6483710  16.6816110  51.5003260  23.2404260  16.5180010  50.9685340
  28.8777450  16.6066070  51.0458460  28.1892970  15.9447610  50.9808450
  29.5983470  16.1604340  51.4906920  29.5077850  13.2017700  37.1048720
  29.7880140  12.3585600  37.4608140  28.7343580  13.4340810  37.6187470
  20.8272340  15.4910090  34.5639720  21.1298240  15.4977520  33.6558870
  21.5666930  15.1407950  35.0607380  25.6620980  30.2566950  49.5456160
  25.5879680  31.1602090  49.8528530  24.7599820  29.9378850  49.5178230
  24.0457270  14.4344710  35.5495920  23.6979270  13.7568700  34.9698370
  24.2470040  13.9734220  36.3639310  17.0648270  27.5841540  42.8489780
  17.3951280  26.7162600  42.6168420  17.4939270  27.7900060  43.6794740
  17.5538480  28.4512130  45.5871410  17.1169470  28.6312930  46.4195560
  18.1216160  29.2086750  45.4453130  17.3862910  20.9632360  41.9460290
  16.7311750  20.6944000  41.3019990  18.2240860  20.8536840  41.4962270
  18.4238840  21.3484930  46.4863630  18.7911880  21.2612330  47.3659650
  17.8549660  20.5851480  46.3870490  17.9754840  18.2594020  50.3922050
  17.0810890  18.2260780  50.7315760  18.5152390  18.4580810  51.1573300
  31.6630770  15.0425740  52.2773800  32.5400950  15.0509140  52.6607800
  31.6751610  14.3056580  51.6666150  16.6000990  18.1731290  37.8885620
  15.6965070  18.4361490  37.7137280  17.0841610  18.4442460  37.1085580
  19.1428200  17.2296830  35.7980000  19.8519900  16.8080050  35.3127280
  18.4268140  17.2972060  35.1663350  18.7902360  13.2836160  34.8382650
  19.5130490  13.8245100  35.1563870  19.0626880  13.0099580  33.9624190
  18.4794550  12.5342350  44.7405270  19.1270740  11.9839730  44.3000430
  18.8996390  12.7885500  45.5621080  34.0281170  16.7889580  41.6391910
  33.9180450  16.6345620  42.5774180  34.7888760  16.2610520  41.3967320
  32.3746890  12.7283710  48.0974910  33.0119110  13.3417850  48.4634100
  32.5221780  12.7644370  47.1524140  34.9171440  14.6197500  34.8798050
  35.8420750  14.4878680  34.6716340  34.8947230  14.6990320  35.8334500
  34.9909930  15.3908160  37.5054760  34.1961430  15.3253280  38.0347670
  35.1953210  16.3258800  37.4940110  18.2326550  12.6898020  47.4830590
  17.8841370  13.1461840  48.2488770  17.9014250  11.7955150  47.5653020
  19.8390920  25.8617620  51.6483780  19.7960550  25.4910530  52.5298240
  19.9701930  26.7995190  51.7885600  23.5396950  27.4177210  47.2493500
  23.2988310  27.6851770  46.3624020  24.4799590  27.5882940  47.3044360
  25.7451370  13.8809900  51.0050010  25.6840260  14.4731730  51.7545420
  26.6851750  13.7735860  50.8600270  28.3825930  13.5379960  50.6442300
  28.9966340  13.8559250  49.9823380  28.9275490  13.0528550  51.2638160
  18.9047190  12.2174220  50.7581360  19.4530180  12.0362270  49.9947470
  18.9702500  11.4268330  51.2937670  19.6778950  28.8079870  48.7681560
  19.0839270  28.6764570  49.5071600  19.6702790  27.9718010  48.3023660
  29.1233970  12.1012100  46.9711590  28.2493810  12.4347210  46.7684520
  29.0144720  11.6285280  47.7963460  30.0305950  14.3082970  48.3553310
  29.7019310  13.4934730  47.9755040  30.9788250  14.2652780  48.2319000
  19.3091180  26.1738250  47.7189600  18.5825240  25.5543540  47.6515550
  19.3700330  26.5678860  46.8487680  22.9136280  28.3883250  44.5039010
  23.4301300  27.7770610  43.9787270  23.5633660  28.8912030  44.9950020
  25.6531780  29.2791740  45.3307990  25.9409590  29.0246040  44.4541000
  26.1655000  28.7269100  45.9213560  26.8708790  13.0181940  45.9104500
  26.0880580  13.4927440  46.1901260  26.5771720  12.1136770  45.8017680
  31.4229860  13.7205040  43.9553590  31.8637950  13.6650140  43.1075190
  31.1537450  14.6363050  44.0263770  33.2868430  13.3520280  41.9662410
  33.2256830  12.4081500  41.8193430  34.0660460  13.4600370  42.5115870
  17.5921180  29.4912640  40.9286360  17.4243220  28.8583320  41.6268250
  16.7255690  29.6972040  40.5780550  18.2149200  13.3229420  38.4318220
  18.9728560  13.4358300  37.8582250  17.7526370  14.1598620  38.3861650
  24.7563010  15.4368690  41.4220530  23.9437520  15.0625580  41.0816410
  25.2604650  14.6813770  41.7241720  29.2587990  12.1011140  42.6603600
  29.8617360  12.6731350  43.1352120  28.5180980  12.6650580  42.4377500
  32.4022590  12.5032700  37.9343880  32.5973220  13.4016150  38.2011310
  31.6152460  12.2719780  38.4276830  20.5874350  13.8493470  36.9720190
  21.1167110  13.0623270  36.8428140  21.2202670  14.5284660  37.2055720
  22.7812190  13.5868610  40.0265580  22.1514930  12.8855920  40.1935710
  22.2417330  14.3472740  39.8098740  22.9067750  12.8652590  52.4618070
  22.6252020  13.3686190  51.6978890  23.2887450  12.0674340  52.0960200
  29.5083210  12.2806170  53.0398540  29.3948660  12.6000780  53.9350060
  30.3252950  12.6818680  52.7435820  28.4141360  20.2998640  23.4033280
  28.3335410  19.3853250  23.1324990  28.0005780  20.7965710  22.6972990
  20.5625230  22.3897470  26.1618310  19.7310110  22.1346180  26.5614820
  21.1706210  22.4608240  26.8976230  18.9717180  17.3499360  19.9460700
  18.0833880  17.6915330  19.8440580  19.2558370  17.1499680  19.0541530
  16.9350190  19.9505010  25.8300400  17.5066300  19.1827210  25.8304040
  16.9351730  20.2493770  24.9207010  18.1775060  15.3589370  27.6169330
  17.9977900  14.4615120  27.8972090  17.7755140  15.9061240  28.2916280
  21.1478570  15.9330860  20.9799080  21.2545320  16.8334590  21.2867840
  20.2370930  15.8848830  20.6893730  30.7997680  15.0555670  22.4509980
  31.6207300  14.5652240  22.4935460  30.8331760  15.6453330  23.2041820
  18.7961730  17.8549870  26.2251670  19.4771840  18.1188240  26.8439070
  18.4809780  17.0150740  26.5589680  22.9886300  18.9017230  25.3124260
  23.4964520  19.3998200  25.9529280  23.5199540  18.1252430  25.1363620
  21.2722400  13.5415790  29.5787680  21.2740840  14.0588180  28.7733580
  20.4426710  13.0645970  29.5557610  22.5225250  23.1810970  27.7561180
  22.1894630  23.8079890  28.3982250  22.6991930  23.7072850  26.9762850
  31.0359160  16.9956050  25.2237520  30.3314730  17.2840940  25.8040630
  31.3971320  17.8056160  24.8637080  20.9537730  15.2525750  27.5858130
  21.2954540  16.0967800  27.2912000  20.0153540  15.4009490  27.7023470
  17.0276690  24.3391630  18.4517210  16.6504670  24.8278730  17.7202110
  17.2849760  25.0116910  19.0823740  24.6365620  12.7408020  23.9102720
  24.9440600  12.1854910  23.1938220  23.7066320  12.8752480  23.7275710
  27.0246380  20.8056850  20.6462840  26.0975660  20.7394230  20.8751310
  27.1771200  21.7436980  20.5318080  27.0115460  17.0773850  17.6430000
  26.0719130  17.2387810  17.7282460  27.3298720  17.7959530  17.0965990
  31.0543670  22.3677150  21.1498090  30.4356090  22.0296700  20.5024390
  31.0368120  21.7236910  21.8577280  22.6303020  21.3321590  23.4282570
  22.2260020  20.6198840  22.9328470  22.7166140  20.9874830  24.3170610
  23.0984720  25.0189150  25.5921780  22.8013010  24.4134620  24.9129560
  24.0484540  25.0566460  25.4811140  21.3431640  18.1064800  27.2081610
  21.8946230  18.2160140  26.4334860  21.8575150  18.4802400  27.9236840
  32.8125510  12.8606770  16.4711880  32.4998170  12.9533600  17.3710950
  33.5737980  13.4387800  16.4209310  19.3307650  20.2266570  20.9289220
  19.2105250  20.9528660  20.3170490  19.0208540  19.4569480  20.4517130
  16.9693020  23.3981710  26.7357860  17.0473440  23.5330480  25.7913580
  17.5834700  22.6897600  26.9285980  18.2140650  25.0981900  23.1464040
  17.8068730  25.2396490  22.2917640  19.1053660  24.8142060  22.9435250
  34.0226800  17.5978270  32.4486020  33.4071070  18.1057940  31.9201480
  33.7023220  16.6976600  32.3911960  17.0252540  24.4395880  29.2752320
  17.1883580  23.9701240  28.4571690  17.4904990  23.9319440  29.9401160
  21.7971310  13.5701640  24.3112890  21.3539460  14.3511180  23.9797410
  22.3556300  13.8931530  25.0183830  31.0845630  17.6579110  31.0444870
  30.2339220  17.3584860  31.3653940  30.9247420  17.9021120  30.1328690
  24.9130130  13.1912340  19.1918720  24.2884310  13.1872210  19.9172030
  24.8260250  12.3243300  18.7954690  23.8347210  14.1148970  26.1702490
  24.1319540  15.0211800  26.0894510  24.3832770  13.6267750  25.5562060
  21.5885530  18.6935210  22.0394140  21.3626450  18.4772380  22.9440760
  20.8078060  19.1263670  21.6940110  28.8183290  18.6998580  20.6384790
  28.2192180  19.4234380  20.4548410  29.3662900  18.6375360  19.8561240
  27.4248160  17.3362120  22.6688070  27.8177730  17.6534320  21.8556760
  27.7865010  16.4574000  22.7832590  19.1595280  16.0034460  30.8588190
  18.7658670  16.8509670  31.0660970  18.4713680  15.3660830  31.0496830
  25.7340330  16.0869430  33.9284930  25.0438650  15.8941630  34.5631020
  26.4772630  16.3704070  34.4609230  16.4612330  13.9262920  24.8918270
  16.1725380  14.4965780  25.6043250  17.2058090  13.4467370  25.2549500
  16.6482560  17.8683040  16.1020990  16.5657230  18.8113800  16.2435980
  16.2965620  17.7257950  15.2233340  24.4480690  16.6022070  25.1691340
  24.4516750  16.1612020  24.3195880  25.3431810  16.9239400  25.2763160
  20.2983070  16.4848560  24.1285550  19.9583120  16.9623790  24.8852600
  19.5360390  16.0313680  23.7686650  24.5100840  17.6034150  18.1598100
  24.6313660  17.5620630  19.1083920  24.1249350  18.4658300  18.0044830
  23.5222340  19.9135290  17.5581400  22.9539240  19.4653540  16.9317310
  24.2311340  20.2728070  17.0246550  31.8999960  12.7933730  32.0148170
  32.2245730  12.0623390  32.5406150  31.9356470  12.4747370  31.1129160
  17.6129150  15.4067540  23.0450220  17.3276070  15.0423210  23.8828840
  17.5508010  14.6748000  22.4313360  21.0669820  23.9093480  19.8307810
  20.2932080  23.3691100  19.6706530  21.7964450  23.3900090  19.4925570
  27.2867740  14.2996800  19.7663590  26.4732350  13.8009970  19.6908900
  27.0929690  15.1395050  19.3499940  30.0016130  18.6716450  18.0625750
  30.8895750  18.9833680  17.8877090  29.9721220  17.7988700  17.6706330
  21.1107220  23.5773860  23.4686620  21.6285890  22.7742120  23.4143510
  20.6591240  23.5153000  24.3103450  18.5951760  20.5435230  30.3812320
  18.2366700  21.2089080  30.9685660  18.3006320  19.7118780  30.7524940
  32.2730400  19.9828290  17.5305610  32.1894120  20.4142510  16.6802050
  32.9924590  20.4426640  17.9632430  24.9667410  24.9253670  21.5129840
  25.6538540  25.4722880  21.8937430  24.1799830  25.4694400  21.5479450
  17.1059810  20.5426490  17.0046920  17.9754660  20.8251290  17.2882840
  16.6150130  21.3562360  16.8895730  24.2694620  21.9299700  21.1255200
  24.7257400  22.7404950  21.3515390  23.9182830  21.6122840  21.9573690
  20.1706400  12.2737350  21.5977720  20.0421030  12.2655250  22.5462640
  19.3468420  12.6120440  21.2468730  17.4731060  29.7553870  17.5708550
  17.8328700  30.3543210  16.9165820  17.3323400  30.3013760  18.3443580
  17.1700330  14.0328470  31.0584420  16.4558850  14.2325390  31.6637030
  17.5895370  13.2568040  31.4299220  19.0906320  22.3599960  19.1328980
  18.4834270  23.0998860  19.1424280  19.5655670  22.4499320  18.3067180
  32.0301140  15.4807720  19.6173430  31.4014300  15.5853390  18.9031660
  31.5353060  15.7004500  20.4067310  23.9985170  17.7593670  21.0331310
  23.2901320  18.2280010  21.4744920  24.2829650  17.1015680  21.6676500
  28.0300600  14.4844330  22.4727100  27.9068380  14.5030460  21.5236610
  28.9785160  14.5323270  22.5925500  22.2020190  16.0678750  18.4082020
  23.0510720  16.5048900  18.3422210  21.8351460  16.3799010  19.2354080
  32.8307960  15.3958330  29.8752230  32.3281560  16.1363730  30.2146040
  33.6464620  15.7842330  29.5589020  31.1229970  20.6391510  23.3213590
  30.1820110  20.6541740  23.4961280  31.4374040  19.8527470  23.7673890
  21.1011610  22.3211110  16.8817550  21.8674880  22.2092470  17.4442980
  21.1786300  21.6249080  16.2294320  19.7958370  19.7536180  17.5650440
  19.8761960  18.8063690  17.6767840  20.6878120  20.0843060  17.6711100
  17.4818560  25.9705140  20.5426490  16.5558340  26.2126280  20.5331900
  17.9474990  26.7979400  20.4211240  17.3229170  21.5751100  32.8006610
  17.8268190  20.9958380  33.3722840  16.5836590  21.8591330  33.3382980
  24.2252790  24.2965290  16.3552900  24.1203430  23.6817640  17.0814280
  24.0577010  23.7731180  15.5715910  23.1330640  22.3176240  18.8560190
  23.5547060  22.1516110  19.6991580  23.2581480  21.5076470  18.3615330
  21.2958060  18.2972790  31.6631170  20.7654520  17.8063740  31.0354510
  21.9646130  18.7256990  31.1289100  25.6458280  21.3413850  16.1037290
  26.1663940  20.6262870  15.7378440  26.2926680  21.9799720  16.4037800
  21.7830360  15.2635160  31.7428460  21.6887230  14.6455910  31.0179330
  21.2027750  15.9901450  31.5158370  24.5491800  13.8208400  28.7755850
  24.1009100  13.8432660  27.9301400  23.9157000  13.4227420  29.3726150
  22.0289540  18.3909470  15.8018350  21.8278600  17.5276830  16.1631690
  21.8581590  18.3042830  14.8639950  24.0584020  16.9900260  32.0381950
  24.6483710  16.6816110  32.7259770  23.2404260  16.5180010  32.1941850
  28.8777450  16.6066070  32.2714970  28.1892970  15.9447610  32.2064960
  29.5983470  16.1604340  32.7163430  29.5077850  13.2017700  18.3305230
  29.7880140  12.3585600  18.6864650  28.7343580  13.4340810  18.8443980
  20.8272340  15.4910090  15.7896230  21.1298240  15.4977520  14.8815380
  21.5666930  15.1407950  16.2863890  24.0457270  14.4344710  16.7752430
  23.6979270  13.7568700  16.1954880  24.2470040  13.9734220  17.5895820
  19.8502470  24.7952510  16.6226030  20.2877340  25.3382180  17.2783610
  20.3350200  23.9699460  16.6322370  21.6610190  25.9150550  21.7348260
  21.3605730  25.7915520  22.6352170  21.5547680  25.0559140  21.3263990
  33.8858570  22.4394430  18.9409140  34.6477480  23.0091080  19.0468830
  33.9012940  21.8721630  19.7117450  17.3862910  20.9632360  23.1716800
  16.7311750  20.6944000  22.5276500  18.2240860  20.8536840  22.7218780
  33.9377740  22.7328800  16.0981660  34.2126580  23.6407680  15.9700880
  33.7488480  22.6691330  17.0343650  30.3353350  15.7573650  17.3935290
  30.7538230  15.5704630  16.5531950  30.0289410  14.9052700  17.7038220
  33.8343080  20.6697790  21.0911090  33.4586680  19.9025720  20.6592380
  33.1046200  21.0520490  21.5786020  18.4238840  21.3484930  27.7120140
  18.7911880  21.2612330  28.5916160  17.8549660  20.5851480  27.6127000
  17.9754840  18.2594020  31.6178560  17.0810890  18.2260780  31.9572270
  18.5152390  18.4580810  32.3829810  31.6630770  15.0425740  33.5030310
  32.5400950  15.0509140  33.8864310  31.6751610  14.3056580  32.8922660
  16.6000990  18.1731290  19.1142130  15.6965070  18.4361490  18.9393790
  17.0841610  18.4442460  18.3342090  19.1428200  17.2296830  17.0236510
  19.8519900  16.8080050  16.5383790  18.4268140  17.2972060  16.3919860
  18.7902360  13.2836160  16.0639160  19.5130490  13.8245100  16.3820380
  19.0626880  13.0099580  15.1880700  32.5994010  18.1528630  20.3310740
  33.0953130  17.9199500  21.1159620  32.4010080  17.3140470  19.9148380
  18.4794550  12.5342350  25.9661780  19.1270740  11.9839730  25.5256940
  18.8996390  12.7885500  26.7877590  34.0281170  16.7889580  22.8648420
  33.9180450  16.6345620  23.8030690  34.7888760  16.2610520  22.6223830
  32.3746890  12.7283710  29.3231420  33.0119110  13.3417850  29.6890610
  32.5221780  12.7644370  28.3780650  34.9171440  14.6197500  16.1054560
  35.8420750  14.4878680  15.8972850  34.8947230  14.6990320  17.0591010
  34.9909930  15.3908160  18.7311270  34.1961430  15.3253280  19.2604180
  35.1953210  16.3258800  18.7196620  18.2326550  12.6898020  28.7087100
  17.8841370  13.1461840  29.4745280  17.9014250  11.7955150  28.7909530
  25.7451370  13.8809900  32.2306520  25.6840260  14.4731730  32.9801930
  26.6851750  13.7735860  32.0856780  28.3825930  13.5379960  31.8698810
  28.9966340  13.8559250  31.2079890  28.9275490  13.0528550  32.4894670
  18.9047190  12.2174220  31.9837870  19.4530180  12.0362270  31.2203980
  18.9702500  11.4268330  32.5194180  29.1233970  12.1012100  28.1968100
  28.2493810  12.4347210  27.9941030  29.0144720  11.6285280  29.0219970
  30.0305950  14.3082970  29.5809820  29.7019310  13.4934730  29.2011550
  30.9788250  14.2652780  29.4575510  26.8708790  13.0181940  27.1361010
  26.0880580  13.4927440  27.4157770  26.5771720  12.1136770  27.0274190
  31.4229860  13.7205040  25.1810100  31.8637950  13.6650140  24.3331700
  31.1537450  14.6363050  25.2520280  33.2868430  13.3520280  23.1918920
  33.2256830  12.4081500  23.0449940  34.0660460  13.4600370  23.7372380
  17.5921180  29.4912640  22.1542870  17.4243220  28.8583320  22.8524760
  16.7255690  29.6972040  21.8037060  18.2149200  13.3229420  19.6574730
  18.9728560  13.4358300  19.0838760  17.7526370  14.1598620  19.6118160
  24.7563010  15.4368690  22.6477040  23.9437520  15.0625580  22.3072920
  25.2604650  14.6813770  22.9498230  29.2587990  12.1011140  23.8860110
  29.8617360  12.6731350  24.3608630  28.5180980  12.6650580  23.6634010
  32.4022590  12.5032700  19.1600390  32.5973220  13.4016150  19.4267820
  31.6152460  12.2719780  19.6533340  19.1983880  28.1845870  19.5993010
  18.6731500  28.5653900  18.8954970  19.1228460  28.8096640  20.3202720
  20.5874350  13.8493470  18.1976700  21.1167110  13.0623270  18.0684650
  21.2202670  14.5284660  18.4312230  22.7812190  13.5868610  21.2522090
  22.1514930  12.8855920  21.4192220  22.2417330  14.3472740  21.0355250
  22.9067750  12.8652590  33.6874580  22.6252020  13.3686190  32.9235400
  23.2887450  12.0674340  33.3216710  20.9591640  26.2492980  18.4788590
  20.3300520  26.7178080  19.0274420  21.0739470  25.4042200  18.9134780
  29.5083210  12.2806170  34.2655050  29.3948660  12.6000780  35.1606570
  30.3252950  12.6818680  33.9692330  28.4141360  20.2998640   4.6289790
  28.3335410  19.3853250   4.3581500  28.0005780  20.7965710   3.9229500
  26.5459400  22.0777660   6.5099060  25.7701500  21.5978100   6.7997630
  27.1972330  21.3983310   6.3355220  20.5625230  22.3897470   7.3874820
  19.7310110  22.1346180   7.7871330  21.1706210  22.4608240   8.1232740
  30.5666830  26.4837850   5.2898190  30.1048360  25.7125090   5.6185360
  31.3792380  26.5103920   5.7950640  20.5426490  26.4237560   7.5832840
  20.8454530  25.5335300   7.4043060  21.2870080  26.9807780   7.3555090
  16.9350190  19.9505010   7.0556910  17.5066300  19.1827210   7.0560550
  16.9351730  20.2493770   6.1463520  26.7930140  28.7695860   4.9102180
  26.1741580  29.2253360   4.3396620  27.6481920  28.9247320   4.5091880
  25.9868390  24.7534850   6.5169220  25.9176670  23.8124790   6.3558350
  26.7488250  24.8436260   7.0891790  18.1775060  15.3589370   8.8425840
  17.9977900  14.4615120   9.1228600  17.7755140  15.9061240   9.5172790
  27.0173560  17.5605230   6.7438150  27.3938380  16.6877110   6.6311820
  26.9193070  17.8963930   5.8528590  21.1478570  15.9330860   2.2055590
  21.2545320  16.8334590   2.5124350  20.2370930  15.8848830   1.9150240
  30.7997680  15.0555670   3.6766490  31.6207300  14.5652240   3.7191970
  30.8331760  15.6453330   4.4298330  18.7961730  17.8549870   7.4508180
  19.4771840  18.1188240   8.0695580  18.4809780  17.0150740   7.7846190
  22.9886300  18.9017230   6.5380770  23.4964520  19.3998200   7.1785790
  23.5199540  18.1252430   6.3620130  35.0897230  17.0722420  10.2410120
  34.3849400  17.4604130   9.7225230  35.3555150  17.7672710  10.8431050
  21.2722400  13.5415790  10.8044190  21.2740840  14.0588180   9.9990090
  20.4426710  13.0645970  10.7814120  27.6593490  23.6535100   2.3034090
  27.0410760  24.1184550   1.7396810  28.1716740  24.3462580   2.7203600
  22.5225250  23.1810970   8.9817690  22.1894630  23.8079890   9.6238760
  22.6991930  23.7072850   8.2019360  31.0359160  16.9956050   6.4494030
  30.3314730  17.2840940   7.0297140  31.3971320  17.8056160   6.0893590
  20.9537730  15.2525750   8.8114640  21.2954540  16.0967800   8.5168510
  20.0153540  15.4009490   8.9279980  21.7344350  25.1491770  10.7966870
  22.3518350  25.8242850  10.5151320  20.8737470  25.5579750  10.7054370
  32.6521940  26.6131180   8.7121510  31.9685460  27.2830290   8.7038180
  33.1916230  26.8111830   7.9466370  34.1046080  16.4410840   6.8403240
  33.1570990  16.4749820   6.9718670  34.4296070  17.2549790   7.2252600
  24.6365620  12.7408020   5.1359230  24.9440600  12.1854910   4.4194730
  23.7066320  12.8752480   4.9532220  30.1880680  28.4575310   7.4266690
  30.2007840  28.0537600   6.5588950  29.6355900  29.2322600   7.3228120
  31.4826100  25.1791530   2.5156860  31.3722430  24.2365860   2.6406280
  31.4794350  25.5407170   3.4019620  29.5866120  23.3605150   8.7549300
  30.0034910  23.1465260   7.9202760  30.3105940  23.6177940   9.3257920
  27.0246380  20.8056850   1.8719350  26.0975660  20.7394230   2.1007820
  27.1771200  21.7436980   1.7574590  33.5328220  21.7592370   8.8465540
  32.7046850  21.8285460   8.3715670  34.1278700  22.3446680   8.3781370
  31.0543670  22.3677150   2.3754600  30.4356090  22.0296700   1.7280900
  31.0368120  21.7236910   3.0833790  30.4970230  18.5461690   9.7920410
  30.0841410  19.3715400  10.0460400  29.7646180  17.9606730   9.5996770
  22.6303020  21.3321590   4.6539080  22.2260020  20.6198840   4.1584980
  22.7166140  20.9874830   5.5427120  23.0984720  25.0189150   6.8178290
  22.8013010  24.4134620   6.1386070  24.0484540  25.0566460   6.7067650
  21.3431640  18.1064800   8.4338120  21.8946230  18.2160140   7.6591370
  21.8575150  18.4802400   9.1493350  31.1870330  28.5921020  10.4801390
  30.7100890  29.3993210  10.2874000  30.5032120  27.9399350  10.6327600
  22.1903150  24.7570840  13.4686090  21.2931680  24.9810810  13.7159490
  22.2156020  24.8805780  12.5197490  21.0174370  21.6284160  12.0443460
  20.8782140  22.5006960  12.4130860  20.1355730  21.2856970  11.8991400
  27.3403750  26.5460030   3.3508590  27.7799660  27.2884360   2.9363980
  27.2790640  26.7886600   4.2747550  22.8154720  27.5705860  14.2528610
  22.7870150  27.9748810  13.3857040  22.6519690  26.6416220  14.0900210
  19.3307650  20.2266570   2.1545730  19.2105250  20.9528660   1.5427000
  19.0208540  19.4569480   1.6773640  16.9693020  23.3981710   7.9614370
  17.0473440  23.5330480   7.0170090  17.5834700  22.6897600   8.1542490
  18.2140650  25.0981900   4.3720550  17.8068730  25.2396490   3.5174150
  19.1053660  24.8142060   4.1691760  34.1702790  25.5445810  12.7092790
  34.2965850  25.3057690  11.7909970  34.2124170  24.7130350  13.1814870
  28.0319530  29.2473810  11.2787600  28.5464200  29.1581820  12.0810030
  27.1888610  29.5933510  11.5715510  22.4862310  29.3127680   2.4843220
  22.3104790  28.3963220   2.2711020  21.6318050  29.6714970   2.7241020
  29.2749990  28.6679420   3.3418090  29.7306940  27.8868800   3.6556710
  29.6142510  29.3786240   3.8859270  34.0226800  17.5978270  13.6742530
  33.4071070  18.1057940  13.1457990  33.7023220  16.6976600  13.6168470
  17.0252540  24.4395880  10.5008830  17.1883580  23.9701240   9.6828200
  17.4904990  23.9319440  11.1657670  21.7971310  13.5701640   5.5369400
  21.3539460  14.3511180   5.2053920  22.3556300  13.8931530   6.2440340
  26.0841120  16.4370160  11.1404720  25.6220490  16.6453180  11.9524660
  25.6819230  15.6229510  10.8375390  31.0845630  17.6579110  12.2701380
  30.2339220  17.3584860  12.5910450  30.9247420  17.9021120  11.3585200
  28.1795340  19.1580860  14.3700170  28.5048750  18.3244610  14.0302400
  28.9675670  19.6809380  14.5178500  23.8347210  14.1148970   7.3959000
  24.1319540  15.0211800   7.3151020  24.3832770  13.6267750   6.7818570
  21.5885530  18.6935210   3.2650650  21.3626450  18.4772380   4.1697270
  20.8078060  19.1263670   2.9196620  24.0284740  19.5920790  13.9310920
  23.9328340  18.6515520  13.7811320  24.8716720  19.8135860  13.5358990
  27.4248160  17.3362120   3.8944580  27.8177730  17.6534320   3.0813270
  27.7865010  16.4574000   4.0089100  19.1595280  16.0034460  12.0844700
  18.7658670  16.8509670  12.2917480  18.4713680  15.3660830  12.2753340
  25.7340330  16.0869430  15.1541440  25.0438650  15.8941630  15.7887530
  26.4772630  16.3704070  15.6865740  16.4612330  13.9262920   6.1174780
  16.1725380  14.4965780   6.8299760  17.2058090  13.4467370   6.4806010
  28.0103300  19.9267870   7.9895360  27.2784420  20.4354680   8.3385460
  27.6127640  19.1097850   7.6884140  24.4480690  16.6022070   6.3947850
  24.4516750  16.1612020   5.5452390  25.3431810  16.9239400   6.5019670
  20.2983070  16.4848560   5.3542060  19.9583120  16.9623790   6.1109110
  19.5360390  16.0313680   4.9943160  28.4729210  15.3801550   7.4018300
  28.4901950  15.8310200   8.2460150  28.2244790  14.4807190   7.6151740
  31.8999960  12.7933730  13.2404680  32.2245730  12.0623390  13.7662660
  31.9356470  12.4747370  12.3385670  18.5991520  23.8147310  12.6604640
  18.2146310  23.1740980  13.2587600  18.9103710  24.5183430  13.2299370
  24.7488660  20.6623850   8.1413260  25.1158790  20.1882420   8.8874600
  24.5593720  21.5365420   8.4821600  17.6129150  15.4067540   4.2706730
  17.3276070  15.0423210   5.1085350  17.5508010  14.6748000   3.6569870
  22.5388030  19.7032490  10.4597470  22.2345100  20.5824470  10.6847830
  23.4934490  19.7632280  10.4954910  31.8257800  22.9058840   6.8490710
  32.5456920  23.4014130   6.4586820  31.6239620  22.2276730   6.2044580
  27.2076600  22.9767900  12.7359710  27.1413910  22.0563570  12.4817300
  26.5781740  23.0743340  13.4504350  21.1107220  23.5773860   4.6943130
  21.6285890  22.7742120   4.6400020  20.6591240  23.5153000   5.5359960
  18.5951760  20.5435230  11.6068830  18.2366700  21.2089080  12.1942170
  18.3006320  19.7118780  11.9781450  21.7964880  21.0019470  14.4908380
  21.4965020  21.1476650  13.5936200  22.5676120  20.4424760  14.3981770
  27.1393330  25.7988470  12.4863510  27.1537870  24.8669430  12.2682420
  26.4318430  25.8848230  13.1253280  33.3504540  22.4395810  11.8332090
  32.6252730  23.0324590  11.6361480  33.8780000  22.4319350  11.0345460
  28.8804130  24.1655980   5.3315940  29.2327950  23.5684110   4.6717310
  27.9966460  23.8400210   5.5024190  24.9667410  24.9253670   2.7386350
  25.6538540  25.4722880   3.1193940  24.1799830  25.4694400   2.7735960
  24.2694620  21.9299700   2.3511710  24.7257400  22.7404950   2.5771900
  23.9182830  21.6122840   3.1830200  26.5727230  27.4406040   9.5804010
  27.2169450  27.6465420  10.2577430  26.9356670  26.6794440   9.1274860
  20.1706400  12.2737350   2.8234230  20.0421030  12.2655250   3.7719150
  19.3468420  12.6120440   2.4725240  27.8459310  25.4438390   8.2981460
  28.4881540  24.7431550   8.4113630  28.3708660  26.2236830   8.1178350
  29.6196930  26.2433290  11.5017520  29.9553170  26.8299980  12.1795440
  28.6997270  26.1126000  11.7315310  17.1700330  14.0328470  12.2840930
  16.4558850  14.2325390  12.8893540  17.5895370  13.2568040  12.6555730
  17.4572920  28.0208730  13.2707460  17.5664040  27.0803470  13.1302850
  16.8053480  28.2863480  12.6221190  25.4485510  26.2924620  14.6705580
  25.1282380  25.5733860  15.2151270  24.7743870  26.9679690  14.7441640
  28.6639110  16.5250780  10.0342380  29.0319930  15.7045990  10.3621950
  27.8037310  16.5852670  10.4498030  23.9985170  17.7593670   2.2587820
  23.2901320  18.2280010   2.7001430  24.2829650  17.1015680   2.8933010
  25.6241100  19.1790370  10.2580350  26.1226350  19.6536190  10.9232200
  25.7664050  18.2553890  10.4650380  28.0300600  14.4844330   3.6983610
  27.9068380  14.5030460   2.7493120  28.9785160  14.5323270   3.8182010
  25.1177390  29.7199630   2.9711590  25.3718890  29.6821020   2.0490960
  24.1689870  29.5932960   2.9639840  32.8307960  15.3958330  11.1008740
  32.3281560  16.1363730  11.4402550  33.6464620  15.7842330  10.7845530
  31.1229970  20.6391510   4.5470100  30.1820110  20.6541740   4.7217790
  31.4374040  19.8527470   4.9930400  33.1255550  27.8100360   6.2224360
  33.2502970  28.6331530   6.6948170  33.9921110  27.5991090   5.8748510
  20.5973080  29.9031570   5.8941490  21.3335560  29.3547030   6.1650060
  20.9814000  30.7687580   5.7547480  17.4818560  25.9705140   1.7683000
  16.5558340  26.2126280   1.7588410  17.9474990  26.7979400   1.6467750
  19.6031360  29.0877640  15.0827070  20.4044090  29.4089690  15.4962470
  19.0883180  28.7273220  15.8046980  28.4395990  25.1957510  15.0302480
  27.8334150  25.2189110  14.2898230  28.1350100  24.4640550  15.5669730
  29.8696360  28.9237800  13.6411890  30.8218110  28.8395820  13.5912130
  29.7224580  29.5879510  14.3145680  17.3229170  21.5751100  14.0263120
  17.8268190  20.9958380  14.5979350  16.5836590  21.8591330  14.5639490
  24.3767110  22.9822090  13.5598640  23.6112780  23.5507090  13.4753310
  24.5583070  22.6898300  12.6666870  31.5190460  24.7127420  14.1173660
  32.2599930  25.0503180  13.6141120  30.7563140  24.8819480  13.5643430
  19.3552250  19.7180690  14.9213190  19.3957590  19.4194560  15.8298420
  20.2097750  20.1188300  14.7620710  21.2958060  18.2972790  12.8887680
  20.7654520  17.8063740  12.2611020  21.9646130  18.7256990  12.3545610
  30.1936120  22.7642250  12.6528870  30.6077140  22.9187330  13.5019290
  29.2587120  22.8897470  12.8154650  30.6658290  20.1038410  14.6568020
  31.2479060  19.3490730  14.5688500  30.8420060  20.6345850  13.8799500
  21.7830360  15.2635160  12.9684970  21.6887230  14.6455910  12.2435840
  21.2027750  15.9901450  12.7414880  24.5491800  13.8208400  10.0012360
  24.1009100  13.8432660   9.1557910  23.9157000  13.4227420  10.5982660
  24.9551350  22.7162730  10.6224800  25.3739460  23.5595460  10.4501040
  24.0359980  22.8534770  10.3931580  27.2915250  20.4478910  12.0062640
  27.4111460  19.8520050  12.7457480  28.1509250  20.4848600  11.5863940
  29.6303150  21.0016100  10.5825150  29.1038370  21.5258720   9.9790290
  29.9734490  21.6343490  11.2134880  22.8058770  29.0215740  11.7382530
  22.2679860  29.7461800  11.4191230  23.0592730  28.5446080  10.9479870
  24.0584020  16.9900260  13.2638460  24.6483710  16.6816110  13.9516280
  23.2404260  16.5180010  13.4198360  28.8777450  16.6066070  13.4971480
  28.1892970  15.9447610  13.4321470  29.5983470  16.1604340  13.9419940
  25.6620980  30.2566950  11.9969180  25.5879680  31.1602090  12.3041550
  24.7599820  29.9378850  11.9691250  17.0648270  27.5841540   5.3002800
  17.3951280  26.7162600   5.0681440  17.4939270  27.7900060   6.1307760
  21.6610190  25.9150550   2.9604770  21.3605730  25.7915520   3.8608680
  21.5547680  25.0559140   2.5520500  17.5538480  28.4512130   8.0384430
  17.1169470  28.6312930   8.8708580  18.1216160  29.2086750   7.8966150
  33.1900660  27.9529130  12.3261740  32.5902650  28.0121690  11.5825660
  33.3194560  27.0134110  12.4558590  17.3862910  20.9632360   4.3973310
  16.7311750  20.6944000   3.7533010  18.2240860  20.8536840   3.9475290
  34.8918540  23.2944530   5.0107580  35.2627370  22.5111850   4.6043550
  35.5320470  23.9833630   4.8324880  31.8752300  24.6781110  10.4237900
  31.0612140  25.1078270  10.6863690  32.2826500  25.2899520   9.8106950
  33.8343080  20.6697790   2.3167600  33.4586680  19.9025720   1.8848890
  33.1046200  21.0520490   2.8042530  18.4238840  21.3484930   8.9376650
  18.7911880  21.2612330   9.8172670  17.8549660  20.5851480   8.8383510
  33.2242700  19.8169310  11.9507120  32.9928790  19.5882060  11.0505070
  33.4847250  20.7368860  11.9052010  17.9754840  18.2594020  12.8435070
  17.0810890  18.2260780  13.1828780  18.5152390  18.4580810  13.6086320
  31.6630770  15.0425740  14.7286820  32.5400950  15.0509140  15.1120820
  31.6751610  14.3056580  14.1179170  33.1094040  18.8955280   5.6174840
  33.6331520  18.4017930   4.9865010  33.6953460  19.0305640   6.3622410
  33.2883760  18.9795150   9.1394390  32.3386470  18.9458690   9.2539380
  33.4696770  19.8895260   8.9044160  18.4794550  12.5342350   7.1918290
  19.1270740  11.9839730   6.7513450  18.8996390  12.7885500   8.0134100
  34.0281170  16.7889580   4.0904930  33.9180450  16.6345620   5.0287200
  34.7888760  16.2610520   3.8480340  32.3746890  12.7283710  10.5487930
  33.0119110  13.3417850  10.9147120  32.5221780  12.7644370   9.6037160
  31.9328350  29.4299710   3.9506170  32.5287420  29.1084280   3.2740590
  32.1906500  28.9571530   4.7419440  18.2326550  12.6898020   9.9343610
  17.8841370  13.1461840  10.7001790  17.9014250  11.7955150  10.0166040
  19.8390920  25.8617620  14.0996800  19.7960550  25.4910530  14.9811260
  19.9701930  26.7995190  14.2398620  23.5396950  27.4177210   9.7006520
  23.2988310  27.6851770   8.8137040  24.4799590  27.5882940   9.7557380
  25.7451370  13.8809900  13.4563030  25.6840260  14.4731730  14.2058440
  26.6851750  13.7735860  13.3113290  28.3825930  13.5379960  13.0955320
  28.9966340  13.8559250  12.4336400  28.9275490  13.0528550  13.7151180
  34.8001110  29.4371590  10.5017160  34.3059390  29.8340460   9.7844290
  34.1914400  28.8120800  10.8954440  18.9047190  12.2174220  13.2094380
  19.4530180  12.0362270  12.4460490  18.9702500  11.4268330  13.7450690
  19.6778950  28.8079870  11.2194580  19.0839270  28.6764570  11.9584620
  19.6702790  27.9718010  10.7536680  29.1233970  12.1012100   9.4224610
  28.2493810  12.4347210   9.2197540  29.0144720  11.6285280  10.2476480
  30.0305950  14.3082970  10.8066330  29.7019310  13.4934730  10.4268060
  30.9788250  14.2652780  10.6832020  32.4840560  30.0795010   7.7803900
  32.0243530  30.8310820   7.4061920  31.8553020  29.3601480   7.7218700
  19.3091180  26.1738250  10.1702620  18.5825240  25.5543540  10.1028570
  19.3700330  26.5678860   9.3000700  22.9136280  28.3883250   6.9552030
  23.4301300  27.7770610   6.4300290  23.5633660  28.8912030   7.4463040
  25.6531780  29.2791740   7.7821010  25.9409590  29.0246040   6.9054020
  26.1655000  28.7269100   8.3726580  26.8708790  13.0181940   8.3617520
  26.0880580  13.4927440   8.6414280  26.5771720  12.1136770   8.2530700
  31.4229860  13.7205040   6.4066610  31.8637950  13.6650140   5.5588210
  31.1537450  14.6363050   6.4776790  33.2868430  13.3520280   4.4175430
  33.2256830  12.4081500   4.2706450  34.0660460  13.4600370   4.9628890
  17.5921180  29.4912640   3.3799380  17.4243220  28.8583320   4.0781270
  16.7255690  29.6972040   3.0293570  24.7563010  15.4368690   3.8733550
  23.9437520  15.0625580   3.5329430  25.2604650  14.6813770   4.1754740
  29.2587990  12.1011140   5.1116620  29.8617360  12.6731350   5.5865140
  28.5180980  12.6650580   4.8890520  22.7812190  13.5868610   2.4778600
  22.1514930  12.8855920   2.6448730  22.2417330  14.3472740   2.2611760
  33.9549200  29.7433410   2.1463460  34.1301390  29.0571150   1.5024380
  33.2570770  30.2680460   1.7540130  22.9067750  12.8652590  14.9131090
  22.6252020  13.3686190  14.1491910  23.2887450  12.0674340  14.5473220
  29.5083210  12.2806170  15.4911560  29.3948660  12.6000780  16.3863080
  30.3252950  12.6818680  15.1948840  26.5459400   3.3034170 100.3816510
  25.7701500   2.8234610 100.6715080  27.1972330   2.6239820 100.2072670
  20.5625230   3.6153980 101.2592270  19.7310110   3.3602690 101.6588780
  21.1706210   3.6864750 101.9950190  30.5666830   7.7094360  99.1615640
  30.1048360   6.9381600  99.4902810  31.3792380   7.7360430  99.6668090
  20.5426490   7.6494070 101.4550290  20.8454530   6.7591810 101.2760510
  21.2870080   8.2064290 101.2272540  26.7930140   9.9952370  98.7819630
  26.1741580  10.4509870  98.2114070  27.6481920  10.1503830  98.3809330
  25.9868390   5.9791360 100.3886670  25.9176670   5.0381300 100.2275800
  26.7488250   6.0692770 100.9609240  27.6593490   4.8791610  96.1751540
  27.0410760   5.3441060  95.6114260  28.1716740   5.5719090  96.5921050
  22.5225250   4.4067480 102.8535140  22.1894630   5.0336400 103.4956210
  22.6991930   4.9329360 102.0736810  21.7344350   6.3748280 104.6684320
  22.3518350   7.0499360 104.3868770  20.8737470   6.7836260 104.5771820
  17.0276690   5.5648140  93.5491170  16.6504670   6.0535240  92.8176070
  17.2849760   6.2373420  94.1797700  32.6521940   7.8387690 102.5838960
  31.9685460   8.5086800 102.5755630  33.1916230   8.0368340 101.8183820
  30.1880680   9.6831820 101.2984140  30.2007840   9.2794110 100.4306400
  29.6355900  10.4579110 101.1945570  31.4826100   6.4048040  96.3874310
  31.3722430   5.4622370  96.5123730  31.4794350   6.7663680  97.2737070
  29.5866120   4.5861660 102.6266750  30.0034910   4.3721770 101.7920210
  30.3105940   4.8434450 103.1975370  27.0246380   2.0313360  95.7436800
  26.0975660   1.9650740  95.9725270  27.1771200   2.9693490  95.6292040
  33.5328220   2.9848880 102.7182990  32.7046850   3.0541970 102.2433120
  34.1278700   3.5703190 102.2498820  31.0543670   3.5933660  96.2472050
  30.4356090   3.2553210  95.5998350  31.0368120   2.9493420  96.9551240
  22.6303020   2.5578100  98.5256530  22.2260020   1.8455350  98.0302430
  22.7166140   2.2131340  99.4144570  23.0984720   6.2445660 100.6895740
  22.8013010   5.6391130 100.0103520  24.0484540   6.2822970 100.5785100
  31.1870330   9.8177530 104.3518840  30.7100890  10.6249720 104.1591450
  30.5032120   9.1655860 104.5045050  29.2308370   2.8320470  93.2544800
  29.6701650   1.9942900  93.1082620  29.9436790   3.4649870  93.3408940
  27.3403750   7.7716540  97.2226040  27.7799660   8.5140870  96.8081430
  27.2790640   8.0143110  98.1465000  16.9693020   4.6238220 101.8331820
  17.0473440   4.7586990 100.8887540  17.5834700   3.9154110 102.0259940
  18.2140650   6.3238410  98.2438000  17.8068730   6.4653000  97.3891600
  19.1053660   6.0398570  98.0409210  30.0073930  10.7585660  94.5789050
  29.8475070  10.4688600  95.4770880  29.8420640   9.9825790  94.0434280
  22.4862310  10.5384190  96.3560670  22.3104790   9.6219730  96.1428470
  21.6318050  10.8971480  96.5958470  29.7100060   8.2673220  93.1387050
  29.0165220   8.2650510  92.4789330  30.4522920   7.8432540  92.7081220
  29.2749990   9.8935930  97.2135540  29.7306940   9.1125310  97.5274160
  29.6142510  10.6042750  97.7576720  21.0669820   5.1349990  94.9281770
  20.2932080   4.5947610  94.7680490  21.7964450   4.6156600  94.5899530
  31.8257800   4.1315350 100.7208160  32.5456920   4.6270640 100.3304270
  31.6239620   3.4533240 100.0762030  21.1107220   4.8030370  98.5660580
  21.6285890   3.9998630  98.5117470  20.6591240   4.7409510  99.4077410
  25.9976720   6.0696650  93.8387880  26.3392420   6.8138880  93.3431200
  25.1689430   6.3827770  94.2012710  33.3017650   8.0627060  95.3561700
  32.6593810   7.4082680  95.6305420  32.9148310   8.4682150  94.5802370
  28.8804130   5.3912490  99.2033390  29.2327950   4.7940620  98.5434760
  27.9966460   5.0656720  99.3741640  24.9667410   6.1510180  96.6103800
  25.6538540   6.6979390  96.9911390  24.1799830   6.6950910  96.6453410
  17.1059810   1.7683000  92.1020880  17.9754660   2.0507800  92.3856800
  16.6150130   2.5818870  91.9869690  24.2694620   3.1556210  96.2229160
  24.7257400   3.9661460  96.4489350  23.9182830   2.8379350  97.0547650
  26.5727230   8.6662550 103.4521460  27.2169450   8.8721930 104.1294880
  26.9356670   7.9050950 102.9992310  27.8459310   6.6694900 102.1698910
  28.4881540   5.9688060 102.2831080  28.3708660   7.4493340 101.9895800
  31.6915030   6.9543520  91.8938050  31.4652610   6.2373960  92.4862690
  31.3011230   6.7055960  91.0559800  17.4731060  10.9810380  92.6682510
  17.8328700  11.5799720  92.0139780  17.3323400  11.5270270  93.4417540
  31.2731280   4.8715460  93.5552210  30.9852980   5.3328150  94.3430090
  32.0683450   4.4113230  93.8236430  23.4899680   8.3641580  93.4856180
  23.4809780   9.0971270  92.8700690  22.5698040   8.1173160  93.5783140
  19.0906320   3.5856470  94.2302940  18.4834270   4.3255370  94.2398240
  19.5655670   3.6755830  93.4041140  26.4759280   8.4269820  92.1481370
  26.5771260   8.2233810  91.2183350  25.5761020   8.1728100  92.3529150
  25.1177390  10.9456140  96.8429040  25.3718890  10.9077530  95.9208410
  24.1689870  10.8189470  96.8357290  21.1011610   3.5467620  91.9791510
  21.8674880   3.4348980  92.5416940  21.1786300   2.8505590  91.3268280
  33.1255550   9.0356870 100.0941810  33.2502970   9.8588040 100.5665620
  33.9921110   8.8247600  99.7465960  20.5973080  11.1288080  99.7658940
  21.3335560  10.5803540 100.0367510  20.9814000  11.9944090  99.6264930
  17.4818560   7.1961650  95.6400450  16.5558340   7.4382790  95.6305860
  17.9474990   8.0235910  95.5185200  23.7075390  10.3018390  91.5884510
  24.5004000  10.5907220  91.1366300  23.1879740   9.8710560  90.9096990
  32.7605560   9.5288520  93.0121250  32.4747070   9.1153660  92.1975430
  32.5625110  10.4576230  92.8921770  24.2252790   5.5221800  91.4526860
  24.1203430   4.9074150  92.1788240  24.0577010   4.9987690  90.6689870
  27.4655520   4.5841830  92.0568850  26.9165620   5.0311130  92.7011590
  28.0874780   4.0791080  92.5806520  23.1330640   3.5432750  93.9534150
  23.5547060   3.3772620  94.7965540  23.2581480   2.7332980  93.4589290
  25.6458280   2.5670360  91.2011250  26.1663940   1.8519380  90.8352400
  26.2926680   3.2056230  91.5011760  24.9551350   3.9419240 104.4942250
  25.3739460   4.7851970 104.3218490  24.0359980   4.0791280 104.2649030
  26.2106310  10.6481970  93.4912990  27.1057100  10.9866940  93.5131750
  26.2423940   9.9261380  92.8637270  19.8502470   6.0209020  91.7199990
  20.2877340   6.5638690  92.3757570  20.3350200   5.1955970  91.7296330
  17.0648270   8.8098050  99.1720250  17.3951280   7.9419110  98.9398890
  17.4939270   9.0156570 100.0025210  21.6610190   7.1407060  96.8322220
  21.3605730   7.0172030  97.7326130  21.5547680   6.2815650  96.4237950
  17.5538480   9.6768640 101.9101880  17.1169470   9.8569440 102.7426030
  18.1216160  10.4343260 101.7683600  34.4302110   6.9203460  91.5348900
  33.5995070   6.9880110  92.0056130  34.6073940   7.8107580  91.2315760
  33.8858570   3.6650940  94.0383100  34.6477480   4.2347590  94.1442790
  33.9012940   3.0978140  94.8091410  17.3862910   2.1888870  98.2690760
  16.7311750   1.9200510  97.6250460  18.2240860   2.0793350  97.8192740
  34.8918540   4.5201040  98.8825030  35.2627370   3.7368360  98.4761000
  35.5320470   5.2090140  98.7042330  31.8752300   5.9037620 104.2955350
  31.0612140   6.3334780 104.5581140  32.2826500   6.5156030 103.6824400
  33.9377740   3.9585310  91.1955620  34.2126580   4.8664190  91.0674840
  33.7488480   3.8947840  92.1317610  18.4238840   2.5741440 102.8094100
  18.7911880   2.4868840 103.6890120  17.8549660   1.8107990 102.7100960
  31.9328350  10.6556220  97.8223620  32.5287420  10.3340790  97.1458040
  32.1906500  10.1828040  98.6136890  23.5396950   8.6433720 103.5723970
  23.2988310   8.9108280 102.6854490  24.4799590   8.8139450 103.6274830
  34.8001110  10.6628100 104.3734610  34.3059390  11.0596970 103.6561740
  34.1914400  10.0377310 104.7671890  32.4840560  11.3051520 101.6521350
  32.0243530  12.0567330 101.2779370  31.8553020  10.5857990 101.5936150
  19.3091180   7.3994760 104.0420070  18.5825240   6.7800050 103.9746020
  19.3700330   7.7935370 103.1718150  22.9136280   9.6139760 100.8269480
  23.4301300   9.0027120 100.3017740  23.5633660  10.1168540 101.3180490
  25.6531780  10.5048250 101.6538460  25.9409590  10.2502550 100.7771470
  26.1655000   9.9525610 102.2444030  17.5921180  10.7169150  97.2516830
  17.4243220  10.0839830  97.9498720  16.7255690  10.9228550  96.9011020
  19.1983880   9.4102380  94.6966970  18.6731500   9.7910410  93.9928930
  19.1228460  10.0353150  95.4176680  33.9549200  10.9689920  96.0180910
  34.1301390  10.2827660  95.3741830  33.2570770  11.4936970  95.6257580
  21.7976850  11.3584760  93.5716220  22.5295670  11.0744040  93.0240110
  22.0570520  11.1198040  94.4615600  20.9591640   7.4749490  93.5762550
  20.3300520   7.9434590  94.1248380  21.0739470   6.6298710  94.0108740
  26.5459400   3.3034170  81.6073020  25.7701500   2.8234610  81.8971590
  27.1972330   2.6239820  81.4329180  20.5625230   3.6153980  82.4848780
  19.7310110   3.3602690  82.8845290  21.1706210   3.6864750  83.2206700
  30.5666830   7.7094360  80.3872150  30.1048360   6.9381600  80.7159320
  31.3792380   7.7360430  80.8924600  20.5426490   7.6494070  82.6806800
  20.8454530   6.7591810  82.5017020  21.2870080   8.2064290  82.4529050
  26.7930140   9.9952370  80.0076140  26.1741580  10.4509870  79.4370580
  27.6481920  10.1503830  79.6065840  25.9868390   5.9791360  81.6143180
  25.9176670   5.0381300  81.4532310  26.7488250   6.0692770  82.1865750
  27.6593490   4.8791610  77.4008050  27.0410760   5.3441060  76.8370770
  28.1716740   5.5719090  77.8177560  22.5225250   4.4067480  84.0791650
  22.1894630   5.0336400  84.7212720  22.6991930   4.9329360  83.2993320
  21.7344350   6.3748280  85.8940830  22.3518350   7.0499360  85.6125280
  20.8737470   6.7836260  85.8028330  17.0276690   5.5648140  74.7747680
  16.6504670   6.0535240  74.0432580  17.2849760   6.2373420  75.4054210
  32.6521940   7.8387690  83.8095470  31.9685460   8.5086800  83.8012140
  33.1916230   8.0368340  83.0440330  30.1880680   9.6831820  82.5240650
  30.2007840   9.2794110  81.6562910  29.6355900  10.4579110  82.4202080
  31.4826100   6.4048040  77.6130820  31.3722430   5.4622370  77.7380240
  31.4794350   6.7663680  78.4993580  29.5866120   4.5861660  83.8523260
  30.0034910   4.3721770  83.0176720  30.3105940   4.8434450  84.4231880
  27.0246380   2.0313360  76.9693310  26.0975660   1.9650740  77.1981780
  27.1771200   2.9693490  76.8548550  33.5328220   2.9848880  83.9439500
  32.7046850   3.0541970  83.4689630  34.1278700   3.5703190  83.4755330
  31.0543670   3.5933660  77.4728560  30.4356090   3.2553210  76.8254860
  31.0368120   2.9493420  78.1807750  22.6303020   2.5578100  79.7513040
  22.2260020   1.8455350  79.2558940  22.7166140   2.2131340  80.6401080
  23.0984720   6.2445660  81.9152250  22.8013010   5.6391130  81.2360030
  24.0484540   6.2822970  81.8041610  31.1870330   9.8177530  85.5775350
  30.7100890  10.6249720  85.3847960  30.5032120   9.1655860  85.7301560
  22.1903150   5.9827350  88.5660050  21.2931680   6.2067320  88.8133450
  22.2156020   6.1062290  87.6171450  29.2308370   2.8320470  74.4801310
  29.6701650   1.9942900  74.3339130  29.9436790   3.4649870  74.5665450
  21.0174370   2.8540670  87.1417420  20.8782140   3.7263470  87.5104820
  20.1355730   2.5113480  86.9965360  27.3403750   7.7716540  78.4482550
  27.7799660   8.5140870  78.0337940  27.2790640   8.0143110  79.3721510
  22.8154720   8.7962370  89.3502570  22.7870150   9.2005320  88.4831000
  22.6519690   7.8672730  89.1874170  34.7669540   9.5789470  90.6466740
  35.2429260  10.0572360  91.3255820  35.3876700   9.5106960  89.9212240
  16.9693020   4.6238220  83.0588330  17.0473440   4.7586990  82.1144050
  17.5834700   3.9154110  83.2516450  18.2140650   6.3238410  79.4694510
  17.8068730   6.4653000  78.6148110  19.1053660   6.0398570  79.2665720
  34.1702790   6.7702320  87.8066750  34.2965850   6.5314200  86.8883930
  34.2124170   5.9386860  88.2788830  28.0319530  10.4730320  86.3761560
  28.5464200  10.3838330  87.1783990  27.1888610  10.8190020  86.6689470
  30.0073930  10.7585660  75.8045560  29.8475070  10.4688600  76.7027390
  29.8420640   9.9825790  75.2690790  22.4862310  10.5384190  77.5817180
  22.3104790   9.6219730  77.3684980  21.6318050  10.8971480  77.8214980
  29.7100060   8.2673220  74.3643560  29.0165220   8.2650510  73.7045840
  30.4522920   7.8432540  73.9337730  29.2749990   9.8935930  78.4392050
  29.7306940   9.1125310  78.7530670  29.6142510  10.6042750  78.9833230
  17.0252540   5.6652390  85.5982790  17.1883580   5.1957750  84.7802160
  17.4904990   5.1575950  86.2631630  18.5991520   5.0403820  87.7578600
  18.2146310   4.3997490  88.3561560  18.9103710   5.7439940  88.3273330
  21.0669820   5.1349990  76.1538280  20.2932080   4.5947610  75.9937000
  21.7964450   4.6156600  75.8156040  31.8257800   4.1315350  81.9464670
  32.5456920   4.6270640  81.5560780  31.6239620   3.4533240  81.3018540
  27.2076600   4.2024410  87.8333670  27.1413910   3.2820080  87.5791260
  26.5781740   4.2999850  88.5478310  21.1107220   4.8030370  79.7917090
  21.6285890   3.9998630  79.7373980  20.6591240   4.7409510  80.6333920
  25.9976720   6.0696650  75.0644390  26.3392420   6.8138880  74.5687710
  25.1689430   6.3827770  75.4269220  21.7964880   2.2275980  89.5882340
  21.4965020   2.3733160  88.6910160  22.5676120   1.6681270  89.4955730
  27.1393330   7.0244980  87.5837470  27.1537870   6.0925940  87.3656380
  26.4318430   7.1104740  88.2227240  33.3504540   3.6652320  86.9306050
  32.6252730   4.2581100  86.7335440  33.8780000   3.6575860  86.1319420
  33.3017650   8.0627060  76.5818210  32.6593810   7.4082680  76.8561930
  32.9148310   8.4682150  75.8058880  28.8804130   5.3912490  80.4289900
  29.2327950   4.7940620  79.7691270  27.9966460   5.0656720  80.5998150
  24.9667410   6.1510180  77.8360310  25.6538540   6.6979390  78.2167900
  24.1799830   6.6950910  77.8709920  17.1059810   1.7683000  73.3277390
  17.9754660   2.0507800  73.6113310  16.6150130   2.5818870  73.2126200
  24.2694620   3.1556210  77.4485670  24.7257400   3.9661460  77.6745860
  23.9182830   2.8379350  78.2804160  26.5727230   8.6662550  84.6777970
  27.2169450   8.8721930  85.3551390  26.9356670   7.9050950  84.2248820
  27.8459310   6.6694900  83.3955420  28.4881540   5.9688060  83.5087590
  28.3708660   7.4493340  83.2152310  31.6915030   6.9543520  73.1194560
  31.4652610   6.2373960  73.7119200  31.3011230   6.7055960  72.2816310
  29.6196930   7.4689800  86.5991480  29.9553170   8.0556490  87.2769400
  28.6997270   7.3382510  86.8289270  17.4731060  10.9810380  73.8939020
  17.8328700  11.5799720  73.2396290  17.3323400  11.5270270  74.6674050
  31.2731280   4.8715460  74.7808720  30.9852980   5.3328150  75.5686600
  32.0683450   4.4113230  75.0492940  17.4572920   9.2465240  88.3681420
  17.5664040   8.3059980  88.2276810  16.8053480   9.5119990  87.7195150
  25.4485510   7.5181130  89.7679540  25.1282380   6.7990370  90.3125230
  24.7743870   8.1936200  89.8415600  23.4899680   8.3641580  74.7112690
  23.4809780   9.0971270  74.0957200  22.5698040   8.1173160  74.8039650
  19.0906320   3.5856470  75.4559450  18.4834270   4.3255370  75.4654750
  19.5655670   3.6755830  74.6297650  26.4759280   8.4269820  73.3737880
  26.5771260   8.2233810  72.4439860  25.5761020   8.1728100  73.5785660
  25.1177390  10.9456140  78.0685550  25.3718890  10.9077530  77.1464920
  24.1689870  10.8189470  78.0613800  21.1011610   3.5467620  73.2048020
  21.8674880   3.4348980  73.7673450  21.1786300   2.8505590  72.5524790
  33.1255550   9.0356870  81.3198320  33.2502970   9.8588040  81.7922130
  33.9921110   8.8247600  80.9722470  20.5973080  11.1288080  80.9915450
  21.3335560  10.5803540  81.2624020  20.9814000  11.9944090  80.8521440
  17.4818560   7.1961650  76.8656960  16.5558340   7.4382790  76.8562370
  17.9474990   8.0235910  76.7441710  19.6031360  10.3134150  90.1801030
  20.4044090  10.6346200  90.5936430  19.0883180   9.9529730  90.9020940
  23.7075390  10.3018390  72.8141020  24.5004000  10.5907220  72.3622810
  23.1879740   9.8710560  72.1353500  28.4395990   6.4214020  90.1276440
  27.8334150   6.4445620  89.3872190  28.1350100   5.6897060  90.6643690
  29.8696360  10.1494310  88.7385850  30.8218110  10.0652330  88.6886090
  29.7224580  10.8136020  89.4119640  32.7605560   9.5288520  74.2377760
  32.4747070   9.1153660  73.4231940  32.5625110  10.4576230  74.1178280
  17.3229170   2.8007610  89.1237080  17.8268190   2.2214890  89.6953310
  16.5836590   3.0847840  89.6613450  24.2252790   5.5221800  72.6783370
  24.1203430   4.9074150  73.4044750  24.0577010   4.9987690  71.8946380
  24.3767110   4.2078600  88.6572600  23.6112780   4.7763600  88.5727270
  24.5583070   3.9154810  87.7640830  27.4655520   4.5841830  73.2825360
  26.9165620   5.0311130  73.9268100  28.0874780   4.0791080  73.8063030
  31.5190460   5.9383930  89.2147620  32.2599930   6.2759690  88.7115080
  30.7563140   6.1075990  88.6617390  23.1330640   3.5432750  75.1790660
  23.5547060   3.3772620  76.0222050  23.2581480   2.7332980  74.6845800
  25.6458280   2.5670360  72.4267760  26.1663940   1.8519380  72.0608910
  26.2926680   3.2056230  72.7268270  30.1936120   3.9898760  87.7502830
  30.6077140   4.1443840  88.5993250  29.2587120   4.1153980  87.9128610
  24.9551350   3.9419240  85.7198760  25.3739460   4.7851970  85.5475000
  24.0359980   4.0791280  85.4905540  29.6303150   2.2272610  85.6799110
  29.1038370   2.7515230  85.0764250  29.9734490   2.8600000  86.3108840
  22.8058770  10.2472250  86.8356490  22.2679860  10.9718310  86.5165190
  23.0592730   9.7702590  86.0453830  25.6620980  11.4823460  87.0943140
  25.5879680  12.3858600  87.4015510  24.7599820  11.1635360  87.0665210
  26.2106310  10.6481970  74.7169500  27.1057100  10.9866940  74.7388260
  26.2423940   9.9261380  74.0893780  19.8502470   6.0209020  72.9456500
  20.2877340   6.5638690  73.6014080  20.3350200   5.1955970  72.9552840
  17.0648270   8.8098050  80.3976760  17.3951280   7.9419110  80.1655400
  17.4939270   9.0156570  81.2281720  21.6610190   7.1407060  78.0578730
  21.3605730   7.0172030  78.9582640  21.5547680   6.2815650  77.6494460
  17.5538480   9.6768640  83.1358390  17.1169470   9.8569440  83.9682540
  18.1216160  10.4343260  82.9940110  33.1900660   9.1785640  87.4235700
  32.5902650   9.2378200  86.6799620  33.3194560   8.2390620  87.5532550
  34.4302110   6.9203460  72.7605410  33.5995070   6.9880110  73.2312640
  34.6073940   7.8107580  72.4572270  33.8858570   3.6650940  75.2639610
  34.6477480   4.2347590  75.3699300  33.9012940   3.0978140  76.0347920
  17.3862910   2.1888870  79.4947270  16.7311750   1.9200510  78.8506970
  18.2240860   2.0793350  79.0449250  34.8918540   4.5201040  80.1081540
  35.2627370   3.7368360  79.7017510  35.5320470   5.2090140  79.9298840
  31.8752300   5.9037620  85.5211860  31.0612140   6.3334780  85.7837650
  32.2826500   6.5156030  84.9080910  33.9377740   3.9585310  72.4212130
  34.2126580   4.8664190  72.2931350  33.7488480   3.8947840  73.3574120
  18.4238840   2.5741440  84.0350610  18.7911880   2.4868840  84.9146630
  17.8549660   1.8107990  83.9357470  31.9328350  10.6556220  79.0480130
  32.5287420  10.3340790  78.3714550  32.1906500  10.1828040  79.8393400
  19.8390920   7.0874130  89.1970760  19.7960550   6.7167040  90.0785220
  19.9701930   8.0251700  89.3372580  23.5396950   8.6433720  84.7980480
  23.2988310   8.9108280  83.9111000  24.4799590   8.8139450  84.8531340
  34.8001110  10.6628100  85.5991120  34.3059390  11.0596970  84.8818250
  34.1914400  10.0377310  85.9928400  19.6778950  10.0336380  86.3168540
  19.0839270   9.9021080  87.0558580  19.6702790   9.1974520  85.8510640
  32.4840560  11.3051520  82.8777860  32.0243530  12.0567330  82.5035880
  31.8553020  10.5857990  82.8192660  19.3091180   7.3994760  85.2676580
  18.5825240   6.7800050  85.2002530  19.3700330   7.7935370  84.3974660
  22.9136280   9.6139760  82.0525990  23.4301300   9.0027120  81.5274250
  23.5633660  10.1168540  82.5437000  25.6531780  10.5048250  82.8794970
  25.9409590  10.2502550  82.0027980  26.1655000   9.9525610  83.4700540
  17.5921180  10.7169150  78.4773340  17.4243220  10.0839830  79.1755230
  16.7255690  10.9228550  78.1267530  19.1983880   9.4102380  75.9223480
  18.6731500   9.7910410  75.2185440  19.1228460  10.0353150  76.6433190
  25.7204140  11.4264350  90.2463170  26.6471450  11.1908620  90.2899130
  25.7054570  12.2536350  89.7649200  33.9549200  10.9689920  77.2437420
  34.1301390  10.2827660  76.5998340  33.2570770  11.4936970  76.8514090
  21.7976850  11.3584760  74.7972730  22.5295670  11.0744040  74.2496620
  22.0570520  11.1198040  75.6872110  20.9591640   7.4749490  74.8019060
  20.3300520   7.9434590  75.3504890  21.0739470   6.6298710  75.2365250
  32.2881700  10.6534210  90.0704210  33.0807020  10.1583440  89.8630170
  32.5814850  11.3324350  90.6779820  26.5459400   3.3034170  62.8329530
  25.7701500   2.8234610  63.1228100  27.1972330   2.6239820  62.6585690
  20.5625230   3.6153980  63.7105290  19.7310110   3.3602690  64.1101800
  21.1706210   3.6864750  64.4463210  30.5666830   7.7094360  61.6128660
  30.1048360   6.9381600  61.9415830  31.3792380   7.7360430  62.1181110
  20.5426490   7.6494070  63.9063310  20.8454530   6.7591810  63.7273530
  21.2870080   8.2064290  63.6785560  26.7930140   9.9952370  61.2332650
  26.1741580  10.4509870  60.6627090  27.6481920  10.1503830  60.8322350
  25.9868390   5.9791360  62.8399690  25.9176670   5.0381300  62.6788820
  26.7488250   6.0692770  63.4122260  27.6593490   4.8791610  58.6264560
  27.0410760   5.3441060  58.0627280  28.1716740   5.5719090  59.0434070
  22.5225250   4.4067480  65.3048160  22.1894630   5.0336400  65.9469230
  22.6991930   4.9329360  64.5249830  21.7344350   6.3748280  67.1197340
  22.3518350   7.0499360  66.8381790  20.8737470   6.7836260  67.0284840
  17.0276690   5.5648140  56.0004190  16.6504670   6.0535240  55.2689090
  17.2849760   6.2373420  56.6310720  32.6521940   7.8387690  65.0351980
  31.9685460   8.5086800  65.0268650  33.1916230   8.0368340  64.2696840
  30.1880680   9.6831820  63.7497160  30.2007840   9.2794110  62.8819420
  29.6355900  10.4579110  63.6458590  31.4826100   6.4048040  58.8387330
  31.3722430   5.4622370  58.9636750  31.4794350   6.7663680  59.7250090
  29.5866120   4.5861660  65.0779770  30.0034910   4.3721770  64.2433230
  30.3105940   4.8434450  65.6488390  27.0246380   2.0313360  58.1949820
  26.0975660   1.9650740  58.4238290  27.1771200   2.9693490  58.0805060
  33.5328220   2.9848880  65.1696010  32.7046850   3.0541970  64.6946140
  34.1278700   3.5703190  64.7011840  31.0543670   3.5933660  58.6985070
  30.4356090   3.2553210  58.0511370  31.0368120   2.9493420  59.4064260
  22.6303020   2.5578100  60.9769550  22.2260020   1.8455350  60.4815450
  22.7166140   2.2131340  61.8657590  23.0984720   6.2445660  63.1408760
  22.8013010   5.6391130  62.4616540  24.0484540   6.2822970  63.0298120
  31.1870330   9.8177530  66.8031860  30.7100890  10.6249720  66.6104470
  30.5032120   9.1655860  66.9558070  22.1903150   5.9827350  69.7916560
  21.2931680   6.2067320  70.0389960  22.2156020   6.1062290  68.8427960
  29.2308370   2.8320470  55.7057820  29.6701650   1.9942900  55.5595640
  29.9436790   3.4649870  55.7921960  21.0174370   2.8540670  68.3673930
  20.8782140   3.7263470  68.7361330  20.1355730   2.5113480  68.2221870
  27.3403750   7.7716540  59.6739060  27.7799660   8.5140870  59.2594450
  27.2790640   8.0143110  60.5978020  22.8154720   8.7962370  70.5759080
  22.7870150   9.2005320  69.7087510  22.6519690   7.8672730  70.4130680
  34.7669540   9.5789470  71.8723250  35.2429260  10.0572360  72.5512330
  35.3876700   9.5106960  71.1468750  16.9693020   4.6238220  64.2844840
  17.0473440   4.7586990  63.3400560  17.5834700   3.9154110  64.4772960
  18.2140650   6.3238410  60.6951020  17.8068730   6.4653000  59.8404620
  19.1053660   6.0398570  60.4922230  34.1702790   6.7702320  69.0323260
  34.2965850   6.5314200  68.1140440  34.2124170   5.9386860  69.5045340
  28.0319530  10.4730320  67.6018070  28.5464200  10.3838330  68.4040500
  27.1888610  10.8190020  67.8945980  30.0073930  10.7585660  57.0302070
  29.8475070  10.4688600  57.9283900  29.8420640   9.9825790  56.4947300
  22.4862310  10.5384190  58.8073690  22.3104790   9.6219730  58.5941490
  21.6318050  10.8971480  59.0471490  29.7100060   8.2673220  55.5900070
  29.0165220   8.2650510  54.9302350  30.4522920   7.8432540  55.1594240
  29.2749990   9.8935930  59.6648560  29.7306940   9.1125310  59.9787180
  29.6142510  10.6042750  60.2089740  17.0252540   5.6652390  66.8239300
  17.1883580   5.1957750  66.0058670  17.4904990   5.1575950  67.4888140
  18.5991520   5.0403820  68.9835110  18.2146310   4.3997490  69.5818070
  18.9103710   5.7439940  69.5529840  21.0669820   5.1349990  57.3794790
  20.2932080   4.5947610  57.2193510  21.7964450   4.6156600  57.0412550
  31.8257800   4.1315350  63.1721180  32.5456920   4.6270640  62.7817290
  31.6239620   3.4533240  62.5275050  27.2076600   4.2024410  69.0590180
  27.1413910   3.2820080  68.8047770  26.5781740   4.2999850  69.7734820
  21.1107220   4.8030370  61.0173600  21.6285890   3.9998630  60.9630490
  20.6591240   4.7409510  61.8590430  25.9976720   6.0696650  56.2900900
  26.3392420   6.8138880  55.7944220  25.1689430   6.3827770  56.6525730
  21.7964880   2.2275980  70.8138850  21.4965020   2.3733160  69.9166670
  22.5676120   1.6681270  70.7212240  27.1393330   7.0244980  68.8093980
  27.1537870   6.0925940  68.5912890  26.4318430   7.1104740  69.4483750
  33.3504540   3.6652320  68.1562560  32.6252730   4.2581100  67.9591950
  33.8780000   3.6575860  67.3575930  33.3017650   8.0627060  57.8074720
  32.6593810   7.4082680  58.0818440  32.9148310   8.4682150  57.0315390
  28.8804130   5.3912490  61.6546410  29.2327950   4.7940620  60.9947780
  27.9966460   5.0656720  61.8254660  24.9667410   6.1510180  59.0616820
  25.6538540   6.6979390  59.4424410  24.1799830   6.6950910  59.0966430
  17.1059810   1.7683000  54.5533900  17.9754660   2.0507800  54.8369820
  16.6150130   2.5818870  54.4382710  24.2694620   3.1556210  58.6742180
  24.7257400   3.9661460  58.9002370  23.9182830   2.8379350  59.5060670
  26.5727230   8.6662550  65.9034480  27.2169450   8.8721930  66.5807900
  26.9356670   7.9050950  65.4505330  27.8459310   6.6694900  64.6211930
  28.4881540   5.9688060  64.7344100  28.3708660   7.4493340  64.4408820
  31.6915030   6.9543520  54.3451070  31.4652610   6.2373960  54.9375710
  31.3011230   6.7055960  53.5072820  29.6196930   7.4689800  67.8247990
  29.9553170   8.0556490  68.5025910  28.6997270   7.3382510  68.0545780
  17.4731060  10.9810380  55.1195530  17.8328700  11.5799720  54.4652800
  17.3323400  11.5270270  55.8930560  31.2731280   4.8715460  56.0065230
  30.9852980   5.3328150  56.7943110  32.0683450   4.4113230  56.2749450
  17.4572920   9.2465240  69.5937930  17.5664040   8.3059980  69.4533320
  16.8053480   9.5119990  68.9451660  25.4485510   7.5181130  70.9936050
  25.1282380   6.7990370  71.5381740  24.7743870   8.1936200  71.0672110
  23.4899680   8.3641580  55.9369200  23.4809780   9.0971270  55.3213710
  22.5698040   8.1173160  56.0296160  19.0906320   3.5856470  56.6815960
  18.4834270   4.3255370  56.6911260  19.5655670   3.6755830  55.8554160
  26.4759280   8.4269820  54.5994390  26.5771260   8.2233810  53.6696370
  25.5761020   8.1728100  54.8042170  25.1177390  10.9456140  59.2942060
  25.3718890  10.9077530  58.3721430  24.1689870  10.8189470  59.2870310
  21.1011610   3.5467620  54.4304530  21.8674880   3.4348980  54.9929960
  21.1786300   2.8505590  53.7781300  33.1255550   9.0356870  62.5454830
  33.2502970   9.8588040  63.0178640  33.9921110   8.8247600  62.1978980
  20.5973080  11.1288080  62.2171960  21.3335560  10.5803540  62.4880530
  20.9814000  11.9944090  62.0777950  17.4818560   7.1961650  58.0913470
  16.5558340   7.4382790  58.0818880  17.9474990   8.0235910  57.9698220
  19.6031360  10.3134150  71.4057540  20.4044090  10.6346200  71.8192940
  19.0883180   9.9529730  72.1277450  23.7075390  10.3018390  54.0397530
  24.5004000  10.5907220  53.5879320  23.1879740   9.8710560  53.3610010
  28.4395990   6.4214020  71.3532950  27.8334150   6.4445620  70.6128700
  28.1350100   5.6897060  71.8900200  29.8696360  10.1494310  69.9642360
  30.8218110  10.0652330  69.9142600  29.7224580  10.8136020  70.6376150
  32.7605560   9.5288520  55.4634270  32.4747070   9.1153660  54.6488450
  32.5625110  10.4576230  55.3434790  17.3229170   2.8007610  70.3493590
  17.8268190   2.2214890  70.9209820  16.5836590   3.0847840  70.8869960
  24.2252790   5.5221800  53.9039880  24.1203430   4.9074150  54.6301260
  24.0577010   4.9987690  53.1202890  24.3767110   4.2078600  69.8829110
  23.6112780   4.7763600  69.7983780  24.5583070   3.9154810  68.9897340
  27.4655520   4.5841830  54.5081870  26.9165620   5.0311130  55.1524610
  28.0874780   4.0791080  55.0319540  31.5190460   5.9383930  70.4404130
  32.2599930   6.2759690  69.9371590  30.7563140   6.1075990  69.8873900
  23.1330640   3.5432750  56.4047170  23.5547060   3.3772620  57.2478560
  23.2581480   2.7332980  55.9102310  25.6458280   2.5670360  53.6524270
  26.1663940   1.8519380  53.2865420  26.2926680   3.2056230  53.9524780
  30.1936120   3.9898760  68.9759340  30.6077140   4.1443840  69.8249760
  29.2587120   4.1153980  69.1385120  24.9551350   3.9419240  66.9455270
  25.3739460   4.7851970  66.7731510  24.0359980   4.0791280  66.7162050
  29.6303150   2.2272610  66.9055620  29.1038370   2.7515230  66.3020760
  29.9734490   2.8600000  67.5365350  22.8058770  10.2472250  68.0613000
  22.2679860  10.9718310  67.7421700  23.0592730   9.7702590  67.2710340
  25.6620980  11.4823460  68.3199650  25.5879680  12.3858600  68.6272020
  24.7599820  11.1635360  68.2921720  26.2106310  10.6481970  55.9426010
  27.1057100  10.9866940  55.9644770  26.2423940   9.9261380  55.3150290
  19.8502470   6.0209020  54.1713010  20.2877340   6.5638690  54.8270590
  20.3350200   5.1955970  54.1809350  17.0648270   8.8098050  61.6233270
  17.3951280   7.9419110  61.3911910  17.4939270   9.0156570  62.4538230
  21.6610190   7.1407060  59.2835240  21.3605730   7.0172030  60.1839150
  21.5547680   6.2815650  58.8750970  17.5538480   9.6768640  64.3614900
  17.1169470   9.8569440  65.1939050  18.1216160  10.4343260  64.2196620
  33.1900660   9.1785640  68.6492210  32.5902650   9.2378200  67.9056130
  33.3194560   8.2390620  68.7789060  34.4302110   6.9203460  53.9861920
  33.5995070   6.9880110  54.4569150  34.6073940   7.8107580  53.6828780
  33.8858570   3.6650940  56.4896120  34.6477480   4.2347590  56.5955810
  33.9012940   3.0978140  57.2604430  17.3862910   2.1888870  60.7203780
  16.7311750   1.9200510  60.0763480  18.2240860   2.0793350  60.2705760
  34.8918540   4.5201040  61.3338050  35.2627370   3.7368360  60.9274020
  35.5320470   5.2090140  61.1555350  31.8752300   5.9037620  66.7468370
  31.0612140   6.3334780  67.0094160  32.2826500   6.5156030  66.1337420
  33.9377740   3.9585310  53.6468640  34.2126580   4.8664190  53.5187860
  33.7488480   3.8947840  54.5830630  18.4238840   2.5741440  65.2607120
  18.7911880   2.4868840  66.1403140  17.8549660   1.8107990  65.1613980
  31.9328350  10.6556220  60.2736640  32.5287420  10.3340790  59.5971060
  32.1906500  10.1828040  61.0649910  19.8390920   7.0874130  70.4227270
  19.7960550   6.7167040  71.3041730  19.9701930   8.0251700  70.5629090
  23.5396950   8.6433720  66.0236990  23.2988310   8.9108280  65.1367510
  24.4799590   8.8139450  66.0787850  34.8001110  10.6628100  66.8247630
  34.3059390  11.0596970  66.1074760  34.1914400  10.0377310  67.2184910
  19.6778950  10.0336380  67.5425050  19.0839270   9.9021080  68.2815090
  19.6702790   9.1974520  67.0767150  32.4840560  11.3051520  64.1034370
  32.0243530  12.0567330  63.7292390  31.8553020  10.5857990  64.0449170
  19.3091180   7.3994760  66.4933090  18.5825240   6.7800050  66.4259040
  19.3700330   7.7935370  65.6231170  22.9136280   9.6139760  63.2782500
  23.4301300   9.0027120  62.7530760  23.5633660  10.1168540  63.7693510
  25.6531780  10.5048250  64.1051480  25.9409590  10.2502550  63.2284490
  26.1655000   9.9525610  64.6957050  17.5921180  10.7169150  59.7029850
  17.4243220  10.0839830  60.4011740  16.7255690  10.9228550  59.3524040
  19.1983880   9.4102380  57.1479990  18.6731500   9.7910410  56.4441950
  19.1228460  10.0353150  57.8689700  25.7204140  11.4264350  71.4719680
  26.6471450  11.1908620  71.5155640  25.7054570  12.2536350  70.9905710
  33.9549200  10.9689920  58.4693930  34.1301390  10.2827660  57.8254850
  33.2570770  11.4936970  58.0770600  21.7976850  11.3584760  56.0229240
  22.5295670  11.0744040  55.4753130  22.0570520  11.1198040  56.9128620
  20.9591640   7.4749490  56.0275570  20.3300520   7.9434590  56.5761400
  21.0739470   6.6298710  56.4621760  32.2881700  10.6534210  71.2960720
  33.0807020  10.1583440  71.0886680  32.5814850  11.3324350  71.9036330
  26.5459400   3.3034170  44.0586040  25.7701500   2.8234610  44.3484610
  27.1972330   2.6239820  43.8842200  20.5625230   3.6153980  44.9361800
  19.7310110   3.3602690  45.3358310  21.1706210   3.6864750  45.6719720
  30.5666830   7.7094360  42.8385170  30.1048360   6.9381600  43.1672340
  31.3792380   7.7360430  43.3437620  20.5426490   7.6494070  45.1319820
  20.8454530   6.7591810  44.9530040  21.2870080   8.2064290  44.9042070
  26.7930140   9.9952370  42.4589160  26.1741580  10.4509870  41.8883600
  27.6481920  10.1503830  42.0578860  25.9868390   5.9791360  44.0656200
  25.9176670   5.0381300  43.9045330  26.7488250   6.0692770  44.6378770
  27.6593490   4.8791610  39.8521070  27.0410760   5.3441060  39.2883790
  28.1716740   5.5719090  40.2690580  22.5225250   4.4067480  46.5304670
  22.1894630   5.0336400  47.1725740  22.6991930   4.9329360  45.7506340
  21.7344350   6.3748280  48.3453850  22.3518350   7.0499360  48.0638300
  20.8737470   6.7836260  48.2541350  17.0276690   5.5648140  37.2260700
  16.6504670   6.0535240  36.4945600  17.2849760   6.2373420  37.8567230
  32.6521940   7.8387690  46.2608490  31.9685460   8.5086800  46.2525160
  33.1916230   8.0368340  45.4953350  30.1880680   9.6831820  44.9753670
  30.2007840   9.2794110  44.1075930  29.6355900  10.4579110  44.8715100
  31.4826100   6.4048040  40.0643840  31.3722430   5.4622370  40.1893260
  31.4794350   6.7663680  40.9506600  29.5866120   4.5861660  46.3036280
  30.0034910   4.3721770  45.4689740  30.3105940   4.8434450  46.8744900
  27.0246380   2.0313360  39.4206330  26.0975660   1.9650740  39.6494800
  27.1771200   2.9693490  39.3061570  33.5328220   2.9848880  46.3952520
  32.7046850   3.0541970  45.9202650  34.1278700   3.5703190  45.9268350
  31.0543670   3.5933660  39.9241580  30.4356090   3.2553210  39.2767880
  31.0368120   2.9493420  40.6320770  22.6303020   2.5578100  42.2026060
  22.2260020   1.8455350  41.7071960  22.7166140   2.2131340  43.0914100
  23.0984720   6.2445660  44.3665270  22.8013010   5.6391130  43.6873050
  24.0484540   6.2822970  44.2554630  31.1870330   9.8177530  48.0288370
  30.7100890  10.6249720  47.8360980  30.5032120   9.1655860  48.1814580
  22.1903150   5.9827350  51.0173070  21.2931680   6.2067320  51.2646470
  22.2156020   6.1062290  50.0684470  29.2308370   2.8320470  36.9314330
  29.6701650   1.9942900  36.7852150  29.9436790   3.4649870  37.0178470
  21.0174370   2.8540670  49.5930440  20.8782140   3.7263470  49.9617840
  20.1355730   2.5113480  49.4478380  27.3403750   7.7716540  40.8995570
  27.7799660   8.5140870  40.4850960  27.2790640   8.0143110  41.8234530
  22.8154720   8.7962370  51.8015590  22.7870150   9.2005320  50.9344020
  22.6519690   7.8672730  51.6387190  34.7669540   9.5789470  53.0979760
  35.2429260  10.0572360  53.7768840  35.3876700   9.5106960  52.3725260
  16.9693020   4.6238220  45.5101350  17.0473440   4.7586990  44.5657070
  17.5834700   3.9154110  45.7029470  18.2140650   6.3238410  41.9207530
  17.8068730   6.4653000  41.0661130  19.1053660   6.0398570  41.7178740
  34.1702790   6.7702320  50.2579770  34.2965850   6.5314200  49.3396950
  34.2124170   5.9386860  50.7301850  28.0319530  10.4730320  48.8274580
  28.5464200  10.3838330  49.6297010  27.1888610  10.8190020  49.1202490
  30.0073930  10.7585660  38.2558580  29.8475070  10.4688600  39.1540410
  29.8420640   9.9825790  37.7203810  22.4862310  10.5384190  40.0330200
  22.3104790   9.6219730  39.8198000  21.6318050  10.8971480  40.2728000
  29.7100060   8.2673220  36.8156580  29.0165220   8.2650510  36.1558860
  30.4522920   7.8432540  36.3850750  29.2749990   9.8935930  40.8905070
  29.7306940   9.1125310  41.2043690  29.6142510  10.6042750  41.4346250
  17.0252540   5.6652390  48.0495810  17.1883580   5.1957750  47.2315180
  17.4904990   5.1575950  48.7144650  18.5991520   5.0403820  50.2091620
  18.2146310   4.3997490  50.8074580  18.9103710   5.7439940  50.7786350
  21.0669820   5.1349990  38.6051300  20.2932080   4.5947610  38.4450020
  21.7964450   4.6156600  38.2669060  31.8257800   4.1315350  44.3977690
  32.5456920   4.6270640  44.0073800  31.6239620   3.4533240  43.7531560
  27.2076600   4.2024410  50.2846690  27.1413910   3.2820080  50.0304280
  26.5781740   4.2999850  50.9991330  21.1107220   4.8030370  42.2430110
  21.6285890   3.9998630  42.1887000  20.6591240   4.7409510  43.0846940
  25.9976720   6.0696650  37.5157410  26.3392420   6.8138880  37.0200730
  25.1689430   6.3827770  37.8782240  21.7964880   2.2275980  52.0395360
  21.4965020   2.3733160  51.1423180  22.5676120   1.6681270  51.9468750
  27.1393330   7.0244980  50.0350490  27.1537870   6.0925940  49.8169400
  26.4318430   7.1104740  50.6740260  33.3504540   3.6652320  49.3819070
  32.6252730   4.2581100  49.1848460  33.8780000   3.6575860  48.5832440
  33.3017650   8.0627060  39.0331230  32.6593810   7.4082680  39.3074950
  32.9148310   8.4682150  38.2571900  28.8804130   5.3912490  42.8802920
  29.2327950   4.7940620  42.2204290  27.9966460   5.0656720  43.0511170
  24.9667410   6.1510180  40.2873330  25.6538540   6.6979390  40.6680920
  24.1799830   6.6950910  40.3222940  17.1059810   1.7683000  35.7790410
  17.9754660   2.0507800  36.0626330  16.6150130   2.5818870  35.6639220
  24.2694620   3.1556210  39.8998690  24.7257400   3.9661460  40.1258880
  23.9182830   2.8379350  40.7317180  26.5727230   8.6662550  47.1290990
  27.2169450   8.8721930  47.8064410  26.9356670   7.9050950  46.6761840
  27.8459310   6.6694900  45.8468440  28.4881540   5.9688060  45.9600610
  28.3708660   7.4493340  45.6665330  31.6915030   6.9543520  35.5707580
  31.4652610   6.2373960  36.1632220  31.3011230   6.7055960  34.7329330
  29.6196930   7.4689800  49.0504500  29.9553170   8.0556490  49.7282420
  28.6997270   7.3382510  49.2802290  17.4731060  10.9810380  36.3452040
  17.8328700  11.5799720  35.6909310  17.3323400  11.5270270  37.1187070
  31.2731280   4.8715460  37.2321740  30.9852980   5.3328150  38.0199620
  32.0683450   4.4113230  37.5005960  17.4572920   9.2465240  50.8194440
  17.5664040   8.3059980  50.6789830  16.8053480   9.5119990  50.1708170
  25.4485510   7.5181130  52.2192560  25.1282380   6.7990370  52.7638250
  24.7743870   8.1936200  52.2928620  23.4899680   8.3641580  37.1625710
  23.4809780   9.0971270  36.5470220  22.5698040   8.1173160  37.2552670
  19.0906320   3.5856470  37.9072470  18.4834270   4.3255370  37.9167770
  19.5655670   3.6755830  37.0810670  26.4759280   8.4269820  35.8250900
  26.5771260   8.2233810  34.8952880  25.5761020   8.1728100  36.0298680
  25.1177390  10.9456140  40.5198570  25.3718890  10.9077530  39.5977940
  24.1689870  10.8189470  40.5126820  21.1011610   3.5467620  35.6561040
  21.8674880   3.4348980  36.2186470  21.1786300   2.8505590  35.0037810
  33.1255550   9.0356870  43.7711340  33.2502970   9.8588040  44.2435150
  33.9921110   8.8247600  43.4235490  20.5973080  11.1288080  43.4428470
  21.3335560  10.5803540  43.7137040  20.9814000  11.9944090  43.3034460
  17.4818560   7.1961650  39.3169980  16.5558340   7.4382790  39.3075390
  17.9474990   8.0235910  39.1954730  19.6031360  10.3134150  52.6314050
  20.4044090  10.6346200  53.0449450  19.0883180   9.9529730  53.3533960
  23.7075390  10.3018390  35.2654040  24.5004000  10.5907220  34.8135830
  23.1879740   9.8710560  34.5866520  28.4395990   6.4214020  52.5789460
  27.8334150   6.4445620  51.8385210  28.1350100   5.6897060  53.1156710
  29.8696360  10.1494310  51.1898870  30.8218110  10.0652330  51.1399110
  29.7224580  10.8136020  51.8632660  32.7605560   9.5288520  36.6890780
  32.4747070   9.1153660  35.8744960  32.5625110  10.4576230  36.5691300
  17.3229170   2.8007610  51.5750100  17.8268190   2.2214890  52.1466330
  16.5836590   3.0847840  52.1126470  24.2252790   5.5221800  35.1296390
  24.1203430   4.9074150  35.8557770  24.0577010   4.9987690  34.3459400
  24.3767110   4.2078600  51.1085620  23.6112780   4.7763600  51.0240290
  24.5583070   3.9154810  50.2153850  27.4655520   4.5841830  35.7338380
  26.9165620   5.0311130  36.3781120  28.0874780   4.0791080  36.2576050
  31.5190460   5.9383930  51.6660640  32.2599930   6.2759690  51.1628100
  30.7563140   6.1075990  51.1130410  23.1330640   3.5432750  37.6303680
  23.5547060   3.3772620  38.4735070  23.2581480   2.7332980  37.1358820
  25.6458280   2.5670360  34.8780780  26.1663940   1.8519380  34.5121930
  26.2926680   3.2056230  35.1781290  30.1936120   3.9898760  50.2015850
  30.6077140   4.1443840  51.0506270  29.2587120   4.1153980  50.3641630
  24.9551350   3.9419240  48.1711780  25.3739460   4.7851970  47.9988020
  24.0359980   4.0791280  47.9418560  29.6303150   2.2272610  48.1312130
  29.1038370   2.7515230  47.5277270  29.9734490   2.8600000  48.7621860
  22.8058770  10.2472250  49.2869510  22.2679860  10.9718310  48.9678210
  23.0592730   9.7702590  48.4966850  25.6620980  11.4823460  49.5456160
  25.5879680  12.3858600  49.8528530  24.7599820  11.1635360  49.5178230
  26.2106310  10.6481970  37.1682520  27.1057100  10.9866940  37.1901280
  26.2423940   9.9261380  36.5406800  19.8502470   6.0209020  35.3969520
  20.2877340   6.5638690  36.0527100  20.3350200   5.1955970  35.4065860
  17.0648270   8.8098050  42.8489780  17.3951280   7.9419110  42.6168420
  17.4939270   9.0156570  43.6794740  21.6610190   7.1407060  40.5091750
  21.3605730   7.0172030  41.4095660  21.5547680   6.2815650  40.1007480
  17.5538480   9.6768640  45.5871410  17.1169470   9.8569440  46.4195560
  18.1216160  10.4343260  45.4453130  33.1900660   9.1785640  49.8748720
  32.5902650   9.2378200  49.1312640  33.3194560   8.2390620  50.0045570
  34.4302110   6.9203460  35.2118430  33.5995070   6.9880110  35.6825660
  34.6073940   7.8107580  34.9085290  33.8858570   3.6650940  37.7152630
  34.6477480   4.2347590  37.8212320  33.9012940   3.0978140  38.4860940
  17.3862910   2.1888870  41.9460290  16.7311750   1.9200510  41.3019990
  18.2240860   2.0793350  41.4962270  34.8918540   4.5201040  42.5594560
  35.2627370   3.7368360  42.1530530  35.5320470   5.2090140  42.3811860
  31.8752300   5.9037620  47.9724880  31.0612140   6.3334780  48.2350670
  32.2826500   6.5156030  47.3593930  33.9377740   3.9585310  34.8725150
  34.2126580   4.8664190  34.7444370  33.7488480   3.8947840  35.8087140
  18.4238840   2.5741440  46.4863630  18.7911880   2.4868840  47.3659650
  17.8549660   1.8107990  46.3870490  31.9328350  10.6556220  41.4993150
  32.5287420  10.3340790  40.8227570  32.1906500  10.1828040  42.2906420
  19.8390920   7.0874130  51.6483780  19.7960550   6.7167040  52.5298240
  19.9701930   8.0251700  51.7885600  23.5396950   8.6433720  47.2493500
  23.2988310   8.9108280  46.3624020  24.4799590   8.8139450  47.3044360
  34.8001110  10.6628100  48.0504140  34.3059390  11.0596970  47.3331270
  34.1914400  10.0377310  48.4441420  19.6778950  10.0336380  48.7681560
  19.0839270   9.9021080  49.5071600  19.6702790   9.1974520  48.3023660
  32.4840560  11.3051520  45.3290880  32.0243530  12.0567330  44.9548900
  31.8553020  10.5857990  45.2705680  19.3091180   7.3994760  47.7189600
  18.5825240   6.7800050  47.6515550  19.3700330   7.7935370  46.8487680
  22.9136280   9.6139760  44.5039010  23.4301300   9.0027120  43.9787270
  23.5633660  10.1168540  44.9950020  25.6531780  10.5048250  45.3307990
  25.9409590  10.2502550  44.4541000  26.1655000   9.9525610  45.9213560
  17.5921180  10.7169150  40.9286360  17.4243220  10.0839830  41.6268250
  16.7255690  10.9228550  40.5780550  19.1983880   9.4102380  38.3736500
  18.6731500   9.7910410  37.6698460  19.1228460  10.0353150  39.0946210
  25.7204140  11.4264350  52.6976190  26.6471450  11.1908620  52.7412150
  25.7054570  12.2536350  52.2162220  33.9549200  10.9689920  39.6950440
  34.1301390  10.2827660  39.0511360  33.2570770  11.4936970  39.3027110
  21.7976850  11.3584760  37.2485750  22.5295670  11.0744040  36.7009640
  22.0570520  11.1198040  38.1385130  20.9591640   7.4749490  37.2532080
  20.3300520   7.9434590  37.8017910  21.0739470   6.6298710  37.6878270
  32.2881700  10.6534210  52.5217230  33.0807020  10.1583440  52.3143190
  32.5814850  11.3324350  53.1292840  26.5459400   3.3034170  25.2842550
  25.7701500   2.8234610  25.5741120  27.1972330   2.6239820  25.1098710
  20.5625230   3.6153980  26.1618310  19.7310110   3.3602690  26.5614820
  21.1706210   3.6864750  26.8976230  30.5666830   7.7094360  24.0641680
  30.1048360   6.9381600  24.3928850  31.3792380   7.7360430  24.5694130
  20.5426490   7.6494070  26.3576330  20.8454530   6.7591810  26.1786550
  21.2870080   8.2064290  26.1298580  26.7930140   9.9952370  23.6845670
  26.1741580  10.4509870  23.1140110  27.6481920  10.1503830  23.2835370
  25.9868390   5.9791360  25.2912710  25.9176670   5.0381300  25.1301840
  26.7488250   6.0692770  25.8635280  27.6593490   4.8791610  21.0777580
  27.0410760   5.3441060  20.5140300  28.1716740   5.5719090  21.4947090
  22.5225250   4.4067480  27.7561180  22.1894630   5.0336400  28.3982250
  22.6991930   4.9329360  26.9762850  21.7344350   6.3748280  29.5710360
  22.3518350   7.0499360  29.2894810  20.8737470   6.7836260  29.4797860
  17.0276690   5.5648140  18.4517210  16.6504670   6.0535240  17.7202110
  17.2849760   6.2373420  19.0823740  32.6521940   7.8387690  27.4865000
  31.9685460   8.5086800  27.4781670  33.1916230   8.0368340  26.7209860
  30.1880680   9.6831820  26.2010180  30.2007840   9.2794110  25.3332440
  29.6355900  10.4579110  26.0971610  31.4826100   6.4048040  21.2900350
  31.3722430   5.4622370  21.4149770  31.4794350   6.7663680  22.1763110
  29.5866120   4.5861660  27.5292790  30.0034910   4.3721770  26.6946250
  30.3105940   4.8434450  28.1001410  27.0246380   2.0313360  20.6462840
  26.0975660   1.9650740  20.8751310  27.1771200   2.9693490  20.5318080
  33.5328220   2.9848880  27.6209030  32.7046850   3.0541970  27.1459160
  34.1278700   3.5703190  27.1524860  31.0543670   3.5933660  21.1498090
  30.4356090   3.2553210  20.5024390  31.0368120   2.9493420  21.8577280
  22.6303020   2.5578100  23.4282570  22.2260020   1.8455350  22.9328470
  22.7166140   2.2131340  24.3170610  23.0984720   6.2445660  25.5921780
  22.8013010   5.6391130  24.9129560  24.0484540   6.2822970  25.4811140
  31.1870330   9.8177530  29.2544880  30.7100890  10.6249720  29.0617490
  30.5032120   9.1655860  29.4071090  22.1903150   5.9827350  32.2429580
  21.2931680   6.2067320  32.4902980  22.2156020   6.1062290  31.2940980
  29.2308370   2.8320470  18.1570840  29.6701650   1.9942900  18.0108660
  29.9436790   3.4649870  18.2434980  21.0174370   2.8540670  30.8186950
  20.8782140   3.7263470  31.1874350  20.1355730   2.5113480  30.6734890
  27.3403750   7.7716540  22.1252080  27.7799660   8.5140870  21.7107470
  27.2790640   8.0143110  23.0491040  22.8154720   8.7962370  33.0272100
  22.7870150   9.2005320  32.1600530  22.6519690   7.8672730  32.8643700
  34.7669540   9.5789470  34.3236270  35.2429260  10.0572360  35.0025350
  35.3876700   9.5106960  33.5981770  16.9693020   4.6238220  26.7357860
  17.0473440   4.7586990  25.7913580  17.5834700   3.9154110  26.9285980
  18.2140650   6.3238410  23.1464040  17.8068730   6.4653000  22.2917640
  19.1053660   6.0398570  22.9435250  34.1702790   6.7702320  31.4836280
  34.2965850   6.5314200  30.5653460  34.2124170   5.9386860  31.9558360
  28.0319530  10.4730320  30.0531090  28.5464200  10.3838330  30.8553520
  27.1888610  10.8190020  30.3459000  30.0073930  10.7585660  19.4815090
  29.8475070  10.4688600  20.3796920  29.8420640   9.9825790  18.9460320
  22.4862310  10.5384190  21.2586710  22.3104790   9.6219730  21.0454510
  21.6318050  10.8971480  21.4984510  29.7100060   8.2673220  18.0413090
  29.0165220   8.2650510  17.3815370  30.4522920   7.8432540  17.6107260
  29.2749990   9.8935930  22.1161580  29.7306940   9.1125310  22.4300200
  29.6142510  10.6042750  22.6602760  17.0252540   5.6652390  29.2752320
  17.1883580   5.1957750  28.4571690  17.4904990   5.1575950  29.9401160
  18.5991520   5.0403820  31.4348130  18.2146310   4.3997490  32.0331090
  18.9103710   5.7439940  32.0042860  21.0669820   5.1349990  19.8307810
  20.2932080   4.5947610  19.6706530  21.7964450   4.6156600  19.4925570
  31.8257800   4.1315350  25.6234200  32.5456920   4.6270640  25.2330310
  31.6239620   3.4533240  24.9788070  27.2076600   4.2024410  31.5103200
  27.1413910   3.2820080  31.2560790  26.5781740   4.2999850  32.2247840
  21.1107220   4.8030370  23.4686620  21.6285890   3.9998630  23.4143510
  20.6591240   4.7409510  24.3103450  25.9976720   6.0696650  18.7413920
  26.3392420   6.8138880  18.2457240  25.1689430   6.3827770  19.1038750
  21.7964880   2.2275980  33.2651870  21.4965020   2.3733160  32.3679690
  22.5676120   1.6681270  33.1725260  27.1393330   7.0244980  31.2607000
  27.1537870   6.0925940  31.0425910  26.4318430   7.1104740  31.8996770
  33.3504540   3.6652320  30.6075580  32.6252730   4.2581100  30.4104970
  33.8780000   3.6575860  29.8088950  33.3017650   8.0627060  20.2587740
  32.6593810   7.4082680  20.5331460  32.9148310   8.4682150  19.4828410
  28.8804130   5.3912490  24.1059430  29.2327950   4.7940620  23.4460800
  27.9966460   5.0656720  24.2767680  24.9667410   6.1510180  21.5129840
  25.6538540   6.6979390  21.8937430  24.1799830   6.6950910  21.5479450
  17.1059810   1.7683000  17.0046920  17.9754660   2.0507800  17.2882840
  16.6150130   2.5818870  16.8895730  24.2694620   3.1556210  21.1255200
  24.7257400   3.9661460  21.3515390  23.9182830   2.8379350  21.9573690
  26.5727230   8.6662550  28.3547500  27.2169450   8.8721930  29.0320920
  26.9356670   7.9050950  27.9018350  27.8459310   6.6694900  27.0724950
  28.4881540   5.9688060  27.1857120  28.3708660   7.4493340  26.8921840
  31.6915030   6.9543520  16.7964090  31.4652610   6.2373960  17.3888730
  31.3011230   6.7055960  15.9585840  29.6196930   7.4689800  30.2761010
  29.9553170   8.0556490  30.9538930  28.6997270   7.3382510  30.5058800
  17.4731060  10.9810380  17.5708550  17.8328700  11.5799720  16.9165820
  17.3323400  11.5270270  18.3443580  31.2731280   4.8715460  18.4578250
  30.9852980   5.3328150  19.2456130  32.0683450   4.4113230  18.7262470
  17.4572920   9.2465240  32.0450950  17.5664040   8.3059980  31.9046340
  16.8053480   9.5119990  31.3964680  25.4485510   7.5181130  33.4449070
  25.1282380   6.7990370  33.9894760  24.7743870   8.1936200  33.5185130
  23.4899680   8.3641580  18.3882220  23.4809780   9.0971270  17.7726730
  22.5698040   8.1173160  18.4809180  19.0906320   3.5856470  19.1328980
  18.4834270   4.3255370  19.1424280  19.5655670   3.6755830  18.3067180
  26.4759280   8.4269820  17.0507410  26.5771260   8.2233810  16.1209390
  25.5761020   8.1728100  17.2555190  25.1177390  10.9456140  21.7455080
  25.3718890  10.9077530  20.8234450  24.1689870  10.8189470  21.7383330
  21.1011610   3.5467620  16.8817550  21.8674880   3.4348980  17.4442980
  21.1786300   2.8505590  16.2294320  33.1255550   9.0356870  24.9967850
  33.2502970   9.8588040  25.4691660  33.9921110   8.8247600  24.6492000
  20.5973080  11.1288080  24.6684980  21.3335560  10.5803540  24.9393550
  20.9814000  11.9944090  24.5290970  17.4818560   7.1961650  20.5426490
  16.5558340   7.4382790  20.5331900  17.9474990   8.0235910  20.4211240
  19.6031360  10.3134150  33.8570560  20.4044090  10.6346200  34.2705960
  19.0883180   9.9529730  34.5790470  23.7075390  10.3018390  16.4910550
  24.5004000  10.5907220  16.0392340  23.1879740   9.8710560  15.8123030
  28.4395990   6.4214020  33.8045970  27.8334150   6.4445620  33.0641720
  28.1350100   5.6897060  34.3413220  29.8696360  10.1494310  32.4155380
  30.8218110  10.0652330  32.3655620  29.7224580  10.8136020  33.0889170
  32.7605560   9.5288520  17.9147290  32.4747070   9.1153660  17.1001470
  32.5625110  10.4576230  17.7947810  17.3229170   2.8007610  32.8006610
  17.8268190   2.2214890  33.3722840  16.5836590   3.0847840  33.3382980
  24.2252790   5.5221800  16.3552900  24.1203430   4.9074150  17.0814280
  24.0577010   4.9987690  15.5715910  24.3767110   4.2078600  32.3342130
  23.6112780   4.7763600  32.2496800  24.5583070   3.9154810  31.4410360
  27.4655520   4.5841830  16.9594890  26.9165620   5.0311130  17.6037630
  28.0874780   4.0791080  17.4832560  31.5190460   5.9383930  32.8917150
  32.2599930   6.2759690  32.3884610  30.7563140   6.1075990  32.3386920
  23.1330640   3.5432750  18.8560190  23.5547060   3.3772620  19.6991580
  23.2581480   2.7332980  18.3615330  25.6458280   2.5670360  16.1037290
  26.1663940   1.8519380  15.7378440  26.2926680   3.2056230  16.4037800
  30.1936120   3.9898760  31.4272360  30.6077140   4.1443840  32.2762780
  29.2587120   4.1153980  31.5898140  24.9551350   3.9419240  29.3968290
  25.3739460   4.7851970  29.2244530  24.0359980   4.0791280  29.1675070
  29.6303150   2.2272610  29.3568640  29.1038370   2.7515230  28.7533780
  29.9734490   2.8600000  29.9878370  22.8058770  10.2472250  30.5126020
  22.2679860  10.9718310  30.1934720  23.0592730   9.7702590  29.7223360
  25.6620980  11.4823460  30.7712670  25.5879680  12.3858600  31.0785040
  24.7599820  11.1635360  30.7434740  26.2106310  10.6481970  18.3939030
  27.1057100  10.9866940  18.4157790  26.2423940   9.9261380  17.7663310
  19.8502470   6.0209020  16.6226030  20.2877340   6.5638690  17.2783610
  20.3350200   5.1955970  16.6322370  17.0648270   8.8098050  24.0746290
  17.3951280   7.9419110  23.8424930  17.4939270   9.0156570  24.9051250
  21.6610190   7.1407060  21.7348260  21.3605730   7.0172030  22.6352170
  21.5547680   6.2815650  21.3263990  17.5538480   9.6768640  26.8127920
  17.1169470   9.8569440  27.6452070  18.1216160  10.4343260  26.6709640
  33.1900660   9.1785640  31.1005230  32.5902650   9.2378200  30.3569150
  33.3194560   8.2390620  31.2302080  34.4302110   6.9203460  16.4374940
  33.5995070   6.9880110  16.9082170  34.6073940   7.8107580  16.1341800
  33.8858570   3.6650940  18.9409140  34.6477480   4.2347590  19.0468830
  33.9012940   3.0978140  19.7117450  17.3862910   2.1888870  23.1716800
  16.7311750   1.9200510  22.5276500  18.2240860   2.0793350  22.7218780
  34.8918540   4.5201040  23.7851070  35.2627370   3.7368360  23.3787040
  35.5320470   5.2090140  23.6068370  31.8752300   5.9037620  29.1981390
  31.0612140   6.3334780  29.4607180  32.2826500   6.5156030  28.5850440
  33.9377740   3.9585310  16.0981660  34.2126580   4.8664190  15.9700880
  33.7488480   3.8947840  17.0343650  18.4238840   2.5741440  27.7120140
  18.7911880   2.4868840  28.5916160  17.8549660   1.8107990  27.6127000
  31.9328350  10.6556220  22.7249660  32.5287420  10.3340790  22.0484080
  32.1906500  10.1828040  23.5162930  19.8390920   7.0874130  32.8740290
  19.7960550   6.7167040  33.7554750  19.9701930   8.0251700  33.0142110
  23.5396950   8.6433720  28.4750010  23.2988310   8.9108280  27.5880530
  24.4799590   8.8139450  28.5300870  34.8001110  10.6628100  29.2760650
  34.3059390  11.0596970  28.5587780  34.1914400  10.0377310  29.6697930
  19.6778950  10.0336380  29.9938070  19.0839270   9.9021080  30.7328110
  19.6702790   9.1974520  29.5280170  32.4840560  11.3051520  26.5547390
  32.0243530  12.0567330  26.1805410  31.8553020  10.5857990  26.4962190
  19.3091180   7.3994760  28.9446110  18.5825240   6.7800050  28.8772060
  19.3700330   7.7935370  28.0744190  22.9136280   9.6139760  25.7295520
  23.4301300   9.0027120  25.2043780  23.5633660  10.1168540  26.2206530
  25.6531780  10.5048250  26.5564500  25.9409590  10.2502550  25.6797510
  26.1655000   9.9525610  27.1470070  17.5921180  10.7169150  22.1542870
  17.4243220  10.0839830  22.8524760  16.7255690  10.9228550  21.8037060
  19.1983880   9.4102380  19.5993010  18.6731500   9.7910410  18.8954970
  19.1228460  10.0353150  20.3202720  25.7204140  11.4264350  33.9232700
  26.6471450  11.1908620  33.9668660  25.7054570  12.2536350  33.4418730
  33.9549200  10.9689920  20.9206950  34.1301390  10.2827660  20.2767870
  33.2570770  11.4936970  20.5283620  21.7976850  11.3584760  18.4742260
  22.5295670  11.0744040  17.9266150  22.0570520  11.1198040  19.3641640
  20.9591640   7.4749490  18.4788590  20.3300520   7.9434590  19.0274420
  21.0739470   6.6298710  18.9134780  32.2881700  10.6534210  33.7473740
  33.0807020  10.1583440  33.5399700  32.5814850  11.3324350  34.3549350
  26.5459400   3.3034170   6.5099060  25.7701500   2.8234610   6.7997630
  27.1972330   2.6239820   6.3355220  20.5625230   3.6153980   7.3874820
  19.7310110   3.3602690   7.7871330  21.1706210   3.6864750   8.1232740
  30.5666830   7.7094360   5.2898190  30.1048360   6.9381600   5.6185360
  31.3792380   7.7360430   5.7950640  20.5426490   7.6494070   7.5832840
  20.8454530   6.7591810   7.4043060  21.2870080   8.2064290   7.3555090
  26.7930140   9.9952370   4.9102180  26.1741580  10.4509870   4.3396620
  27.6481920  10.1503830   4.5091880  25.9868390   5.9791360   6.5169220
  25.9176670   5.0381300   6.3558350  26.7488250   6.0692770   7.0891790
  27.6593490   4.8791610   2.3034090  27.0410760   5.3441060   1.7396810
  28.1716740   5.5719090   2.7203600  22.5225250   4.4067480   8.9817690
  22.1894630   5.0336400   9.6238760  22.6991930   4.9329360   8.2019360
  21.7344350   6.3748280  10.7966870  22.3518350   7.0499360  10.5151320
  20.8737470   6.7836260  10.7054370  32.6521940   7.8387690   8.7121510
  31.9685460   8.5086800   8.7038180  33.1916230   8.0368340   7.9466370
  30.1880680   9.6831820   7.4266690  30.2007840   9.2794110   6.5588950
  29.6355900  10.4579110   7.3228120  31.4826100   6.4048040   2.5156860
  31.3722430   5.4622370   2.6406280  31.4794350   6.7663680   3.4019620
  29.5866120   4.5861660   8.7549300  30.0034910   4.3721770   7.9202760
  30.3105940   4.8434450   9.3257920  27.0246380   2.0313360   1.8719350
  26.0975660   1.9650740   2.1007820  27.1771200   2.9693490   1.7574590
  33.5328220   2.9848880   8.8465540  32.7046850   3.0541970   8.3715670
  34.1278700   3.5703190   8.3781370  31.0543670   3.5933660   2.3754600
  30.4356090   3.2553210   1.7280900  31.0368120   2.9493420   3.0833790
  22.6303020   2.5578100   4.6539080  22.2260020   1.8455350   4.1584980
  22.7166140   2.2131340   5.5427120  23.0984720   6.2445660   6.8178290
  22.8013010   5.6391130   6.1386070  24.0484540   6.2822970   6.7067650
  31.1870330   9.8177530  10.4801390  30.7100890  10.6249720  10.2874000
  30.5032120   9.1655860  10.6327600  22.1903150   5.9827350  13.4686090
  21.2931680   6.2067320  13.7159490  22.2156020   6.1062290  12.5197490
  21.0174370   2.8540670  12.0443460  20.8782140   3.7263470  12.4130860
  20.1355730   2.5113480  11.8991400  27.3403750   7.7716540   3.3508590
  27.7799660   8.5140870   2.9363980  27.2790640   8.0143110   4.2747550
  22.8154720   8.7962370  14.2528610  22.7870150   9.2005320  13.3857040
  22.6519690   7.8672730  14.0900210  34.7669540   9.5789470  15.5492780
  35.2429260  10.0572360  16.2281860  35.3876700   9.5106960  14.8238280
  16.9693020   4.6238220   7.9614370  17.0473440   4.7586990   7.0170090
  17.5834700   3.9154110   8.1542490  18.2140650   6.3238410   4.3720550
  17.8068730   6.4653000   3.5174150  19.1053660   6.0398570   4.1691760
  34.1702790   6.7702320  12.7092790  34.2965850   6.5314200  11.7909970
  34.2124170   5.9386860  13.1814870  28.0319530  10.4730320  11.2787600
  28.5464200  10.3838330  12.0810030  27.1888610  10.8190020  11.5715510
  22.4862310  10.5384190   2.4843220  22.3104790   9.6219730   2.2711020
  21.6318050  10.8971480   2.7241020  29.2749990   9.8935930   3.3418090
  29.7306940   9.1125310   3.6556710  29.6142510  10.6042750   3.8859270
  17.0252540   5.6652390  10.5008830  17.1883580   5.1957750   9.6828200
  17.4904990   5.1575950  11.1657670  18.5991520   5.0403820  12.6604640
  18.2146310   4.3997490  13.2587600  18.9103710   5.7439940  13.2299370
  31.8257800   4.1315350   6.8490710  32.5456920   4.6270640   6.4586820
  31.6239620   3.4533240   6.2044580  27.2076600   4.2024410  12.7359710
  27.1413910   3.2820080  12.4817300  26.5781740   4.2999850  13.4504350
  21.1107220   4.8030370   4.6943130  21.6285890   3.9998630   4.6400020
  20.6591240   4.7409510   5.5359960  21.7964880   2.2275980  14.4908380
  21.4965020   2.3733160  13.5936200  22.5676120   1.6681270  14.3981770
  27.1393330   7.0244980  12.4863510  27.1537870   6.0925940  12.2682420
  26.4318430   7.1104740  13.1253280  33.3504540   3.6652320  11.8332090
  32.6252730   4.2581100  11.6361480  33.8780000   3.6575860  11.0345460
  28.8804130   5.3912490   5.3315940  29.2327950   4.7940620   4.6717310
  27.9966460   5.0656720   5.5024190  24.9667410   6.1510180   2.7386350
  25.6538540   6.6979390   3.1193940  24.1799830   6.6950910   2.7735960
  24.2694620   3.1556210   2.3511710  24.7257400   3.9661460   2.5771900
  23.9182830   2.8379350   3.1830200  26.5727230   8.6662550   9.5804010
  27.2169450   8.8721930  10.2577430  26.9356670   7.9050950   9.1274860
  27.8459310   6.6694900   8.2981460  28.4881540   5.9688060   8.4113630
  28.3708660   7.4493340   8.1178350  29.6196930   7.4689800  11.5017520
  29.9553170   8.0556490  12.1795440  28.6997270   7.3382510  11.7315310
  17.4572920   9.2465240  13.2707460  17.5664040   8.3059980  13.1302850
  16.8053480   9.5119990  12.6221190  25.4485510   7.5181130  14.6705580
  25.1282380   6.7990370  15.2151270  24.7743870   8.1936200  14.7441640
  25.1177390  10.9456140   2.9711590  25.3718890  10.9077530   2.0490960
  24.1689870  10.8189470   2.9639840  33.1255550   9.0356870   6.2224360
  33.2502970   9.8588040   6.6948170  33.9921110   8.8247600   5.8748510
  20.5973080  11.1288080   5.8941490  21.3335560  10.5803540   6.1650060
  20.9814000  11.9944090   5.7547480  17.4818560   7.1961650   1.7683000
  16.5558340   7.4382790   1.7588410  17.9474990   8.0235910   1.6467750
  19.6031360  10.3134150  15.0827070  20.4044090  10.6346200  15.4962470
  19.0883180   9.9529730  15.8046980  28.4395990   6.4214020  15.0302480
  27.8334150   6.4445620  14.2898230  28.1350100   5.6897060  15.5669730
  29.8696360  10.1494310  13.6411890  30.8218110  10.0652330  13.5912130
  29.7224580  10.8136020  14.3145680  17.3229170   2.8007610  14.0263120
  17.8268190   2.2214890  14.5979350  16.5836590   3.0847840  14.5639490
  24.3767110   4.2078600  13.5598640  23.6112780   4.7763600  13.4753310
  24.5583070   3.9154810  12.6666870  31.5190460   5.9383930  14.1173660
  32.2599930   6.2759690  13.6141120  30.7563140   6.1075990  13.5643430
  30.1936120   3.9898760  12.6528870  30.6077140   4.1443840  13.5019290
  29.2587120   4.1153980  12.8154650  24.9551350   3.9419240  10.6224800
  25.3739460   4.7851970  10.4501040  24.0359980   4.0791280  10.3931580
  29.6303150   2.2272610  10.5825150  29.1038370   2.7515230   9.9790290
  29.9734490   2.8600000  11.2134880  22.8058770  10.2472250  11.7382530
  22.2679860  10.9718310  11.4191230  23.0592730   9.7702590  10.9479870
  25.6620980  11.4823460  11.9969180  25.5879680  12.3858600  12.3041550
  24.7599820  11.1635360  11.9691250  17.0648270   8.8098050   5.3002800
  17.3951280   7.9419110   5.0681440  17.4939270   9.0156570   6.1307760
  21.6610190   7.1407060   2.9604770  21.3605730   7.0172030   3.8608680
  21.5547680   6.2815650   2.5520500  17.5538480   9.6768640   8.0384430
  17.1169470   9.8569440   8.8708580  18.1216160  10.4343260   7.8966150
  33.1900660   9.1785640  12.3261740  32.5902650   9.2378200  11.5825660
  33.3194560   8.2390620  12.4558590  17.3862910   2.1888870   4.3973310
  16.7311750   1.9200510   3.7533010  18.2240860   2.0793350   3.9475290
  34.8918540   4.5201040   5.0107580  35.2627370   3.7368360   4.6043550
  35.5320470   5.2090140   4.8324880  31.8752300   5.9037620  10.4237900
  31.0612140   6.3334780  10.6863690  32.2826500   6.5156030   9.8106950
  18.4238840   2.5741440   8.9376650  18.7911880   2.4868840   9.8172670
  17.8549660   1.8107990   8.8383510  31.9328350  10.6556220   3.9506170
  32.5287420  10.3340790   3.2740590  32.1906500  10.1828040   4.7419440
  19.8390920   7.0874130  14.0996800  19.7960550   6.7167040  14.9811260
  19.9701930   8.0251700  14.2398620  23.5396950   8.6433720   9.7006520
  23.2988310   8.9108280   8.8137040  24.4799590   8.8139450   9.7557380
  34.8001110  10.6628100  10.5017160  34.3059390  11.0596970   9.7844290
  34.1914400  10.0377310  10.8954440  19.6778950  10.0336380  11.2194580
  19.0839270   9.9021080  11.9584620  19.6702790   9.1974520  10.7536680
  32.4840560  11.3051520   7.7803900  32.0243530  12.0567330   7.4061920
  31.8553020  10.5857990   7.7218700  19.3091180   7.3994760  10.1702620
  18.5825240   6.7800050  10.1028570  19.3700330   7.7935370   9.3000700
  22.9136280   9.6139760   6.9552030  23.4301300   9.0027120   6.4300290
  23.5633660  10.1168540   7.4463040  25.6531780  10.5048250   7.7821010
  25.9409590  10.2502550   6.9054020  26.1655000   9.9525610   8.3726580
  17.5921180  10.7169150   3.3799380  17.4243220  10.0839830   4.0781270
  16.7255690  10.9228550   3.0293570  25.7204140  11.4264350  15.1489210
  26.6471450  11.1908620  15.1925170  25.7054570  12.2536350  14.6675240
  33.9549200  10.9689920   2.1463460  34.1301390  10.2827660   1.5024380
  33.2570770  11.4936970   1.7540130  32.2881700  10.6534210  14.9730250
  33.0807020  10.1583440  14.7656210  32.5814850  11.3324350  15.5805860
   9.6397870  95.3972600  98.5007240   9.5591920  94.4827210  98.2298950
   9.2262290  95.8939670  97.7946950   8.2430070  92.6579190 100.6155600
   8.6194890  91.7851070 100.5029270   8.1449580  92.9937890  99.7246040
   2.3735080  91.0304820  96.0773040   2.4801830  91.9308550  96.3841800
   1.4627440  90.9822790  95.7867690  12.0254190  90.1529630  97.5483940
  12.8463810  89.6626200  97.5909420  12.0588270  90.7427290  98.3015780
   4.2142810  93.9991190 100.4098220   4.7221030  94.4972160 101.0503240
   4.7456050  93.2226390 100.2337580  16.3153740  92.1696380 104.1127570
  15.6105910  92.5578090 103.5942680  16.5811660  92.8646670 104.7148500
   2.4978910  88.6389750 104.6761640   2.4997350  89.1562140 103.8707540
   1.6683220  88.1619930 104.6531570  12.2615670  92.0930010 100.3211480
  11.5571240  92.3814900 100.9014590  12.6227830  92.9030120  99.9611040
   2.1794240  90.3499710 102.6832090   2.5211050  91.1941760 102.3885960
   1.2410050  90.4983450 102.7997430  15.3302590  91.5384800 100.7120690
  14.3827500  91.5723780 100.8436120  15.6552580  92.3523750 101.0970050
   5.8622130  87.8381980  99.0076680   6.1697110  87.2828870  98.2912180
   4.9322830  87.9726440  98.8249670   8.2502890  95.9030810  95.7436800
   7.3232170  95.8368190  95.9725270   8.4027710  96.8410940  95.6292040
   8.2371970  92.1747810  92.7403960   7.2975640  92.3361770  92.8256420
   8.5555230  92.8933490  92.1939950  11.7226740  93.6435650 103.6637860
  11.3097920  94.4689360 103.9177850  10.9902690  93.0580690 103.4714220
   3.8559530  96.4295550  98.5256530   3.4516530  95.7172800  98.0302430
   3.9422650  96.0848790  99.4144570   2.5688150  93.2038760 102.3055570
   3.1202740  93.3134100 101.5308820   3.0831660  93.5776360 103.0210800
  14.0382020  87.9580730  91.5685840  13.7254680  88.0507560  92.4684910
  14.7994490  88.5361760  91.5183270   3.0227820  88.6675600  99.4086850
   2.5795970  89.4485140  99.0771370   3.5812810  88.9905490 100.1157790
   6.1386640  88.2886300  94.2892680   5.5140820  88.2846170  95.0145990
   6.0516760  87.4217260  93.8928650   5.0603720  89.2122930 101.2676450
   5.3576050  90.1185760 101.1868470   5.6089280  88.7241710 100.6536020
   2.8142040  93.7909170  97.1368100   2.5882960  93.5746340  98.0414720
   2.0334570  94.2237630  96.7914070  10.0439800  93.7972540  95.7358750
   9.4448690  94.5208340  95.5522370  10.5919410  93.7349320  94.9535200
   8.6504670  92.4336080  97.7662030   9.0434240  92.7508280  96.9530720
   9.0121520  91.5547960  97.8806550   9.2359810  95.0241830 101.8612810
   8.5040930  95.5328640 102.2102910   8.8384150  94.2071810 101.5601590
   5.6737200  91.6996030 100.2665300   5.6773260  91.2585980  99.4169840
   6.5688320  92.0213360 100.3737120   5.7357350  92.7008110  93.2572060
   5.8570170  92.6594590  94.2057880   5.3505860  93.5632260  93.1018790
   9.6985720  90.4775510 101.2735750   9.7158460  90.9284160 102.1177600
   9.4501300  89.5781150 101.4869190   4.7478850  95.0109250  92.6555360
   4.1795750  94.5627500  92.0291270   5.4567850  95.3702030  92.1220510
   5.9745170  95.7597810 102.0130710   6.3415300  95.2856380 102.7592050
   5.7850230  96.6339380 102.3539050   3.7644540  94.8006450 104.3314920
   3.4601610  95.6798430 104.5565280   4.7191000  94.8606240 104.3672360
   8.5124250  89.3970760  94.8637550   7.6988860  88.8983930  94.7882860
   8.3186200  90.2369010  94.4473900  11.2272640  93.7690410  93.1599710
  12.1152260  94.0807640  92.9851050  11.1977730  92.8962660  92.7680290
  13.4986910  95.0802250  92.6279570  13.4150630  95.5116470  91.7776010
  14.2181100  95.5400600  93.0606390   9.8895620  91.6224740 103.9059830
  10.2576440  90.8019950 104.2339400   9.0293820  91.6826630 104.3215480
  13.2557650  90.5781680  94.7147390  12.6270810  90.6827350  94.0005620
  12.7609570  90.7978460  95.5041270   5.2241680  92.8567630  96.1305270
   4.5157830  93.3253970  96.5718880   5.5086160  92.1989640  96.7650460
   6.8497610  94.2764330 104.1297800   7.3482860  94.7510150 104.7949650
   6.9920560  93.3527850 104.3367830   9.2557110  89.5818290  97.5701060
   9.1324890  89.6004420  96.6210570  10.2041670  89.6297230  97.6899460
   3.4276700  91.1652710  93.5055980   4.2767230  91.6022860  93.4396170
   3.0607970  91.4772970  94.3328040  12.3486480  95.7365470  98.4187550
  11.4076620  95.7515700  98.5935240  12.6630550  94.9501430  98.8647850
   5.7748310  88.9182360 103.8729810   5.3265610  88.9406620 103.0275360
   5.1413510  88.5201380 104.4700110   3.2546050  93.4883430  90.8992310
   3.0535110  92.6250790  91.2605650   3.0838100  93.4016790  89.9613910
  10.7334360  88.2991660  93.4279190  11.0136650  87.4559560  93.7838610
   9.9600090  88.5314770  93.9417940   2.0528850  90.5884050  90.8870190
   2.3554750  90.5951480  89.9789340   2.7923440  90.2381910  91.3837850
   5.2713780  89.5318670  91.8726390   4.9235780  88.8542660  91.2928840
   5.4726550  89.0708180  92.6869780  11.5609860  90.8547610  92.4909250
  11.9794740  90.6678590  91.6505910  11.2545920  90.0026660  92.8012180
  15.0599590  95.7671750  96.1885050  14.6843190  94.9999680  95.7566340
  14.3302710  96.1494450  96.6759980  14.3350550  93.9929240  99.4892290
  14.8588030  93.4991890  98.8582460  14.9209970  94.1279600 100.2339860
  14.5140270  94.0769110 103.0111840  13.5642980  94.0432650 103.1256830
  14.6953280  94.9869220 102.7761610  13.8250520  93.2502590  95.4284700
  14.3209640  93.0173460  96.2133580  13.6266590  92.4114430  95.0122340
  15.2537680  91.8863540  97.9622380  15.1436960  91.7319580  98.9004650
  16.0145270  91.3584480  97.7197790  13.6003400  87.8257670 104.4205380
  14.2375620  88.4391810 104.7864570  13.7478290  87.8618330 103.4754610
  16.1427950  89.7171460  91.2028520  17.0677260  89.5852640  90.9946810
  16.1203740  89.7964280  92.1564970  16.2166440  90.4882120  93.8285230
  15.4217940  90.4227240  94.3578140  16.4209720  91.4232760  93.8170580
  10.3490480  87.1986060 103.2942060   9.4750320  87.5321170 103.0914990
  10.2401230  86.7259240 104.1193930  11.2562460  89.4056930 104.6783780
  10.9275820  88.5908690 104.2985510  12.2044760  89.3626740 104.5549470
   8.0965300  88.1155900 102.2334970   7.3137090  88.5901400 102.5131730
   7.8028230  87.2110730 102.1248150  12.6486370  88.8179000 100.2784060
  13.0894460  88.7624100  99.4305660  12.3793960  89.7337010 100.3494240
  14.5124940  88.4494240  98.2892880  14.4513340  87.5055460  98.1423900
  15.2916970  88.5574330  98.8346340   5.9819520  90.5342650  97.7451000
   5.1694030  90.1599540  97.4046880   6.4861160  89.7787730  98.0472190
  10.4844500  87.1985100  98.9834070  11.0873870  87.7705310  99.4582590
   9.7437490  87.7624540  98.7607970  13.6279100  87.6006660  94.2574350
  13.8229730  88.4990110  94.5241780  12.8408970  87.3693740  94.7507300
   1.8130860  88.9467430  93.2950660   2.3423620  88.1597230  93.1658610
   2.4459180  89.6258620  93.5286190   4.0068700  88.6842570  96.3496050
   3.3771440  87.9829880  96.5166180   3.4673840  89.4446700  96.1329210
   9.6397870  95.3972600  79.7263750   9.5591920  94.4827210  79.4555460
   9.2262290  95.8939670  79.0203460   8.2430070  92.6579190  81.8412110
   8.6194890  91.7851070  81.7285780   8.1449580  92.9937890  80.9502550
   2.3735080  91.0304820  77.3029550   2.4801830  91.9308550  77.6098310
   1.4627440  90.9822790  77.0124200  12.0254190  90.1529630  78.7740450
  12.8463810  89.6626200  78.8165930  12.0588270  90.7427290  79.5272290
   4.2142810  93.9991190  81.6354730   4.7221030  94.4972160  82.2759750
   4.7456050  93.2226390  81.4594090  16.3153740  92.1696380  85.3384080
  15.6105910  92.5578090  84.8199190  16.5811660  92.8646670  85.9405010
   2.4978910  88.6389750  85.9018150   2.4997350  89.1562140  85.0964050
   1.6683220  88.1619930  85.8788080  12.2615670  92.0930010  81.5467990
  11.5571240  92.3814900  82.1271100  12.6227830  92.9030120  81.1867550
   2.1794240  90.3499710  83.9088600   2.5211050  91.1941760  83.6142470
   1.2410050  90.4983450  84.0253940  15.3302590  91.5384800  81.9377200
  14.3827500  91.5723780  82.0692630  15.6552580  92.3523750  82.3226560
   5.8622130  87.8381980  80.2333190   6.1697110  87.2828870  79.5168690
   4.9322830  87.9726440  80.0506180   8.2502890  95.9030810  76.9693310
   7.3232170  95.8368190  77.1981780   8.4027710  96.8410940  76.8548550
   8.2371970  92.1747810  73.9660470   7.2975640  92.3361770  74.0512930
   8.5555230  92.8933490  73.4196460  11.7226740  93.6435650  84.8894370
  11.3097920  94.4689360  85.1434360  10.9902690  93.0580690  84.6970730
   3.8559530  96.4295550  79.7513040   3.4516530  95.7172800  79.2558940
   3.9422650  96.0848790  80.6401080   2.5688150  93.2038760  83.5312080
   3.1202740  93.3134100  82.7565330   3.0831660  93.5776360  84.2467310
  14.0382020  87.9580730  72.7942350  13.7254680  88.0507560  73.6941420
  14.7994490  88.5361760  72.7439780  15.2483310  92.6952230  88.7716490
  14.6327580  93.2031900  88.2431950  14.9279730  91.7950560  88.7142430
   3.0227820  88.6675600  80.6343360   2.5795970  89.4485140  80.3027880
   3.5812810  88.9905490  81.3414300   7.3097630  91.5344120  86.2378680
   6.8477000  91.7427140  87.0498620   6.9075740  90.7203470  85.9349350
  12.3102140  92.7553070  87.3675340  11.4595730  92.4558820  87.6884410
  12.1503930  92.9995080  86.4559160   9.4051850  94.2554820  89.4674130
   9.7305260  93.4218570  89.1276360  10.1932180  94.7783340  89.6152460
   6.1386640  88.2886300  75.5149190   5.5140820  88.2846170  76.2402500
   6.0516760  87.4217260  75.1185160   5.0603720  89.2122930  82.4932960
   5.3576050  90.1185760  82.4124980   5.6089280  88.7241710  81.8792530
   2.8142040  93.7909170  78.3624610   2.5882960  93.5746340  79.2671230
   2.0334570  94.2237630  78.0170580  10.0439800  93.7972540  76.9615260
   9.4448690  94.5208340  76.7778880  10.5919410  93.7349320  76.1791710
   5.2541250  94.6894750  89.0284880   5.1584850  93.7489480  88.8785280
   6.0973230  94.9109820  88.6332950   8.6504670  92.4336080  78.9918540
   9.0434240  92.7508280  78.1787230   9.0121520  91.5547960  79.1063060
   6.9596840  91.1843390  90.2515400   6.2695160  90.9915590  90.8861490
   7.7029140  91.4678030  90.7839700   9.2359810  95.0241830  83.0869320
   8.5040930  95.5328640  83.4359420   8.8384150  94.2071810  82.7858100
   5.6737200  91.6996030  81.4921810   5.6773260  91.2585980  80.6426350
   6.5688320  92.0213360  81.5993630   5.7357350  92.7008110  74.4828570
   5.8570170  92.6594590  75.4314390   5.3505860  93.5632260  74.3275300
   9.6985720  90.4775510  82.4992260   9.7158460  90.9284160  83.3434110
   9.4501300  89.5781150  82.7125700   4.7478850  95.0109250  73.8811870
   4.1795750  94.5627500  73.2547780   5.4567850  95.3702030  73.3477020
  13.1256470  87.8907690  88.3378640  13.4502240  87.1597350  88.8636620
  13.1612980  87.5721330  87.4359630   5.9745170  95.7597810  83.2387220
   6.3415300  95.2856380  83.9848560   5.7850230  96.6339380  83.5795560
   3.7644540  94.8006450  85.5571430   3.4601610  95.6798430  85.7821790
   4.7191000  94.8606240  85.5928870   8.5124250  89.3970760  76.0894060
   7.6988860  88.8983930  76.0139370   8.3186200  90.2369010  75.6730410
  11.2272640  93.7690410  74.3856220  12.1152260  94.0807640  74.2107560
  11.1977730  92.8962660  73.9936800   3.0221390  96.0993430  89.5882340
   2.7221530  96.2450610  88.6910160   3.7932630  95.5398720  89.4955730
  13.4986910  95.0802250  73.8536080  13.4150630  95.5116470  73.0032520
  14.2181100  95.5400600  74.2862900   9.8895620  91.6224740  85.1316340
  10.2576440  90.8019950  85.4595910   9.0293820  91.6826630  85.5471990
  13.2557650  90.5781680  75.9403900  12.6270810  90.6827350  75.2262130
  12.7609570  90.7978460  76.7297780   5.2241680  92.8567630  77.3561780
   4.5157830  93.3253970  77.7975390   5.5086160  92.1989640  77.9906970
   6.8497610  94.2764330  85.3554310   7.3482860  94.7510150  86.0206160
   6.9920560  93.3527850  85.5624340   9.2557110  89.5818290  78.7957570
   9.1324890  89.6004420  77.8467080  10.2041670  89.6297230  78.9155970
   3.4276700  91.1652710  74.7312490   4.2767230  91.6022860  74.6652680
   3.0607970  91.4772970  75.5584550  14.0564470  90.4932290  86.1982700
  13.5538070  91.2337690  86.5376510  14.8721130  90.8816290  85.8819490
  12.3486480  95.7365470  79.6444060  11.4076620  95.7515700  79.8191750
  12.6630550  94.9501430  80.0904360   2.5214570  93.3946750  87.9861640
   1.9911030  92.9037700  87.3584980   3.1902640  93.8230950  87.4519570
  11.8914800  95.2012370  89.7541980  12.4735570  94.4464690  89.6662460
  12.0676570  95.7319810  88.9773460   3.0086870  90.3609120  88.0658930
   2.9143740  89.7429870  87.3409800   2.4284260  91.0875410  87.8388840
   5.7748310  88.9182360  85.0986320   5.3265610  88.9406620  84.2531870
   5.1413510  88.5201380  85.6956620   8.5171760  95.5452870  87.1036600
   8.6367970  94.9494010  87.8431440   9.3765760  95.5822560  86.6837900
  10.8559660  96.0990060  85.6799110  10.3294880  96.6232680  85.0764250
  11.1991000  96.7317450  86.3108840   3.2546050  93.4883430  72.1248820
   3.0535110  92.6250790  72.4862160   3.0838100  93.4016790  71.1870420
   5.2840530  92.0874220  88.3612420   5.8740220  91.7790070  89.0490240
   4.4660770  91.6153970  88.5172320  10.1033960  91.7040030  88.5945440
   9.4149480  91.0421570  88.5295430  10.8239980  91.2578300  89.0393900
  10.7334360  88.2991660  74.6535700  11.0136650  87.4559560  75.0095120
   9.9600090  88.5314770  75.1674450   2.0528850  90.5884050  72.1126700
   2.3554750  90.5951480  71.2045850   2.7923440  90.2381910  72.6094360
   5.2713780  89.5318670  73.0982900   4.9235780  88.8542660  72.5185350
   5.4726550  89.0708180  73.9126290  11.5609860  90.8547610  73.7165760
  11.9794740  90.6678590  72.8762420  11.2545920  90.0026660  74.0268690
  15.0599590  95.7671750  77.4141560  14.6843190  94.9999680  76.9822850
  14.3302710  96.1494450  77.9016490  14.4499210  94.9143270  87.0481080
  14.2185300  94.6856020  86.1479030  14.7103760  95.8342820  87.0025970
  12.8887280  90.1399700  89.8260780  13.7657460  90.1483100  90.2094780
  12.9008120  89.4030540  89.2153130  14.3350550  93.9929240  80.7148800
  14.8588030  93.4991890  80.0838970  14.9209970  94.1279600  81.4596370
  14.5140270  94.0769110  84.2368350  13.5642980  94.0432650  84.3513340
  14.6953280  94.9869220  84.0018120  13.8250520  93.2502590  76.6541210
  14.3209640  93.0173460  77.4390090  13.6266590  92.4114430  76.2378850
  15.2537680  91.8863540  79.1878890  15.1436960  91.7319580  80.1261160
  16.0145270  91.3584480  78.9454300  13.6003400  87.8257670  85.6461890
  14.2375620  88.4391810  86.0121080  13.7478290  87.8618330  84.7011120
  16.1427950  89.7171460  72.4285030  17.0677260  89.5852640  72.2203320
  16.1203740  89.7964280  73.3821480  16.2166440  90.4882120  75.0541740
  15.4217940  90.4227240  75.5834650  16.4209720  91.4232760  75.0427090
   6.9707880  88.9783860  88.5536990   6.9096770  89.5705690  89.3032400
   7.9108260  88.8709820  88.4087250   9.6082440  88.6353920  88.1929280
  10.2222850  88.9533210  87.5310360  10.1532000  88.1502510  88.8125140
  10.3490480  87.1986060  84.5198570   9.4750320  87.5321170  84.3171500
  10.2401230  86.7259240  85.3450440  11.2562460  89.4056930  85.9040290
  10.9275820  88.5908690  85.5242020  12.2044760  89.3626740  85.7805980
   8.0965300  88.1155900  83.4591480   7.3137090  88.5901400  83.7388240
   7.8028230  87.2110730  83.3504660  12.6486370  88.8179000  81.5040570
  13.0894460  88.7624100  80.6562170  12.3793960  89.7337010  81.5750750
  14.5124940  88.4494240  79.5149390  14.4513340  87.5055460  79.3680410
  15.2916970  88.5574330  80.0602850   5.9819520  90.5342650  78.9707510
   5.1694030  90.1599540  78.6303390   6.4861160  89.7787730  79.2728700
  10.4844500  87.1985100  80.2090580  11.0873870  87.7705310  80.6839100
   9.7437490  87.7624540  79.9864480  13.6279100  87.6006660  75.4830860
  13.8229730  88.4990110  75.7498290  12.8408970  87.3693740  75.9763810
   1.8130860  88.9467430  74.5207170   2.3423620  88.1597230  74.3915120
   2.4459180  89.6258620  74.7542700   4.0068700  88.6842570  77.5752560
   3.3771440  87.9829880  77.7422690   3.4673840  89.4446700  77.3585720
   4.1324260  87.9626550  90.0105050   3.8508530  88.4660150  89.2465870
   4.5143960  87.1648300  89.6447180  10.7339720  87.3780130  90.5885520
  10.6205170  87.6974740  91.4837040  11.5509460  87.7792640  90.2922800
   9.6397870  95.3972600  60.9520260   9.5591920  94.4827210  60.6811970
   9.2262290  95.8939670  60.2459970   8.2430070  92.6579190  63.0668620
   8.6194890  91.7851070  62.9542290   8.1449580  92.9937890  62.1759060
   2.3735080  91.0304820  58.5286060   2.4801830  91.9308550  58.8354820
   1.4627440  90.9822790  58.2380710  12.0254190  90.1529630  59.9996960
  12.8463810  89.6626200  60.0422440  12.0588270  90.7427290  60.7528800
   4.2142810  93.9991190  62.8611240   4.7221030  94.4972160  63.5016260
   4.7456050  93.2226390  62.6850600  16.3153740  92.1696380  66.5640590
  15.6105910  92.5578090  66.0455700  16.5811660  92.8646670  67.1661520
   2.4978910  88.6389750  67.1274660   2.4997350  89.1562140  66.3220560
   1.6683220  88.1619930  67.1044590  12.2615670  92.0930010  62.7724500
  11.5571240  92.3814900  63.3527610  12.6227830  92.9030120  62.4124060
   2.1794240  90.3499710  65.1345110   2.5211050  91.1941760  64.8398980
   1.2410050  90.4983450  65.2510450  15.3302590  91.5384800  63.1633710
  14.3827500  91.5723780  63.2949140  15.6552580  92.3523750  63.5483070
   5.8622130  87.8381980  61.4589700   6.1697110  87.2828870  60.7425200
   4.9322830  87.9726440  61.2762690   8.2502890  95.9030810  58.1949820
   7.3232170  95.8368190  58.4238290   8.4027710  96.8410940  58.0805060
   8.2371970  92.1747810  55.1916980   7.2975640  92.3361770  55.2769440
   8.5555230  92.8933490  54.6452970  11.7226740  93.6435650  66.1150880
  11.3097920  94.4689360  66.3690870  10.9902690  93.0580690  65.9227240
   3.8559530  96.4295550  60.9769550   3.4516530  95.7172800  60.4815450
   3.9422650  96.0848790  61.8657590   2.5688150  93.2038760  64.7568590
   3.1202740  93.3134100  63.9821840   3.0831660  93.5776360  65.4723820
  14.0382020  87.9580730  54.0198860  13.7254680  88.0507560  54.9197930
  14.7994490  88.5361760  53.9696290  15.2483310  92.6952230  69.9973000
  14.6327580  93.2031900  69.4688460  14.9279730  91.7950560  69.9398940
   3.0227820  88.6675600  61.8599870   2.5795970  89.4485140  61.5284390
   3.5812810  88.9905490  62.5670810   7.3097630  91.5344120  67.4635190
   6.8477000  91.7427140  68.2755130   6.9075740  90.7203470  67.1605860
  12.3102140  92.7553070  68.5931850  11.4595730  92.4558820  68.9140920
  12.1503930  92.9995080  67.6815670   9.4051850  94.2554820  70.6930640
   9.7305260  93.4218570  70.3532870  10.1932180  94.7783340  70.8408970
   6.1386640  88.2886300  56.7405700   5.5140820  88.2846170  57.4659010
   6.0516760  87.4217260  56.3441670   5.0603720  89.2122930  63.7189470
   5.3576050  90.1185760  63.6381490   5.6089280  88.7241710  63.1049040
   2.8142040  93.7909170  59.5881120   2.5882960  93.5746340  60.4927740
   2.0334570  94.2237630  59.2427090  10.0439800  93.7972540  58.1871770
   9.4448690  94.5208340  58.0035390  10.5919410  93.7349320  57.4048220
   5.2541250  94.6894750  70.2541390   5.1584850  93.7489480  70.1041790
   6.0973230  94.9109820  69.8589460   8.6504670  92.4336080  60.2175050
   9.0434240  92.7508280  59.4043740   9.0121520  91.5547960  60.3319570
   6.9596840  91.1843390  71.4771910   6.2695160  90.9915590  72.1118000
   7.7029140  91.4678030  72.0096210   9.2359810  95.0241830  64.3125830
   8.5040930  95.5328640  64.6615930   8.8384150  94.2071810  64.0114610
   5.6737200  91.6996030  62.7178320   5.6773260  91.2585980  61.8682860
   6.5688320  92.0213360  62.8250140   5.7357350  92.7008110  55.7085080
   5.8570170  92.6594590  56.6570900   5.3505860  93.5632260  55.5531810
   9.6985720  90.4775510  63.7248770   9.7158460  90.9284160  64.5690620
   9.4501300  89.5781150  63.9382210   4.7478850  95.0109250  55.1068380
   4.1795750  94.5627500  54.4804290   5.4567850  95.3702030  54.5733530
  13.1256470  87.8907690  69.5635150  13.4502240  87.1597350  70.0893130
  13.1612980  87.5721330  68.6616140   5.9745170  95.7597810  64.4643730
   6.3415300  95.2856380  65.2105070   5.7850230  96.6339380  64.8052070
   3.7644540  94.8006450  66.7827940   3.4601610  95.6798430  67.0078300
   4.7191000  94.8606240  66.8185380   8.5124250  89.3970760  57.3150570
   7.6988860  88.8983930  57.2395880   8.3186200  90.2369010  56.8986920
  11.2272640  93.7690410  55.6112730  12.1152260  94.0807640  55.4364070
  11.1977730  92.8962660  55.2193310   3.0221390  96.0993430  70.8138850
   2.7221530  96.2450610  69.9166670   3.7932630  95.5398720  70.7212240
  13.4986910  95.0802250  55.0792590  13.4150630  95.5116470  54.2289030
  14.2181100  95.5400600  55.5119410   9.8895620  91.6224740  66.3572850
  10.2576440  90.8019950  66.6852420   9.0293820  91.6826630  66.7728500
  13.2557650  90.5781680  57.1660410  12.6270810  90.6827350  56.4518640
  12.7609570  90.7978460  57.9554290   5.2241680  92.8567630  58.5818290
   4.5157830  93.3253970  59.0231900   5.5086160  92.1989640  59.2163480
   6.8497610  94.2764330  66.5810820   7.3482860  94.7510150  67.2462670
   6.9920560  93.3527850  66.7880850   9.2557110  89.5818290  60.0214080
   9.1324890  89.6004420  59.0723590  10.2041670  89.6297230  60.1412480
   3.4276700  91.1652710  55.9569000   4.2767230  91.6022860  55.8909190
   3.0607970  91.4772970  56.7841060  14.0564470  90.4932290  67.4239210
  13.5538070  91.2337690  67.7633020  14.8721130  90.8816290  67.1076000
  12.3486480  95.7365470  60.8700570  11.4076620  95.7515700  61.0448260
  12.6630550  94.9501430  61.3160870   2.5214570  93.3946750  69.2118150
   1.9911030  92.9037700  68.5841490   3.1902640  93.8230950  68.6776080
  11.8914800  95.2012370  70.9798490  12.4735570  94.4464690  70.8918970
  12.0676570  95.7319810  70.2029970   3.0086870  90.3609120  69.2915440
   2.9143740  89.7429870  68.5666310   2.4284260  91.0875410  69.0645350
   5.7748310  88.9182360  66.3242830   5.3265610  88.9406620  65.4788380
   5.1413510  88.5201380  66.9213130   8.5171760  95.5452870  68.3293110
   8.6367970  94.9494010  69.0687950   9.3765760  95.5822560  67.9094410
  10.8559660  96.0990060  66.9055620  10.3294880  96.6232680  66.3020760
  11.1991000  96.7317450  67.5365350   3.2546050  93.4883430  53.3505330
   3.0535110  92.6250790  53.7118670   3.0838100  93.4016790  52.4126930
   5.2840530  92.0874220  69.5868930   5.8740220  91.7790070  70.2746750
   4.4660770  91.6153970  69.7428830  10.1033960  91.7040030  69.8201950
   9.4149480  91.0421570  69.7551940  10.8239980  91.2578300  70.2650410
  10.7334360  88.2991660  55.8792210  11.0136650  87.4559560  56.2351630
   9.9600090  88.5314770  56.3930960   2.0528850  90.5884050  53.3383210
   2.3554750  90.5951480  52.4302360   2.7923440  90.2381910  53.8350870
   5.2713780  89.5318670  54.3239410   4.9235780  88.8542660  53.7441860
   5.4726550  89.0708180  55.1382800  11.5609860  90.8547610  54.9422270
  11.9794740  90.6678590  54.1018930  11.2545920  90.0026660  55.2525200
  15.0599590  95.7671750  58.6398070  14.6843190  94.9999680  58.2079360
  14.3302710  96.1494450  59.1273000  14.4499210  94.9143270  68.2737590
  14.2185300  94.6856020  67.3735540  14.7103760  95.8342820  68.2282480
  12.8887280  90.1399700  71.0517290  13.7657460  90.1483100  71.4351290
  12.9008120  89.4030540  70.4409640  14.3350550  93.9929240  61.9405310
  14.8588030  93.4991890  61.3095480  14.9209970  94.1279600  62.6852880
  14.5140270  94.0769110  65.4624860  13.5642980  94.0432650  65.5769850
  14.6953280  94.9869220  65.2274630  13.8250520  93.2502590  57.8797720
  14.3209640  93.0173460  58.6646600  13.6266590  92.4114430  57.4635360
  15.2537680  91.8863540  60.4135400  15.1436960  91.7319580  61.3517670
  16.0145270  91.3584480  60.1710810  13.6003400  87.8257670  66.8718400
  14.2375620  88.4391810  67.2377590  13.7478290  87.8618330  65.9267630
  16.1427950  89.7171460  53.6541540  17.0677260  89.5852640  53.4459830
  16.1203740  89.7964280  54.6077990  16.2166440  90.4882120  56.2798250
  15.4217940  90.4227240  56.8091160  16.4209720  91.4232760  56.2683600
   6.9707880  88.9783860  69.7793500   6.9096770  89.5705690  70.5288910
   7.9108260  88.8709820  69.6343760   9.6082440  88.6353920  69.4185790
  10.2222850  88.9533210  68.7566870  10.1532000  88.1502510  70.0381650
  10.3490480  87.1986060  65.7455080   9.4750320  87.5321170  65.5428010
  10.2401230  86.7259240  66.5706950  11.2562460  89.4056930  67.1296800
  10.9275820  88.5908690  66.7498530  12.2044760  89.3626740  67.0062490
   8.0965300  88.1155900  64.6847990   7.3137090  88.5901400  64.9644750
   7.8028230  87.2110730  64.5761170  12.6486370  88.8179000  62.7297080
  13.0894460  88.7624100  61.8818680  12.3793960  89.7337010  62.8007260
  14.5124940  88.4494240  60.7405900  14.4513340  87.5055460  60.5936920
  15.2916970  88.5574330  61.2859360   5.9819520  90.5342650  60.1964020
   5.1694030  90.1599540  59.8559900   6.4861160  89.7787730  60.4985210
  10.4844500  87.1985100  61.4347090  11.0873870  87.7705310  61.9095610
   9.7437490  87.7624540  61.2120990  13.6279100  87.6006660  56.7087370
  13.8229730  88.4990110  56.9754800  12.8408970  87.3693740  57.2020320
   1.8130860  88.9467430  55.7463680   2.3423620  88.1597230  55.6171630
   2.4459180  89.6258620  55.9799210   4.0068700  88.6842570  58.8009070
   3.3771440  87.9829880  58.9679200   3.4673840  89.4446700  58.5842230
   4.1324260  87.9626550  71.2361560   3.8508530  88.4660150  70.4722380
   4.5143960  87.1648300  70.8703690  10.7339720  87.3780130  71.8142030
  10.6205170  87.6974740  72.7093550  11.5509460  87.7792640  71.5179310
   9.6397870  95.3972600  42.1776770   9.5591920  94.4827210  41.9068480
   9.2262290  95.8939670  41.4716480   8.2430070  92.6579190  44.2925130
   8.6194890  91.7851070  44.1798800   8.1449580  92.9937890  43.4015570
   2.3735080  91.0304820  39.7542570   2.4801830  91.9308550  40.0611330
   1.4627440  90.9822790  39.4637220  12.0254190  90.1529630  41.2253470
  12.8463810  89.6626200  41.2678950  12.0588270  90.7427290  41.9785310
   4.2142810  93.9991190  44.0867750   4.7221030  94.4972160  44.7272770
   4.7456050  93.2226390  43.9107110  16.3153740  92.1696380  47.7897100
  15.6105910  92.5578090  47.2712210  16.5811660  92.8646670  48.3918030
   2.4978910  88.6389750  48.3531170   2.4997350  89.1562140  47.5477070
   1.6683220  88.1619930  48.3301100  12.2615670  92.0930010  43.9981010
  11.5571240  92.3814900  44.5784120  12.6227830  92.9030120  43.6380570
   2.1794240  90.3499710  46.3601620   2.5211050  91.1941760  46.0655490
   1.2410050  90.4983450  46.4766960  15.3302590  91.5384800  44.3890220
  14.3827500  91.5723780  44.5205650  15.6552580  92.3523750  44.7739580
   5.8622130  87.8381980  42.6846210   6.1697110  87.2828870  41.9681710
   4.9322830  87.9726440  42.5019200   8.2502890  95.9030810  39.4206330
   7.3232170  95.8368190  39.6494800   8.4027710  96.8410940  39.3061570
   8.2371970  92.1747810  36.4173490   7.2975640  92.3361770  36.5025950
   8.5555230  92.8933490  35.8709480  11.7226740  93.6435650  47.3407390
  11.3097920  94.4689360  47.5947380  10.9902690  93.0580690  47.1483750
   3.8559530  96.4295550  42.2026060   3.4516530  95.7172800  41.7071960
   3.9422650  96.0848790  43.0914100   2.5688150  93.2038760  45.9825100
   3.1202740  93.3134100  45.2078350   3.0831660  93.5776360  46.6980330
  14.0382020  87.9580730  35.2455370  13.7254680  88.0507560  36.1454440
  14.7994490  88.5361760  35.1952800  15.2483310  92.6952230  51.2229510
  14.6327580  93.2031900  50.6944970  14.9279730  91.7950560  51.1655450
   3.0227820  88.6675600  43.0856380   2.5795970  89.4485140  42.7540900
   3.5812810  88.9905490  43.7927320   7.3097630  91.5344120  48.6891700
   6.8477000  91.7427140  49.5011640   6.9075740  90.7203470  48.3862370
  12.3102140  92.7553070  49.8188360  11.4595730  92.4558820  50.1397430
  12.1503930  92.9995080  48.9072180   9.4051850  94.2554820  51.9187150
   9.7305260  93.4218570  51.5789380  10.1932180  94.7783340  52.0665480
   6.1386640  88.2886300  37.9662210   5.5140820  88.2846170  38.6915520
   6.0516760  87.4217260  37.5698180   5.0603720  89.2122930  44.9445980
   5.3576050  90.1185760  44.8638000   5.6089280  88.7241710  44.3305550
   2.8142040  93.7909170  40.8137630   2.5882960  93.5746340  41.7184250
   2.0334570  94.2237630  40.4683600  10.0439800  93.7972540  39.4128280
   9.4448690  94.5208340  39.2291900  10.5919410  93.7349320  38.6304730
   5.2541250  94.6894750  51.4797900   5.1584850  93.7489480  51.3298300
   6.0973230  94.9109820  51.0845970   8.6504670  92.4336080  41.4431560
   9.0434240  92.7508280  40.6300250   9.0121520  91.5547960  41.5576080
   6.9596840  91.1843390  52.7028420   6.2695160  90.9915590  53.3374510
   7.7029140  91.4678030  53.2352720   9.2359810  95.0241830  45.5382340
   8.5040930  95.5328640  45.8872440   8.8384150  94.2071810  45.2371120
   5.6737200  91.6996030  43.9434830   5.6773260  91.2585980  43.0939370
   6.5688320  92.0213360  44.0506650   5.7357350  92.7008110  36.9341590
   5.8570170  92.6594590  37.8827410   5.3505860  93.5632260  36.7788320
   9.6985720  90.4775510  44.9505280   9.7158460  90.9284160  45.7947130
   9.4501300  89.5781150  45.1638720   4.7478850  95.0109250  36.3324890
   4.1795750  94.5627500  35.7060800   5.4567850  95.3702030  35.7990040
  13.1256470  87.8907690  50.7891660  13.4502240  87.1597350  51.3149640
  13.1612980  87.5721330  49.8872650   5.9745170  95.7597810  45.6900240
   6.3415300  95.2856380  46.4361580   5.7850230  96.6339380  46.0308580
   3.7644540  94.8006450  48.0084450   3.4601610  95.6798430  48.2334810
   4.7191000  94.8606240  48.0441890   8.5124250  89.3970760  38.5407080
   7.6988860  88.8983930  38.4652390   8.3186200  90.2369010  38.1243430
  11.2272640  93.7690410  36.8369240  12.1152260  94.0807640  36.6620580
  11.1977730  92.8962660  36.4449820   3.0221390  96.0993430  52.0395360
   2.7221530  96.2450610  51.1423180   3.7932630  95.5398720  51.9468750
  13.4986910  95.0802250  36.3049100  13.4150630  95.5116470  35.4545540
  14.2181100  95.5400600  36.7375920   9.8895620  91.6224740  47.5829360
  10.2576440  90.8019950  47.9108930   9.0293820  91.6826630  47.9985010
  13.2557650  90.5781680  38.3916920  12.6270810  90.6827350  37.6775150
  12.7609570  90.7978460  39.1810800   5.2241680  92.8567630  39.8074800
   4.5157830  93.3253970  40.2488410   5.5086160  92.1989640  40.4419990
   6.8497610  94.2764330  47.8067330   7.3482860  94.7510150  48.4719180
   6.9920560  93.3527850  48.0137360   9.2557110  89.5818290  41.2470590
   9.1324890  89.6004420  40.2980100  10.2041670  89.6297230  41.3668990
   3.4276700  91.1652710  37.1825510   4.2767230  91.6022860  37.1165700
   3.0607970  91.4772970  38.0097570  14.0564470  90.4932290  48.6495720
  13.5538070  91.2337690  48.9889530  14.8721130  90.8816290  48.3332510
  12.3486480  95.7365470  42.0957080  11.4076620  95.7515700  42.2704770
  12.6630550  94.9501430  42.5417380   2.5214570  93.3946750  50.4374660
   1.9911030  92.9037700  49.8098000   3.1902640  93.8230950  49.9032590
  11.8914800  95.2012370  52.2055000  12.4735570  94.4464690  52.1175480
  12.0676570  95.7319810  51.4286480   3.0086870  90.3609120  50.5171950
   2.9143740  89.7429870  49.7922820   2.4284260  91.0875410  50.2901860
   5.7748310  88.9182360  47.5499340   5.3265610  88.9406620  46.7044890
   5.1413510  88.5201380  48.1469640   8.5171760  95.5452870  49.5549620
   8.6367970  94.9494010  50.2944460   9.3765760  95.5822560  49.1350920
  10.8559660  96.0990060  48.1312130  10.3294880  96.6232680  47.5277270
  11.1991000  96.7317450  48.7621860   3.2546050  93.4883430  34.5761840
   3.0535110  92.6250790  34.9375180   3.0838100  93.4016790  33.6383440
   5.2840530  92.0874220  50.8125440   5.8740220  91.7790070  51.5003260
   4.4660770  91.6153970  50.9685340  10.1033960  91.7040030  51.0458460
   9.4149480  91.0421570  50.9808450  10.8239980  91.2578300  51.4906920
  10.7334360  88.2991660  37.1048720  11.0136650  87.4559560  37.4608140
   9.9600090  88.5314770  37.6187470   2.0528850  90.5884050  34.5639720
   2.3554750  90.5951480  33.6558870   2.7923440  90.2381910  35.0607380
   5.2713780  89.5318670  35.5495920   4.9235780  88.8542660  34.9698370
   5.4726550  89.0708180  36.3639310  11.5609860  90.8547610  36.1678780
  11.9794740  90.6678590  35.3275440  11.2545920  90.0026660  36.4781710
  15.0599590  95.7671750  39.8654580  14.6843190  94.9999680  39.4335870
  14.3302710  96.1494450  40.3529510  14.4499210  94.9143270  49.4994100
  14.2185300  94.6856020  48.5992050  14.7103760  95.8342820  49.4538990
  12.8887280  90.1399700  52.2773800  13.7657460  90.1483100  52.6607800
  12.9008120  89.4030540  51.6666150  14.3350550  93.9929240  43.1661820
  14.8588030  93.4991890  42.5351990  14.9209970  94.1279600  43.9109390
  14.5140270  94.0769110  46.6881370  13.5642980  94.0432650  46.8026360
  14.6953280  94.9869220  46.4531140  13.8250520  93.2502590  39.1054230
  14.3209640  93.0173460  39.8903110  13.6266590  92.4114430  38.6891870
  15.2537680  91.8863540  41.6391910  15.1436960  91.7319580  42.5774180
  16.0145270  91.3584480  41.3967320  13.6003400  87.8257670  48.0974910
  14.2375620  88.4391810  48.4634100  13.7478290  87.8618330  47.1524140
  16.1427950  89.7171460  34.8798050  17.0677260  89.5852640  34.6716340
  16.1203740  89.7964280  35.8334500  16.2166440  90.4882120  37.5054760
  15.4217940  90.4227240  38.0347670  16.4209720  91.4232760  37.4940110
   6.9707880  88.9783860  51.0050010   6.9096770  89.5705690  51.7545420
   7.9108260  88.8709820  50.8600270   9.6082440  88.6353920  50.6442300
  10.2222850  88.9533210  49.9823380  10.1532000  88.1502510  51.2638160
  10.3490480  87.1986060  46.9711590   9.4750320  87.5321170  46.7684520
  10.2401230  86.7259240  47.7963460  11.2562460  89.4056930  48.3553310
  10.9275820  88.5908690  47.9755040  12.2044760  89.3626740  48.2319000
   8.0965300  88.1155900  45.9104500   7.3137090  88.5901400  46.1901260
   7.8028230  87.2110730  45.8017680  12.6486370  88.8179000  43.9553590
  13.0894460  88.7624100  43.1075190  12.3793960  89.7337010  44.0263770
  14.5124940  88.4494240  41.9662410  14.4513340  87.5055460  41.8193430
  15.2916970  88.5574330  42.5115870   5.9819520  90.5342650  41.4220530
   5.1694030  90.1599540  41.0816410   6.4861160  89.7787730  41.7241720
  10.4844500  87.1985100  42.6603600  11.0873870  87.7705310  43.1352120
   9.7437490  87.7624540  42.4377500  13.6279100  87.6006660  37.9343880
  13.8229730  88.4990110  38.2011310  12.8408970  87.3693740  38.4276830
   1.8130860  88.9467430  36.9720190   2.3423620  88.1597230  36.8428140
   2.4459180  89.6258620  37.2055720   4.0068700  88.6842570  40.0265580
   3.3771440  87.9829880  40.1935710   3.4673840  89.4446700  39.8098740
   4.1324260  87.9626550  52.4618070   3.8508530  88.4660150  51.6978890
   4.5143960  87.1648300  52.0960200  10.7339720  87.3780130  53.0398540
  10.6205170  87.6974740  53.9350060  11.5509460  87.7792640  52.7435820
   9.6397870  95.3972600  23.4033280   9.5591920  94.4827210  23.1324990
   9.2262290  95.8939670  22.6972990   8.2430070  92.6579190  25.5181640
   8.6194890  91.7851070  25.4055310   8.1449580  92.9937890  24.6272080
   2.3735080  91.0304820  20.9799080   2.4801830  91.9308550  21.2867840
   1.4627440  90.9822790  20.6893730  12.0254190  90.1529630  22.4509980
  12.8463810  89.6626200  22.4935460  12.0588270  90.7427290  23.2041820
   4.2142810  93.9991190  25.3124260   4.7221030  94.4972160  25.9529280
   4.7456050  93.2226390  25.1363620  16.3153740  92.1696380  29.0153610
  15.6105910  92.5578090  28.4968720  16.5811660  92.8646670  29.6174540
   2.4978910  88.6389750  29.5787680   2.4997350  89.1562140  28.7733580
   1.6683220  88.1619930  29.5557610  12.2615670  92.0930010  25.2237520
  11.5571240  92.3814900  25.8040630  12.6227830  92.9030120  24.8637080
   2.1794240  90.3499710  27.5858130   2.5211050  91.1941760  27.2912000
   1.2410050  90.4983450  27.7023470  15.3302590  91.5384800  25.6146730
  14.3827500  91.5723780  25.7462160  15.6552580  92.3523750  25.9996090
   5.8622130  87.8381980  23.9102720   6.1697110  87.2828870  23.1938220
   4.9322830  87.9726440  23.7275710   8.2502890  95.9030810  20.6462840
   7.3232170  95.8368190  20.8751310   8.4027710  96.8410940  20.5318080
   8.2371970  92.1747810  17.6430000   7.2975640  92.3361770  17.7282460
   8.5555230  92.8933490  17.0965990  11.7226740  93.6435650  28.5663900
  11.3097920  94.4689360  28.8203890  10.9902690  93.0580690  28.3740260
   3.8559530  96.4295550  23.4282570   3.4516530  95.7172800  22.9328470
   3.9422650  96.0848790  24.3170610   2.5688150  93.2038760  27.2081610
   3.1202740  93.3134100  26.4334860   3.0831660  93.5776360  27.9236840
  14.0382020  87.9580730  16.4711880  13.7254680  88.0507560  17.3710950
  14.7994490  88.5361760  16.4209310  15.2483310  92.6952230  32.4486020
  14.6327580  93.2031900  31.9201480  14.9279730  91.7950560  32.3911960
   3.0227820  88.6675600  24.3112890   2.5795970  89.4485140  23.9797410
   3.5812810  88.9905490  25.0183830   7.3097630  91.5344120  29.9148210
   6.8477000  91.7427140  30.7268150   6.9075740  90.7203470  29.6118880
  12.3102140  92.7553070  31.0444870  11.4595730  92.4558820  31.3653940
  12.1503930  92.9995080  30.1328690   9.4051850  94.2554820  33.1443660
   9.7305260  93.4218570  32.8045890  10.1932180  94.7783340  33.2921990
   6.1386640  88.2886300  19.1918720   5.5140820  88.2846170  19.9172030
   6.0516760  87.4217260  18.7954690   5.0603720  89.2122930  26.1702490
   5.3576050  90.1185760  26.0894510   5.6089280  88.7241710  25.5562060
   2.8142040  93.7909170  22.0394140   2.5882960  93.5746340  22.9440760
   2.0334570  94.2237630  21.6940110  10.0439800  93.7972540  20.6384790
   9.4448690  94.5208340  20.4548410  10.5919410  93.7349320  19.8561240
   5.2541250  94.6894750  32.7054410   5.1584850  93.7489480  32.5554810
   6.0973230  94.9109820  32.3102480   8.6504670  92.4336080  22.6688070
   9.0434240  92.7508280  21.8556760   9.0121520  91.5547960  22.7832590
   6.9596840  91.1843390  33.9284930   6.2695160  90.9915590  34.5631020
   7.7029140  91.4678030  34.4609230   9.2359810  95.0241830  26.7638850
   8.5040930  95.5328640  27.1128950   8.8384150  94.2071810  26.4627630
   5.6737200  91.6996030  25.1691340   5.6773260  91.2585980  24.3195880
   6.5688320  92.0213360  25.2763160   5.7357350  92.7008110  18.1598100
   5.8570170  92.6594590  19.1083920   5.3505860  93.5632260  18.0044830
   9.6985720  90.4775510  26.1761790   9.7158460  90.9284160  27.0203640
   9.4501300  89.5781150  26.3895230   4.7478850  95.0109250  17.5581400
   4.1795750  94.5627500  16.9317310   5.4567850  95.3702030  17.0246550
  13.1256470  87.8907690  32.0148170  13.4502240  87.1597350  32.5406150
  13.1612980  87.5721330  31.1129160   5.9745170  95.7597810  26.9156750
   6.3415300  95.2856380  27.6618090   5.7850230  96.6339380  27.2565090
   3.7644540  94.8006450  29.2340960   3.4601610  95.6798430  29.4591320
   4.7191000  94.8606240  29.2698400   8.5124250  89.3970760  19.7663590
   7.6988860  88.8983930  19.6908900   8.3186200  90.2369010  19.3499940
  11.2272640  93.7690410  18.0625750  12.1152260  94.0807640  17.8877090
  11.1977730  92.8962660  17.6706330   3.0221390  96.0993430  33.2651870
   2.7221530  96.2450610  32.3679690   3.7932630  95.5398720  33.1725260
  13.4986910  95.0802250  17.5305610  13.4150630  95.5116470  16.6802050
  14.2181100  95.5400600  17.9632430   9.8895620  91.6224740  28.8085870
  10.2576440  90.8019950  29.1365440   9.0293820  91.6826630  29.2241520
  13.2557650  90.5781680  19.6173430  12.6270810  90.6827350  18.9031660
  12.7609570  90.7978460  20.4067310   5.2241680  92.8567630  21.0331310
   4.5157830  93.3253970  21.4744920   5.5086160  92.1989640  21.6676500
   6.8497610  94.2764330  29.0323840   7.3482860  94.7510150  29.6975690
   6.9920560  93.3527850  29.2393870   9.2557110  89.5818290  22.4727100
   9.1324890  89.6004420  21.5236610  10.2041670  89.6297230  22.5925500
   3.4276700  91.1652710  18.4082020   4.2767230  91.6022860  18.3422210
   3.0607970  91.4772970  19.2354080  14.0564470  90.4932290  29.8752230
  13.5538070  91.2337690  30.2146040  14.8721130  90.8816290  29.5589020
  12.3486480  95.7365470  23.3213590  11.4076620  95.7515700  23.4961280
  12.6630550  94.9501430  23.7673890   2.5214570  93.3946750  31.6631170
   1.9911030  92.9037700  31.0354510   3.1902640  93.8230950  31.1289100
  11.8914800  95.2012370  33.4311510  12.4735570  94.4464690  33.3431990
  12.0676570  95.7319810  32.6542990   3.0086870  90.3609120  31.7428460
   2.9143740  89.7429870  31.0179330   2.4284260  91.0875410  31.5158370
   5.7748310  88.9182360  28.7755850   5.3265610  88.9406620  27.9301400
   5.1413510  88.5201380  29.3726150   8.5171760  95.5452870  30.7806130
   8.6367970  94.9494010  31.5200970   9.3765760  95.5822560  30.3607430
  10.8559660  96.0990060  29.3568640  10.3294880  96.6232680  28.7533780
  11.1991000  96.7317450  29.9878370   3.2546050  93.4883430  15.8018350
   3.0535110  92.6250790  16.1631690   3.0838100  93.4016790  14.8639950
   5.2840530  92.0874220  32.0381950   5.8740220  91.7790070  32.7259770
   4.4660770  91.6153970  32.1941850  10.1033960  91.7040030  32.2714970
   9.4149480  91.0421570  32.2064960  10.8239980  91.2578300  32.7163430
  10.7334360  88.2991660  18.3305230  11.0136650  87.4559560  18.6864650
   9.9600090  88.5314770  18.8443980   2.0528850  90.5884050  15.7896230
   2.3554750  90.5951480  14.8815380   2.7923440  90.2381910  16.2863890
   5.2713780  89.5318670  16.7752430   4.9235780  88.8542660  16.1954880
   5.4726550  89.0708180  17.5895820  11.5609860  90.8547610  17.3935290
  11.9794740  90.6678590  16.5531950  11.2545920  90.0026660  17.7038220
  15.0599590  95.7671750  21.0911090  14.6843190  94.9999680  20.6592380
  14.3302710  96.1494450  21.5786020  14.4499210  94.9143270  30.7250610
  14.2185300  94.6856020  29.8248560  14.7103760  95.8342820  30.6795500
  12.8887280  90.1399700  33.5030310  13.7657460  90.1483100  33.8864310
  12.9008120  89.4030540  32.8922660  14.3350550  93.9929240  24.3918330
  14.8588030  93.4991890  23.7608500  14.9209970  94.1279600  25.1365900
  14.5140270  94.0769110  27.9137880  13.5642980  94.0432650  28.0282870
  14.6953280  94.9869220  27.6787650  13.8250520  93.2502590  20.3310740
  14.3209640  93.0173460  21.1159620  13.6266590  92.4114430  19.9148380
  15.2537680  91.8863540  22.8648420  15.1436960  91.7319580  23.8030690
  16.0145270  91.3584480  22.6223830  13.6003400  87.8257670  29.3231420
  14.2375620  88.4391810  29.6890610  13.7478290  87.8618330  28.3780650
  16.1427950  89.7171460  16.1054560  17.0677260  89.5852640  15.8972850
  16.1203740  89.7964280  17.0591010  16.2166440  90.4882120  18.7311270
  15.4217940  90.4227240  19.2604180  16.4209720  91.4232760  18.7196620
   6.9707880  88.9783860  32.2306520   6.9096770  89.5705690  32.9801930
   7.9108260  88.8709820  32.0856780   9.6082440  88.6353920  31.8698810
  10.2222850  88.9533210  31.2079890  10.1532000  88.1502510  32.4894670
  10.3490480  87.1986060  28.1968100   9.4750320  87.5321170  27.9941030
  10.2401230  86.7259240  29.0219970  11.2562460  89.4056930  29.5809820
  10.9275820  88.5908690  29.2011550  12.2044760  89.3626740  29.4575510
   8.0965300  88.1155900  27.1361010   7.3137090  88.5901400  27.4157770
   7.8028230  87.2110730  27.0274190  12.6486370  88.8179000  25.1810100
  13.0894460  88.7624100  24.3331700  12.3793960  89.7337010  25.2520280
  14.5124940  88.4494240  23.1918920  14.4513340  87.5055460  23.0449940
  15.2916970  88.5574330  23.7372380   5.9819520  90.5342650  22.6477040
   5.1694030  90.1599540  22.3072920   6.4861160  89.7787730  22.9498230
  10.4844500  87.1985100  23.8860110  11.0873870  87.7705310  24.3608630
   9.7437490  87.7624540  23.6634010  13.6279100  87.6006660  19.1600390
  13.8229730  88.4990110  19.4267820  12.8408970  87.3693740  19.6533340
   1.8130860  88.9467430  18.1976700   2.3423620  88.1597230  18.0684650
   2.4459180  89.6258620  18.4312230   4.0068700  88.6842570  21.2522090
   3.3771440  87.9829880  21.4192220   3.4673840  89.4446700  21.0355250
   4.1324260  87.9626550  33.6874580   3.8508530  88.4660150  32.9235400
   4.5143960  87.1648300  33.3216710  10.7339720  87.3780130  34.2655050
  10.6205170  87.6974740  35.1606570  11.5509460  87.7792640  33.9692330
   9.6397870  95.3972600   4.6289790   9.5591920  94.4827210   4.3581500
   9.2262290  95.8939670   3.9229500   8.2430070  92.6579190   6.7438150
   8.6194890  91.7851070   6.6311820   8.1449580  92.9937890   5.8528590
   2.3735080  91.0304820   2.2055590   2.4801830  91.9308550   2.5124350
   1.4627440  90.9822790   1.9150240  12.0254190  90.1529630   3.6766490
  12.8463810  89.6626200   3.7191970  12.0588270  90.7427290   4.4298330
   4.2142810  93.9991190   6.5380770   4.7221030  94.4972160   7.1785790
   4.7456050  93.2226390   6.3620130  16.3153740  92.1696380  10.2410120
  15.6105910  92.5578090   9.7225230  16.5811660  92.8646670  10.8431050
   2.4978910  88.6389750  10.8044190   2.4997350  89.1562140   9.9990090
   1.6683220  88.1619930  10.7814120  12.2615670  92.0930010   6.4494030
  11.5571240  92.3814900   7.0297140  12.6227830  92.9030120   6.0893590
   2.1794240  90.3499710   8.8114640   2.5211050  91.1941760   8.5168510
   1.2410050  90.4983450   8.9279980  15.3302590  91.5384800   6.8403240
  14.3827500  91.5723780   6.9718670  15.6552580  92.3523750   7.2252600
   5.8622130  87.8381980   5.1359230   6.1697110  87.2828870   4.4194730
   4.9322830  87.9726440   4.9532220   8.2502890  95.9030810   1.8719350
   7.3232170  95.8368190   2.1007820   8.4027710  96.8410940   1.7574590
  11.7226740  93.6435650   9.7920410  11.3097920  94.4689360  10.0460400
  10.9902690  93.0580690   9.5996770   3.8559530  96.4295550   4.6539080
   3.4516530  95.7172800   4.1584980   3.9422650  96.0848790   5.5427120
   2.5688150  93.2038760   8.4338120   3.1202740  93.3134100   7.6591370
   3.0831660  93.5776360   9.1493350  15.2483310  92.6952230  13.6742530
  14.6327580  93.2031900  13.1457990  14.9279730  91.7950560  13.6168470
   3.0227820  88.6675600   5.5369400   2.5795970  89.4485140   5.2053920
   3.5812810  88.9905490   6.2440340   7.3097630  91.5344120  11.1404720
   6.8477000  91.7427140  11.9524660   6.9075740  90.7203470  10.8375390
  12.3102140  92.7553070  12.2701380  11.4595730  92.4558820  12.5910450
  12.1503930  92.9995080  11.3585200   9.4051850  94.2554820  14.3700170
   9.7305260  93.4218570  14.0302400  10.1932180  94.7783340  14.5178500
   5.0603720  89.2122930   7.3959000   5.3576050  90.1185760   7.3151020
   5.6089280  88.7241710   6.7818570   2.8142040  93.7909170   3.2650650
   2.5882960  93.5746340   4.1697270   2.0334570  94.2237630   2.9196620
   5.2541250  94.6894750  13.9310920   5.1584850  93.7489480  13.7811320
   6.0973230  94.9109820  13.5358990   8.6504670  92.4336080   3.8944580
   9.0434240  92.7508280   3.0813270   9.0121520  91.5547960   4.0089100
   6.9596840  91.1843390  15.1541440   6.2695160  90.9915590  15.7887530
   7.7029140  91.4678030  15.6865740   9.2359810  95.0241830   7.9895360
   8.5040930  95.5328640   8.3385460   8.8384150  94.2071810   7.6884140
   5.6737200  91.6996030   6.3947850   5.6773260  91.2585980   5.5452390
   6.5688320  92.0213360   6.5019670   9.6985720  90.4775510   7.4018300
   9.7158460  90.9284160   8.2460150   9.4501300  89.5781150   7.6151740
  13.1256470  87.8907690  13.2404680  13.4502240  87.1597350  13.7662660
  13.1612980  87.5721330  12.3385670   5.9745170  95.7597810   8.1413260
   6.3415300  95.2856380   8.8874600   5.7850230  96.6339380   8.4821600
   3.7644540  94.8006450  10.4597470   3.4601610  95.6798430  10.6847830
   4.7191000  94.8606240  10.4954910   3.0221390  96.0993430  14.4908380
   2.7221530  96.2450610  13.5936200   3.7932630  95.5398720  14.3981770
   9.8895620  91.6224740  10.0342380  10.2576440  90.8019950  10.3621950
   9.0293820  91.6826630  10.4498030   5.2241680  92.8567630   2.2587820
   4.5157830  93.3253970   2.7001430   5.5086160  92.1989640   2.8933010
   6.8497610  94.2764330  10.2580350   7.3482860  94.7510150  10.9232200
   6.9920560  93.3527850  10.4650380   9.2557110  89.5818290   3.6983610
   9.1324890  89.6004420   2.7493120  10.2041670  89.6297230   3.8182010
  14.0564470  90.4932290  11.1008740  13.5538070  91.2337690  11.4402550
  14.8721130  90.8816290  10.7845530  12.3486480  95.7365470   4.5470100
  11.4076620  95.7515700   4.7217790  12.6630550  94.9501430   4.9930400
   2.5214570  93.3946750  12.8887680   1.9911030  92.9037700  12.2611020
   3.1902640  93.8230950  12.3545610  11.8914800  95.2012370  14.6568020
  12.4735570  94.4464690  14.5688500  12.0676570  95.7319810  13.8799500
   3.0086870  90.3609120  12.9684970   2.9143740  89.7429870  12.2435840
   2.4284260  91.0875410  12.7414880   5.7748310  88.9182360  10.0012360
   5.3265610  88.9406620   9.1557910   5.1413510  88.5201380  10.5982660
   8.5171760  95.5452870  12.0062640   8.6367970  94.9494010  12.7457480
   9.3765760  95.5822560  11.5863940  10.8559660  96.0990060  10.5825150
  10.3294880  96.6232680   9.9790290  11.1991000  96.7317450  11.2134880
   5.2840530  92.0874220  13.2638460   5.8740220  91.7790070  13.9516280
   4.4660770  91.6153970  13.4198360  10.1033960  91.7040030  13.4971480
   9.4149480  91.0421570  13.4321470  10.8239980  91.2578300  13.9419940
  15.0599590  95.7671750   2.3167600  14.6843190  94.9999680   1.8848890
  14.3302710  96.1494450   2.8042530  14.4499210  94.9143270  11.9507120
  14.2185300  94.6856020  11.0505070  14.7103760  95.8342820  11.9052010
  12.8887280  90.1399700  14.7286820  13.7657460  90.1483100  15.1120820
  12.9008120  89.4030540  14.1179170  14.3350550  93.9929240   5.6174840
  14.8588030  93.4991890   4.9865010  14.9209970  94.1279600   6.3622410
  14.5140270  94.0769110   9.1394390  13.5642980  94.0432650   9.2539380
  14.6953280  94.9869220   8.9044160  15.2537680  91.8863540   4.0904930
  15.1436960  91.7319580   5.0287200  16.0145270  91.3584480   3.8480340
  13.6003400  87.8257670  10.5487930  14.2375620  88.4391810  10.9147120
  13.7478290  87.8618330   9.6037160   6.9707880  88.9783860  13.4563030
   6.9096770  89.5705690  14.2058440   7.9108260  88.8709820  13.3113290
   9.6082440  88.6353920  13.0955320  10.2222850  88.9533210  12.4336400
  10.1532000  88.1502510  13.7151180  10.3490480  87.1986060   9.4224610
   9.4750320  87.5321170   9.2197540  10.2401230  86.7259240  10.2476480
  11.2562460  89.4056930  10.8066330  10.9275820  88.5908690  10.4268060
  12.2044760  89.3626740  10.6832020   8.0965300  88.1155900   8.3617520
   7.3137090  88.5901400   8.6414280   7.8028230  87.2110730   8.2530700
  12.6486370  88.8179000   6.4066610  13.0894460  88.7624100   5.5588210
  12.3793960  89.7337010   6.4776790  14.5124940  88.4494240   4.4175430
  14.4513340  87.5055460   4.2706450  15.2916970  88.5574330   4.9628890
   5.9819520  90.5342650   3.8733550   5.1694030  90.1599540   3.5329430
   6.4861160  89.7787730   4.1754740  10.4844500  87.1985100   5.1116620
  11.0873870  87.7705310   5.5865140   9.7437490  87.7624540   4.8890520
   4.0068700  88.6842570   2.4778600   3.3771440  87.9829880   2.6448730
   3.4673840  89.4446700   2.2611760   4.1324260  87.9626550  14.9131090
   3.8508530  88.4660150  14.1491910   4.5143960  87.1648300  14.5473220
  10.7339720  87.3780130  15.4911560  10.6205170  87.6974740  16.3863080
  11.5509460  87.7792640  15.1948840   9.6397870  76.6229110  98.5007240
   9.5591920  75.7083720  98.2298950   9.2262290  77.1196180  97.7946950
   7.7715910  78.4008130 100.3816510   6.9958010  77.9208570 100.6715080
   8.4228840  77.7213780 100.2072670  11.7923340  82.8068320  99.1615640
  11.3304870  82.0355560  99.4902810  12.6048890  82.8334390  99.6668090
   1.7683000  82.7468030 101.4550290   2.0711040  81.8565770 101.2760510
   2.5126590  83.3038250 101.2272540   8.0186650  85.0926330  98.7819630
   7.3998090  85.5483830  98.2114070   8.8738430  85.2477790  98.3809330
   7.2124900  81.0765320 100.3886670   7.1433180  80.1355260 100.2275800
   7.9744760  81.1666730 100.9609240   8.2430070  73.8835700 100.6155600
   8.6194890  73.0107580 100.5029270   8.1449580  74.2194400  99.7246040
   2.3735080  72.2561330  96.0773040   2.4801830  73.1565060  96.3841800
   1.4627440  72.2079300  95.7867690  12.0254190  71.3786140  97.5483940
  12.8463810  70.8882710  97.5909420  12.0588270  71.9683800  98.3015780
   4.2142810  75.2247700 100.4098220   4.7221030  75.7228670 101.0503240
   4.7456050  74.4482900 100.2337580  16.3153740  73.3952890 104.1127570
  15.6105910  73.7834600 103.5942680  16.5811660  74.0903180 104.7148500
   2.4978910  69.8646260 104.6761640   2.4997350  70.3818650 103.8707540
   1.6683220  69.3876440 104.6531570   8.8850000  79.9765570  96.1751540
   8.2667270  80.4415020  95.6114260   9.3973250  80.6693050  96.5921050
   3.7481760  79.5041440 102.8535140   3.4151140  80.1310360 103.4956210
   3.9248440  80.0303320 102.0736810  12.2615670  73.3186520 100.3211480
  11.5571240  73.6071410 100.9014590  12.6227830  74.1286630  99.9611040
   2.1794240  71.5756220 102.6832090   2.5211050  72.4198270 102.3885960
   1.2410050  71.7239960 102.7997430   2.9600860  81.4722240 104.6684320
   3.5774860  82.1473320 104.3868770   2.0993980  81.8810220 104.5771820
  13.8778450  82.9361650 102.5838960  13.1941970  83.6060760 102.5755630
  14.4172740  83.1342300 101.8183820  15.3302590  72.7641310 100.7120690
  14.3827500  72.7980290 100.8436120  15.6552580  73.5780260 101.0970050
   5.8622130  69.0638490  99.0076680   6.1697110  68.5085380  98.2912180
   4.9322830  69.1982950  98.8249670  11.4137190  84.7805780 101.2984140
  11.4264350  84.3768070 100.4306400  10.8612410  85.5553070 101.1945570
  12.7082610  81.5022000  96.3874310  12.5978940  80.5596330  96.5123730
  12.7050860  81.8637640  97.2737070  10.8122630  79.6835620 102.6266750
  11.2291420  79.4695730 101.7920210  11.5362450  79.9408410 103.1975370
   8.2502890  77.1287320  95.7436800   7.3232170  77.0624700  95.9725270
   8.4027710  78.0667450  95.6292040   8.2371970  73.4004320  92.7403960
   7.2975640  73.5618280  92.8256420   8.5555230  74.1190000  92.1939950
  14.7584730  78.0822840 102.7182990  13.9303360  78.1515930 102.2433120
  15.3535210  78.6677150 102.2498820  12.2800180  78.6907620  96.2472050
  11.6612600  78.3527170  95.5998350  12.2624630  78.0467380  96.9551240
  11.7226740  74.8692160 103.6637860  11.3097920  75.6945870 103.9177850
  10.9902690  74.2837200 103.4714220   3.8559530  77.6552060  98.5256530
   3.4516530  76.9429310  98.0302430   3.9422650  77.3105300  99.4144570
   4.3241230  81.3419620 100.6895740   4.0269520  80.7365090 100.0103520
   5.2741050  81.3796930 100.5785100   2.5688150  74.4295270 102.3055570
   3.1202740  74.5390610 101.5308820   3.0831660  74.8032870 103.0210800
  12.4126840  84.9151490 104.3518840  11.9357400  85.7223680 104.1591450
  11.7288630  84.2629820 104.5045050  10.4564880  77.9294430  93.2544800
  10.8958160  77.0916860  93.1082620  11.1693300  78.5623830  93.3408940
   8.5660260  82.8690500  97.2226040   9.0056170  83.6114830  96.8081430
   8.5047150  83.1117070  98.1465000  14.0382020  69.1837240  91.5685840
  13.7254680  69.2764070  92.4684910  14.7994490  69.7618270  91.5183270
  11.2330440  85.8559620  94.5789050  11.0731580  85.5662560  95.4770880
  11.0677150  85.0799750  94.0434280   3.7118820  85.6358150  96.3560670
   3.5361300  84.7193690  96.1428470   2.8574560  85.9945440  96.5958470
  10.9356570  83.3647180  93.1387050  10.2421730  83.3624470  92.4789330
  11.6779430  82.9406500  92.7081220  10.5006500  84.9909890  97.2135540
  10.9563450  84.2099270  97.5274160  10.8399020  85.7016710  97.7576720
   3.0227820  69.8932110  99.4086850   2.5795970  70.6741650  99.0771370
   3.5812810  70.2162000 100.1157790   6.1386640  69.5142810  94.2892680
   5.5140820  69.5102680  95.0145990   6.0516760  68.6473770  93.8928650
   5.0603720  70.4379440 101.2676450   5.3576050  71.3442270 101.1868470
   5.6089280  69.9498220 100.6536020   2.8142040  75.0165680  97.1368100
   2.5882960  74.8002850  98.0414720   2.0334570  75.4494140  96.7914070
  10.0439800  75.0229050  95.7358750   9.4448690  75.7464850  95.5522370
  10.5919410  74.9605830  94.9535200   8.6504670  73.6592590  97.7662030
   9.0434240  73.9764790  96.9530720   9.0121520  72.7804470  97.8806550
   9.2359810  76.2498340 101.8612810   8.5040930  76.7585150 102.2102910
   8.8384150  75.4328320 101.5601590   5.6737200  72.9252540 100.2665300
   5.6773260  72.4842490  99.4169840   6.5688320  73.2469870 100.3737120
   5.7357350  73.9264620  93.2572060   5.8570170  73.8851100  94.2057880
   5.3505860  74.7888770  93.1018790   9.6985720  71.7032020 101.2735750
   9.7158460  72.1540670 102.1177600   9.4501300  70.8037660 101.4869190
   4.7478850  76.2365760  92.6555360   4.1795750  75.7884010  92.0291270
   5.4567850  76.5958540  92.1220510   5.9745170  76.9854320 102.0130710
   6.3415300  76.5112890 102.7592050   5.7850230  77.8595890 102.3539050
   3.7644540  76.0262960 104.3314920   3.4601610  76.9054940 104.5565280
   4.7191000  76.0862750 104.3672360   2.2926330  80.2323950  94.9281770
   1.5188590  79.6921570  94.7680490   3.0220960  79.7130560  94.5899530
  13.0514310  79.2289310 100.7208160  13.7713430  79.7244600 100.3304270
  12.8496130  78.5507200 100.0762030   8.5124250  70.6227270  94.8637550
   7.6988860  70.1240440  94.7882860   8.3186200  71.4625520  94.4473900
  11.2272640  74.9946920  93.1599710  12.1152260  75.3064150  92.9851050
  11.1977730  74.1219170  92.7680290   2.3363730  79.9004330  98.5660580
   2.8542400  79.0972590  98.5117470   1.8847750  79.8383470  99.4077410
   7.2233230  81.1670610  93.8387880   7.5648930  81.9112840  93.3431200
   6.3945940  81.4801730  94.2012710  13.4986910  76.3058760  92.6279570
  13.4150630  76.7372980  91.7776010  14.2181100  76.7657110  93.0606390
  14.5274160  83.1601020  95.3561700  13.8850320  82.5056640  95.6305420
  14.1404820  83.5656110  94.5802370  10.1060640  80.4886450  99.2033390
  10.4584460  79.8914580  98.5434760   9.2222970  80.1630680  99.3741640
   6.1923920  81.2484140  96.6103800   6.8795050  81.7953350  96.9911390
   5.4056340  81.7924870  96.6453410   5.4951130  78.2530170  96.2229160
   5.9513910  79.0635420  96.4489350   5.1439340  77.9353310  97.0547650
   7.7983740  83.7636510 103.4521460   8.4425960  83.9695890 104.1294880
   8.1613180  83.0024910 102.9992310   9.0715820  81.7668860 102.1698910
   9.7138050  81.0662020 102.2831080   9.5965170  82.5467300 101.9895800
  12.9171540  82.0517480  91.8938050  12.6909120  81.3347920  92.4862690
  12.5267740  81.8029920  91.0559800  12.4987790  79.9689420  93.5552210
  12.2109490  80.4302110  94.3430090  13.2939960  79.5087190  93.8236430
   4.7156190  83.4615540  93.4856180   4.7066290  84.1945230  92.8700690
   3.7954550  83.2147120  93.5783140   9.8895620  72.8481250 103.9059830
  10.2576440  72.0276460 104.2339400   9.0293820  72.9083140 104.3215480
  13.2557650  71.8038190  94.7147390  12.6270810  71.9083860  94.0005620
  12.7609570  72.0234970  95.5041270   7.7015790  83.5243780  92.1481370
   7.8027770  83.3207770  91.2183350   6.8017530  83.2702060  92.3529150
   5.2241680  74.0824140  96.1305270   4.5157830  74.5510480  96.5718880
   5.5086160  73.4246150  96.7650460   6.8497610  75.5020840 104.1297800
   7.3482860  75.9766660 104.7949650   6.9920560  74.5784360 104.3367830
   9.2557110  70.8074800  97.5701060   9.1324890  70.8260930  96.6210570
  10.2041670  70.8553740  97.6899460   6.3433900  86.0430100  96.8429040
   6.5975400  86.0051490  95.9208410   5.3946380  85.9163430  96.8357290
   3.4276700  72.3909220  93.5055980   4.2767230  72.8279370  93.4396170
   3.0607970  72.7029480  94.3328040  12.3486480  76.9621980  98.4187550
  11.4076620  76.9772210  98.5935240  12.6630550  76.1757940  98.8647850
   2.3268120  78.6441580  91.9791510   3.0931390  78.5322940  92.5416940
   2.4042810  77.9479550  91.3268280  14.3512060  84.1330830 100.0941810
  14.4759480  84.9562000 100.5665620  15.2177620  83.9221560  99.7465960
   1.8229590  86.2262040  99.7658940   2.5592070  85.6777500 100.0367510
   2.2070510  87.0918050  99.6264930   4.9331900  85.3992350  91.5884510
   5.7260510  85.6881180  91.1366300   4.4136250  84.9684520  90.9096990
  13.9862070  84.6262480  93.0121250  13.7003580  84.2127620  92.1975430
  13.7881620  85.5550190  92.8921770   5.4509300  80.6195760  91.4526860
   5.3459940  80.0048110  92.1788240   5.2833520  80.0961650  90.6689870
   8.6912030  79.6815790  92.0568850   8.1422130  80.1285090  92.7011590
   9.3131290  79.1765040  92.5806520   4.3587150  78.6406710  93.9534150
   4.7803570  78.4746580  94.7965540   4.4837990  77.8306940  93.4589290
   6.8714790  77.6644320  91.2011250   7.3920450  76.9493340  90.8352400
   7.5183190  78.3030190  91.5011760   5.7748310  70.1438870 103.8729810
   5.3265610  70.1663130 103.0275360   5.1413510  69.7457890 104.4700110
   6.1807860  79.0393200 104.4942250   6.5995970  79.8825930 104.3218490
   5.2616490  79.1765240 104.2649030   3.2546050  74.7139940  90.8992310
   3.0535110  73.8507300  91.2605650   3.0838100  74.6273300  89.9613910
  10.7334360  69.5248170  93.4279190  11.0136650  68.6816070  93.7838610
   9.9600090  69.7571280  93.9417940   2.0528850  71.8140560  90.8870190
   2.3554750  71.8207990  89.9789340   2.7923440  71.4638420  91.3837850
   5.2713780  70.7575180  91.8726390   4.9235780  70.0799170  91.2928840
   5.4726550  70.2964690  92.6869780   7.4362820  85.7455930  93.4912990
   8.3313610  86.0840900  93.5131750   7.4680450  85.0235340  92.8637270
   2.8866700  82.2381020  96.8322220   2.5862240  82.1145990  97.7326130
   2.7804190  81.3789610  96.4237950  15.6558620  82.0177420  91.5348900
  14.8251580  82.0854070  92.0056130  15.8330450  82.9081540  91.2315760
  15.1115080  78.7624900  94.0383100  15.8733990  79.3321550  94.1442790
  15.1269450  78.1952100  94.8091410  16.1175050  79.6175000  98.8825030
  16.4883880  78.8342320  98.4761000  16.7576980  80.3064100  98.7042330
  13.1008810  81.0011580 104.2955350  12.2868650  81.4308740 104.5581140
  13.5083010  81.6129990 103.6824400  15.1634250  79.0559270  91.1955620
  15.4383090  79.9638150  91.0674840  14.9744990  78.9921800  92.1317610
  11.5609860  72.0804120  92.4909250  11.9794740  71.8935100  91.6505910
  11.2545920  71.2283170  92.8012180  15.0599590  76.9928260  96.1885050
  14.6843190  76.2256190  95.7566340  14.3302710  77.3750960  96.6759980
  14.3350550  75.2185750  99.4892290  14.8588030  74.7248400  98.8582460
  14.9209970  75.3536110 100.2339860  14.5140270  75.3025620 103.0111840
  13.5642980  75.2689160 103.1256830  14.6953280  76.2125730 102.7761610
  13.8250520  74.4759100  95.4284700  14.3209640  74.2429970  96.2133580
  13.6266590  73.6370940  95.0122340  15.2537680  73.1120050  97.9622380
  15.1436960  72.9576090  98.9004650  16.0145270  72.5840990  97.7197790
  13.6003400  69.0514180 104.4205380  14.2375620  69.6648320 104.7864570
  13.7478290  69.0874840 103.4754610  16.1427950  70.9427970  91.2028520
  17.0677260  70.8109150  90.9946810  16.1203740  71.0220790  92.1564970
  16.2166440  71.7138630  93.8285230  15.4217940  71.6483750  94.3578140
  16.4209720  72.6489270  93.8170580  13.1584860  85.7530180  97.8223620
  13.7543930  85.4314750  97.1458040  13.4163010  85.2802000  98.6136890
   4.7653460  83.7407680 103.5723970   4.5244820  84.0082240 102.6854490
   5.7056100  83.9113410 103.6274830  16.0257620  85.7602060 104.3734610
  15.5315900  86.1570930 103.6561740  15.4170910  85.1351270 104.7671890
  10.3490480  68.4242570 103.2942060   9.4750320  68.7577680 103.0914990
  10.2401230  67.9515750 104.1193930  11.2562460  70.6313440 104.6783780
  10.9275820  69.8165200 104.2985510  12.2044760  70.5883250 104.5549470
  13.7097070  86.4025480 101.6521350  13.2500040  87.1541290 101.2779370
  13.0809530  85.6831950 101.5936150   4.1392790  84.7113720 100.8269480
   4.6557810  84.1001080 100.3017740   4.7890170  85.2142500 101.3180490
   6.8788290  85.6022210 101.6538460   7.1666100  85.3476510 100.7771470
   7.3911510  85.0499570 102.2444030   8.0965300  69.3412410 102.2334970
   7.3137090  69.8157910 102.5131730   7.8028230  68.4367240 102.1248150
  12.6486370  70.0435510 100.2784060  13.0894460  69.9880610  99.4305660
  12.3793960  70.9593520 100.3494240  14.5124940  69.6750750  98.2892880
  14.4513340  68.7311970  98.1423900  15.2916970  69.7830840  98.8346340
   5.9819520  71.7599160  97.7451000   5.1694030  71.3856050  97.4046880
   6.4861160  71.0044240  98.0472190  10.4844500  68.4241610  98.9834070
  11.0873870  68.9961820  99.4582590   9.7437490  68.9881050  98.7607970
  13.6279100  68.8263170  94.2574350  13.8229730  69.7246620  94.5241780
  12.8408970  68.5950250  94.7507300   1.8130860  70.1723940  93.2950660
   2.3423620  69.3853740  93.1658610   2.4459180  70.8515130  93.5286190
   4.0068700  69.9099080  96.3496050   3.3771440  69.2086390  96.5166180
   3.4673840  70.6703210  96.1329210  15.1805710  86.0663880  96.0180910
  15.3557900  85.3801620  95.3741830  14.4827280  86.5910930  95.6257580
   3.0233360  86.4558720  93.5716220   3.7552180  86.1718000  93.0240110
   3.2827030  86.2172000  94.4615600   2.1848150  82.5723450  93.5762550
   1.5557030  83.0408550  94.1248380   2.2995980  81.7272670  94.0108740
   9.6397870  76.6229110  79.7263750   9.5591920  75.7083720  79.4555460
   9.2262290  77.1196180  79.0203460   7.7715910  78.4008130  81.6073020
   6.9958010  77.9208570  81.8971590   8.4228840  77.7213780  81.4329180
  11.7923340  82.8068320  80.3872150  11.3304870  82.0355560  80.7159320
  12.6048890  82.8334390  80.8924600   1.7683000  82.7468030  82.6806800
   2.0711040  81.8565770  82.5017020   2.5126590  83.3038250  82.4529050
   8.0186650  85.0926330  80.0076140   7.3998090  85.5483830  79.4370580
   8.8738430  85.2477790  79.6065840   7.2124900  81.0765320  81.6143180
   7.1433180  80.1355260  81.4532310   7.9744760  81.1666730  82.1865750
   8.2430070  73.8835700  81.8412110   8.6194890  73.0107580  81.7285780
   8.1449580  74.2194400  80.9502550   2.3735080  72.2561330  77.3029550
   2.4801830  73.1565060  77.6098310   1.4627440  72.2079300  77.0124200
  12.0254190  71.3786140  78.7740450  12.8463810  70.8882710  78.8165930
  12.0588270  71.9683800  79.5272290   4.2142810  75.2247700  81.6354730
   4.7221030  75.7228670  82.2759750   4.7456050  74.4482900  81.4594090
  16.3153740  73.3952890  85.3384080  15.6105910  73.7834600  84.8199190
  16.5811660  74.0903180  85.9405010   2.4978910  69.8646260  85.9018150
   2.4997350  70.3818650  85.0964050   1.6683220  69.3876440  85.8788080
   8.8850000  79.9765570  77.4008050   8.2667270  80.4415020  76.8370770
   9.3973250  80.6693050  77.8177560   3.7481760  79.5041440  84.0791650
   3.4151140  80.1310360  84.7212720   3.9248440  80.0303320  83.2993320
  12.2615670  73.3186520  81.5467990  11.5571240  73.6071410  82.1271100
  12.6227830  74.1286630  81.1867550   2.1794240  71.5756220  83.9088600
   2.5211050  72.4198270  83.6142470   1.2410050  71.7239960  84.0253940
   2.9600860  81.4722240  85.8940830   3.5774860  82.1473320  85.6125280
   2.0993980  81.8810220  85.8028330  13.8778450  82.9361650  83.8095470
  13.1941970  83.6060760  83.8012140  14.4172740  83.1342300  83.0440330
  15.3302590  72.7641310  81.9377200  14.3827500  72.7980290  82.0692630
  15.6552580  73.5780260  82.3226560   5.8622130  69.0638490  80.2333190
   6.1697110  68.5085380  79.5168690   4.9322830  69.1982950  80.0506180
  11.4137190  84.7805780  82.5240650  11.4264350  84.3768070  81.6562910
  10.8612410  85.5553070  82.4202080  12.7082610  81.5022000  77.6130820
  12.5978940  80.5596330  77.7380240  12.7050860  81.8637640  78.4993580
  10.8122630  79.6835620  83.8523260  11.2291420  79.4695730  83.0176720
  11.5362450  79.9408410  84.4231880   8.2502890  77.1287320  76.9693310
   7.3232170  77.0624700  77.1981780   8.4027710  78.0667450  76.8548550
   8.2371970  73.4004320  73.9660470   7.2975640  73.5618280  74.0512930
   8.5555230  74.1190000  73.4196460  14.7584730  78.0822840  83.9439500
  13.9303360  78.1515930  83.4689630  15.3535210  78.6677150  83.4755330
  12.2800180  78.6907620  77.4728560  11.6612600  78.3527170  76.8254860
  12.2624630  78.0467380  78.1807750  11.7226740  74.8692160  84.8894370
  11.3097920  75.6945870  85.1434360  10.9902690  74.2837200  84.6970730
   3.8559530  77.6552060  79.7513040   3.4516530  76.9429310  79.2558940
   3.9422650  77.3105300  80.6401080   4.3241230  81.3419620  81.9152250
   4.0269520  80.7365090  81.2360030   5.2741050  81.3796930  81.8041610
   2.5688150  74.4295270  83.5312080   3.1202740  74.5390610  82.7565330
   3.0831660  74.8032870  84.2467310  12.4126840  84.9151490  85.5775350
  11.9357400  85.7223680  85.3847960  11.7288630  84.2629820  85.7301560
   3.4159660  81.0801310  88.5660050   2.5188190  81.3041280  88.8133450
   3.4412530  81.2036250  87.6171450  10.4564880  77.9294430  74.4801310
  10.8958160  77.0916860  74.3339130  11.1693300  78.5623830  74.5665450
   2.2430880  77.9514630  87.1417420   2.1038650  78.8237430  87.5104820
   1.3612240  77.6087440  86.9965360   8.5660260  82.8690500  78.4482550
   9.0056170  83.6114830  78.0337940   8.5047150  83.1117070  79.3721510
   4.0411230  83.8936330  89.3502570   4.0126660  84.2979280  88.4831000
   3.8776200  82.9646690  89.1874170  14.0382020  69.1837240  72.7942350
  13.7254680  69.2764070  73.6941420  14.7994490  69.7618270  72.7439780
  15.9926050  84.6763430  90.6466740  16.4685770  85.1546320  91.3255820
  16.6133210  84.6080920  89.9212240  15.3959300  81.8676280  87.8066750
  15.5222360  81.6288160  86.8883930  15.4380680  81.0360820  88.2788830
   9.2576040  85.5704280  86.3761560   9.7720710  85.4812290  87.1783990
   8.4145120  85.9163980  86.6689470  11.2330440  85.8559620  75.8045560
  11.0731580  85.5662560  76.7027390  11.0677150  85.0799750  75.2690790
   3.7118820  85.6358150  77.5817180   3.5361300  84.7193690  77.3684980
   2.8574560  85.9945440  77.8214980  10.9356570  83.3647180  74.3643560
  10.2421730  83.3624470  73.7045840  11.6779430  82.9406500  73.9337730
  10.5006500  84.9909890  78.4392050  10.9563450  84.2099270  78.7530670
  10.8399020  85.7016710  78.9833230  15.2483310  73.9208740  88.7716490
  14.6327580  74.4288410  88.2431950  14.9279730  73.0207070  88.7142430
   3.0227820  69.8932110  80.6343360   2.5795970  70.6741650  80.3027880
   3.5812810  70.2162000  81.3414300   7.3097630  72.7600630  86.2378680
   6.8477000  72.9683650  87.0498620   6.9075740  71.9459980  85.9349350
  12.3102140  73.9809580  87.3675340  11.4595730  73.6815330  87.6884410
  12.1503930  74.2251590  86.4559160   9.4051850  75.4811330  89.4674130
   9.7305260  74.6475080  89.1276360  10.1932180  76.0039850  89.6152460
   6.1386640  69.5142810  75.5149190   5.5140820  69.5102680  76.2402500
   6.0516760  68.6473770  75.1185160   5.0603720  70.4379440  82.4932960
   5.3576050  71.3442270  82.4124980   5.6089280  69.9498220  81.8792530
   2.8142040  75.0165680  78.3624610   2.5882960  74.8002850  79.2671230
   2.0334570  75.4494140  78.0170580  10.0439800  75.0229050  76.9615260
   9.4448690  75.7464850  76.7778880  10.5919410  74.9605830  76.1791710
   5.2541250  75.9151260  89.0284880   5.1584850  74.9745990  88.8785280
   6.0973230  76.1366330  88.6332950   8.6504670  73.6592590  78.9918540
   9.0434240  73.9764790  78.1787230   9.0121520  72.7804470  79.1063060
   6.9596840  72.4099900  90.2515400   6.2695160  72.2172100  90.8861490
   7.7029140  72.6934540  90.7839700   9.2359810  76.2498340  83.0869320
   8.5040930  76.7585150  83.4359420   8.8384150  75.4328320  82.7858100
   5.6737200  72.9252540  81.4921810   5.6773260  72.4842490  80.6426350
   6.5688320  73.2469870  81.5993630   5.7357350  73.9264620  74.4828570
   5.8570170  73.8851100  75.4314390   5.3505860  74.7888770  74.3275300
   9.6985720  71.7032020  82.4992260   9.7158460  72.1540670  83.3434110
   9.4501300  70.8037660  82.7125700   4.7478850  76.2365760  73.8811870
   4.1795750  75.7884010  73.2547780   5.4567850  76.5958540  73.3477020
  13.1256470  69.1164200  88.3378640  13.4502240  68.3853860  88.8636620
  13.1612980  68.7977840  87.4359630   5.9745170  76.9854320  83.2387220
   6.3415300  76.5112890  83.9848560   5.7850230  77.8595890  83.5795560
   3.7644540  76.0262960  85.5571430   3.4601610  76.9054940  85.7821790
   4.7191000  76.0862750  85.5928870   2.2926330  80.2323950  76.1538280
   1.5188590  79.6921570  75.9937000   3.0220960  79.7130560  75.8156040
  13.0514310  79.2289310  81.9464670  13.7713430  79.7244600  81.5560780
  12.8496130  78.5507200  81.3018540   8.5124250  70.6227270  76.0894060
   7.6988860  70.1240440  76.0139370   8.3186200  71.4625520  75.6730410
   8.4333110  79.2998370  87.8333670   8.3670420  78.3794040  87.5791260
   7.8038250  79.3973810  88.5478310  11.2272640  74.9946920  74.3856220
  12.1152260  75.3064150  74.2107560  11.1977730  74.1219170  73.9936800
   2.3363730  79.9004330  79.7917090   2.8542400  79.0972590  79.7373980
   1.8847750  79.8383470  80.6333920   7.2233230  81.1670610  75.0644390
   7.5648930  81.9112840  74.5687710   6.3945940  81.4801730  75.4269220
   3.0221390  77.3249940  89.5882340   2.7221530  77.4707120  88.6910160
   3.7932630  76.7655230  89.4955730   8.3649840  82.1218940  87.5837470
   8.3794380  81.1899900  87.3656380   7.6574940  82.2078700  88.2227240
  13.4986910  76.3058760  73.8536080  13.4150630  76.7372980  73.0032520
  14.2181100  76.7657110  74.2862900  14.5761050  78.7626280  86.9306050
  13.8509240  79.3555060  86.7335440  15.1036510  78.7549820  86.1319420
  14.5274160  83.1601020  76.5818210  13.8850320  82.5056640  76.8561930
  14.1404820  83.5656110  75.8058880  10.1060640  80.4886450  80.4289900
  10.4584460  79.8914580  79.7691270   9.2222970  80.1630680  80.5998150
   6.1923920  81.2484140  77.8360310   6.8795050  81.7953350  78.2167900
   5.4056340  81.7924870  77.8709920   5.4951130  78.2530170  77.4485670
   5.9513910  79.0635420  77.6745860   5.1439340  77.9353310  78.2804160
   7.7983740  83.7636510  84.6777970   8.4425960  83.9695890  85.3551390
   8.1613180  83.0024910  84.2248820   9.0715820  81.7668860  83.3955420
   9.7138050  81.0662020  83.5087590   9.5965170  82.5467300  83.2152310
  12.9171540  82.0517480  73.1194560  12.6909120  81.3347920  73.7119200
  12.5267740  81.8029920  72.2816310  10.8453440  82.5663760  86.5991480
  11.1809680  83.1530450  87.2769400   9.9253780  82.4356470  86.8289270
  12.4987790  79.9689420  74.7808720  12.2109490  80.4302110  75.5686600
  13.2939960  79.5087190  75.0492940   6.6742020  82.6155090  89.7679540
   6.3538890  81.8964330  90.3125230   6.0000380  83.2910160  89.8415600
   4.7156190  83.4615540  74.7112690   4.7066290  84.1945230  74.0957200
   3.7954550  83.2147120  74.8039650   9.8895620  72.8481250  85.1316340
  10.2576440  72.0276460  85.4595910   9.0293820  72.9083140  85.5471990
  13.2557650  71.8038190  75.9403900  12.6270810  71.9083860  75.2262130
  12.7609570  72.0234970  76.7297780   7.7015790  83.5243780  73.3737880
   7.8027770  83.3207770  72.4439860   6.8017530  83.2702060  73.5785660
   5.2241680  74.0824140  77.3561780   4.5157830  74.5510480  77.7975390
   5.5086160  73.4246150  77.9906970   6.8497610  75.5020840  85.3554310
   7.3482860  75.9766660  86.0206160   6.9920560  74.5784360  85.5624340
   9.2557110  70.8074800  78.7957570   9.1324890  70.8260930  77.8467080
  10.2041670  70.8553740  78.9155970   6.3433900  86.0430100  78.0685550
   6.5975400  86.0051490  77.1464920   5.3946380  85.9163430  78.0613800
   3.4276700  72.3909220  74.7312490   4.2767230  72.8279370  74.6652680
   3.0607970  72.7029480  75.5584550  14.0564470  71.7188800  86.1982700
  13.5538070  72.4594200  86.5376510  14.8721130  72.1072800  85.8819490
  12.3486480  76.9621980  79.6444060  11.4076620  76.9772210  79.8191750
  12.6630550  76.1757940  80.0904360   2.3268120  78.6441580  73.2048020
   3.0931390  78.5322940  73.7673450   2.4042810  77.9479550  72.5524790
  14.3512060  84.1330830  81.3198320  14.4759480  84.9562000  81.7922130
  15.2177620  83.9221560  80.9722470   1.8229590  86.2262040  80.9915450
   2.5592070  85.6777500  81.2624020   2.2070510  87.0918050  80.8521440
   4.9331900  85.3992350  72.8141020   5.7260510  85.6881180  72.3622810
   4.4136250  84.9684520  72.1353500   9.6652500  81.5187980  90.1276440
   9.0590660  81.5419580  89.3872190   9.3606610  80.7871020  90.6643690
  11.0952870  85.2468270  88.7385850  12.0474620  85.1626290  88.6886090
  10.9481090  85.9109980  89.4119640  13.9862070  84.6262480  74.2377760
  13.7003580  84.2127620  73.4231940  13.7881620  85.5550190  74.1178280
   5.4509300  80.6195760  72.6783370   5.3459940  80.0048110  73.4044750
   5.2833520  80.0961650  71.8946380   5.6023620  79.3052560  88.6572600
   4.8369290  79.8737560  88.5727270   5.7839580  79.0128770  87.7640830
   8.6912030  79.6815790  73.2825360   8.1422130  80.1285090  73.9268100
   9.3131290  79.1765040  73.8063030  12.7446970  81.0357890  89.2147620
  13.4856440  81.3733650  88.7115080  11.9819650  81.2049950  88.6617390
   4.3587150  78.6406710  75.1790660   4.7803570  78.4746580  76.0222050
   4.4837990  77.8306940  74.6845800   2.5214570  74.6203260  87.9861640
   1.9911030  74.1294210  87.3584980   3.1902640  75.0487460  87.4519570
   6.8714790  77.6644320  72.4267760   7.3920450  76.9493340  72.0608910
   7.5183190  78.3030190  72.7268270  11.4192630  79.0872720  87.7502830
  11.8333650  79.2417800  88.5993250  10.4843630  79.2127940  87.9128610
  11.8914800  76.4268880  89.7541980  12.4735570  75.6721200  89.6662460
  12.0676570  76.9576320  88.9773460   3.0086870  71.5865630  88.0658930
   2.9143740  70.9686380  87.3409800   2.4284260  72.3131920  87.8388840
   5.7748310  70.1438870  85.0986320   5.3265610  70.1663130  84.2531870
   5.1413510  69.7457890  85.6956620   6.1807860  79.0393200  85.7198760
   6.5995970  79.8825930  85.5475000   5.2616490  79.1765240  85.4905540
   8.5171760  76.7709380  87.1036600   8.6367970  76.1750520  87.8431440
   9.3765760  76.8079070  86.6837900  10.8559660  77.3246570  85.6799110
  10.3294880  77.8489190  85.0764250  11.1991000  77.9573960  86.3108840
   3.2546050  74.7139940  72.1248820   3.0535110  73.8507300  72.4862160
   3.0838100  74.6273300  71.1870420   4.0315280  85.3446210  86.8356490
   3.4936370  86.0692270  86.5165190   4.2849240  84.8676550  86.0453830
   5.2840530  73.3130730  88.3612420   5.8740220  73.0046580  89.0490240
   4.4660770  72.8410480  88.5172320  10.1033960  72.9296540  88.5945440
   9.4149480  72.2678080  88.5295430  10.8239980  72.4834810  89.0393900
  10.7334360  69.5248170  74.6535700  11.0136650  68.6816070  75.0095120
   9.9600090  69.7571280  75.1674450   2.0528850  71.8140560  72.1126700
   2.3554750  71.8207990  71.2045850   2.7923440  71.4638420  72.6094360
   6.8877490  86.5797420  87.0943140   6.8136190  87.4832560  87.4015510
   5.9856330  86.2609320  87.0665210   5.2713780  70.7575180  73.0982900
   4.9235780  70.0799170  72.5185350   5.4726550  70.2964690  73.9126290
   7.4362820  85.7455930  74.7169500   8.3313610  86.0840900  74.7388260
   7.4680450  85.0235340  74.0893780   2.8866700  82.2381020  78.0578730
   2.5862240  82.1145990  78.9582640   2.7804190  81.3789610  77.6494460
  14.4157170  84.2759600  87.4235700  13.8159160  84.3352160  86.6799620
  14.5451070  83.3364580  87.5532550  15.6558620  82.0177420  72.7605410
  14.8251580  82.0854070  73.2312640  15.8330450  82.9081540  72.4572270
  15.1115080  78.7624900  75.2639610  15.8733990  79.3321550  75.3699300
  15.1269450  78.1952100  76.0347920  16.1175050  79.6175000  80.1081540
  16.4883880  78.8342320  79.7017510  16.7576980  80.3064100  79.9298840
  13.1008810  81.0011580  85.5211860  12.2868650  81.4308740  85.7837650
  13.5083010  81.6129990  84.9080910  15.1634250  79.0559270  72.4212130
  15.4383090  79.9638150  72.2931350  14.9744990  78.9921800  73.3574120
  11.5609860  72.0804120  73.7165760  11.9794740  71.8935100  72.8762420
  11.2545920  71.2283170  74.0268690  15.0599590  76.9928260  77.4141560
  14.6843190  76.2256190  76.9822850  14.3302710  77.3750960  77.9016490
  14.4499210  76.1399780  87.0481080  14.2185300  75.9112530  86.1479030
  14.7103760  77.0599330  87.0025970  12.8887280  71.3656210  89.8260780
  13.7657460  71.3739610  90.2094780  12.9008120  70.6287050  89.2153130
  14.3350550  75.2185750  80.7148800  14.8588030  74.7248400  80.0838970
  14.9209970  75.3536110  81.4596370  14.5140270  75.3025620  84.2368350
  13.5642980  75.2689160  84.3513340  14.6953280  76.2125730  84.0018120
  13.8250520  74.4759100  76.6541210  14.3209640  74.2429970  77.4390090
  13.6266590  73.6370940  76.2378850  15.2537680  73.1120050  79.1878890
  15.1436960  72.9576090  80.1261160  16.0145270  72.5840990  78.9454300
  13.6003400  69.0514180  85.6461890  14.2375620  69.6648320  86.0121080
  13.7478290  69.0874840  84.7011120  16.1427950  70.9427970  72.4285030
  17.0677260  70.8109150  72.2203320  16.1203740  71.0220790  73.3821480
  16.2166440  71.7138630  75.0541740  15.4217940  71.6483750  75.5834650
  16.4209720  72.6489270  75.0427090  13.1584860  85.7530180  79.0480130
  13.7543930  85.4314750  78.3714550  13.4163010  85.2802000  79.8393400
   4.7653460  83.7407680  84.7980480   4.5244820  84.0082240  83.9111000
   5.7056100  83.9113410  84.8531340   6.9707880  70.2040370  88.5536990
   6.9096770  70.7962200  89.3032400   7.9108260  70.0966330  88.4087250
   9.6082440  69.8610430  88.1929280  10.2222850  70.1789720  87.5310360
  10.1532000  69.3759020  88.8125140  16.0257620  85.7602060  85.5991120
  15.5315900  86.1570930  84.8818250  15.4170910  85.1351270  85.9928400
  10.3490480  68.4242570  84.5198570   9.4750320  68.7577680  84.3171500
  10.2401230  67.9515750  85.3450440  11.2562460  70.6313440  85.9040290
  10.9275820  69.8165200  85.5242020  12.2044760  70.5883250  85.7805980
  13.7097070  86.4025480  82.8777860  13.2500040  87.1541290  82.5035880
  13.0809530  85.6831950  82.8192660   4.1392790  84.7113720  82.0525990
   4.6557810  84.1001080  81.5274250   4.7890170  85.2142500  82.5437000
   6.8788290  85.6022210  82.8794970   7.1666100  85.3476510  82.0027980
   7.3911510  85.0499570  83.4700540   8.0965300  69.3412410  83.4591480
   7.3137090  69.8157910  83.7388240   7.8028230  68.4367240  83.3504660
  12.6486370  70.0435510  81.5040570  13.0894460  69.9880610  80.6562170
  12.3793960  70.9593520  81.5750750  14.5124940  69.6750750  79.5149390
  14.4513340  68.7311970  79.3680410  15.2916970  69.7830840  80.0602850
   5.9819520  71.7599160  78.9707510   5.1694030  71.3856050  78.6303390
   6.4861160  71.0044240  79.2728700  10.4844500  68.4241610  80.2090580
  11.0873870  68.9961820  80.6839100   9.7437490  68.9881050  79.9864480
  13.6279100  68.8263170  75.4830860  13.8229730  69.7246620  75.7498290
  12.8408970  68.5950250  75.9763810   1.8130860  70.1723940  74.5207170
   2.3423620  69.3853740  74.3915120   2.4459180  70.8515130  74.7542700
   4.0068700  69.9099080  77.5752560   3.3771440  69.2086390  77.7422690
   3.4673840  70.6703210  77.3585720   6.9460650  86.5238310  90.2463170
   7.8727960  86.2882580  90.2899130   6.9311080  87.3510310  89.7649200
  15.1805710  86.0663880  77.2437420  15.3557900  85.3801620  76.5998340
  14.4827280  86.5910930  76.8514090   4.1324260  69.1883060  90.0105050
   3.8508530  69.6916660  89.2465870   4.5143960  68.3904810  89.6447180
   3.0233360  86.4558720  74.7972730   3.7552180  86.1718000  74.2496620
   3.2827030  86.2172000  75.6872110   2.1848150  82.5723450  74.8019060
   1.5557030  83.0408550  75.3504890   2.2995980  81.7272670  75.2365250
  10.7339720  68.6036640  90.5885520  10.6205170  68.9231250  91.4837040
  11.5509460  69.0049150  90.2922800  13.5138210  85.7508170  90.0704210
  14.3063530  85.2557400  89.8630170  13.8071360  86.4298310  90.6779820
   9.6397870  76.6229110  60.9520260   9.5591920  75.7083720  60.6811970
   9.2262290  77.1196180  60.2459970   7.7715910  78.4008130  62.8329530
   6.9958010  77.9208570  63.1228100   8.4228840  77.7213780  62.6585690
  11.7923340  82.8068320  61.6128660  11.3304870  82.0355560  61.9415830
  12.6048890  82.8334390  62.1181110   1.7683000  82.7468030  63.9063310
   2.0711040  81.8565770  63.7273530   2.5126590  83.3038250  63.6785560
   8.0186650  85.0926330  61.2332650   7.3998090  85.5483830  60.6627090
   8.8738430  85.2477790  60.8322350   7.2124900  81.0765320  62.8399690
   7.1433180  80.1355260  62.6788820   7.9744760  81.1666730  63.4122260
   8.2430070  73.8835700  63.0668620   8.6194890  73.0107580  62.9542290
   8.1449580  74.2194400  62.1759060   2.3735080  72.2561330  58.5286060
   2.4801830  73.1565060  58.8354820   1.4627440  72.2079300  58.2380710
  12.0254190  71.3786140  59.9996960  12.8463810  70.8882710  60.0422440
  12.0588270  71.9683800  60.7528800   4.2142810  75.2247700  62.8611240
   4.7221030  75.7228670  63.5016260   4.7456050  74.4482900  62.6850600
  16.3153740  73.3952890  66.5640590  15.6105910  73.7834600  66.0455700
  16.5811660  74.0903180  67.1661520   2.4978910  69.8646260  67.1274660
   2.4997350  70.3818650  66.3220560   1.6683220  69.3876440  67.1044590
   8.8850000  79.9765570  58.6264560   8.2667270  80.4415020  58.0627280
   9.3973250  80.6693050  59.0434070   3.7481760  79.5041440  65.3048160
   3.4151140  80.1310360  65.9469230   3.9248440  80.0303320  64.5249830
  12.2615670  73.3186520  62.7724500  11.5571240  73.6071410  63.3527610
  12.6227830  74.1286630  62.4124060   2.1794240  71.5756220  65.1345110
   2.5211050  72.4198270  64.8398980   1.2410050  71.7239960  65.2510450
   2.9600860  81.4722240  67.1197340   3.5774860  82.1473320  66.8381790
   2.0993980  81.8810220  67.0284840  13.8778450  82.9361650  65.0351980
  13.1941970  83.6060760  65.0268650  14.4172740  83.1342300  64.2696840
  15.3302590  72.7641310  63.1633710  14.3827500  72.7980290  63.2949140
  15.6552580  73.5780260  63.5483070   5.8622130  69.0638490  61.4589700
   6.1697110  68.5085380  60.7425200   4.9322830  69.1982950  61.2762690
  11.4137190  84.7805780  63.7497160  11.4264350  84.3768070  62.8819420
  10.8612410  85.5553070  63.6458590  12.7082610  81.5022000  58.8387330
  12.5978940  80.5596330  58.9636750  12.7050860  81.8637640  59.7250090
  10.8122630  79.6835620  65.0779770  11.2291420  79.4695730  64.2433230
  11.5362450  79.9408410  65.6488390   8.2502890  77.1287320  58.1949820
   7.3232170  77.0624700  58.4238290   8.4027710  78.0667450  58.0805060
   8.2371970  73.4004320  55.1916980   7.2975640  73.5618280  55.2769440
   8.5555230  74.1190000  54.6452970  14.7584730  78.0822840  65.1696010
  13.9303360  78.1515930  64.6946140  15.3535210  78.6677150  64.7011840
  12.2800180  78.6907620  58.6985070  11.6612600  78.3527170  58.0511370
  12.2624630  78.0467380  59.4064260  11.7226740  74.8692160  66.1150880
  11.3097920  75.6945870  66.3690870  10.9902690  74.2837200  65.9227240
   3.8559530  77.6552060  60.9769550   3.4516530  76.9429310  60.4815450
   3.9422650  77.3105300  61.8657590   4.3241230  81.3419620  63.1408760
   4.0269520  80.7365090  62.4616540   5.2741050  81.3796930  63.0298120
   2.5688150  74.4295270  64.7568590   3.1202740  74.5390610  63.9821840
   3.0831660  74.8032870  65.4723820  12.4126840  84.9151490  66.8031860
  11.9357400  85.7223680  66.6104470  11.7288630  84.2629820  66.9558070
   3.4159660  81.0801310  69.7916560   2.5188190  81.3041280  70.0389960
   3.4412530  81.2036250  68.8427960  10.4564880  77.9294430  55.7057820
  10.8958160  77.0916860  55.5595640  11.1693300  78.5623830  55.7921960
   2.2430880  77.9514630  68.3673930   2.1038650  78.8237430  68.7361330
   1.3612240  77.6087440  68.2221870   8.5660260  82.8690500  59.6739060
   9.0056170  83.6114830  59.2594450   8.5047150  83.1117070  60.5978020
   4.0411230  83.8936330  70.5759080   4.0126660  84.2979280  69.7087510
   3.8776200  82.9646690  70.4130680  14.0382020  69.1837240  54.0198860
  13.7254680  69.2764070  54.9197930  14.7994490  69.7618270  53.9696290
  15.9926050  84.6763430  71.8723250  16.4685770  85.1546320  72.5512330
  16.6133210  84.6080920  71.1468750  15.3959300  81.8676280  69.0323260
  15.5222360  81.6288160  68.1140440  15.4380680  81.0360820  69.5045340
   9.2576040  85.5704280  67.6018070   9.7720710  85.4812290  68.4040500
   8.4145120  85.9163980  67.8945980  11.2330440  85.8559620  57.0302070
  11.0731580  85.5662560  57.9283900  11.0677150  85.0799750  56.4947300
   3.7118820  85.6358150  58.8073690   3.5361300  84.7193690  58.5941490
   2.8574560  85.9945440  59.0471490  10.9356570  83.3647180  55.5900070
  10.2421730  83.3624470  54.9302350  11.6779430  82.9406500  55.1594240
  10.5006500  84.9909890  59.6648560  10.9563450  84.2099270  59.9787180
  10.8399020  85.7016710  60.2089740  15.2483310  73.9208740  69.9973000
  14.6327580  74.4288410  69.4688460  14.9279730  73.0207070  69.9398940
   3.0227820  69.8932110  61.8599870   2.5795970  70.6741650  61.5284390
   3.5812810  70.2162000  62.5670810   7.3097630  72.7600630  67.4635190
   6.8477000  72.9683650  68.2755130   6.9075740  71.9459980  67.1605860
  12.3102140  73.9809580  68.5931850  11.4595730  73.6815330  68.9140920
  12.1503930  74.2251590  67.6815670   9.4051850  75.4811330  70.6930640
   9.7305260  74.6475080  70.3532870  10.1932180  76.0039850  70.8408970
   6.1386640  69.5142810  56.7405700   5.5140820  69.5102680  57.4659010
   6.0516760  68.6473770  56.3441670   5.0603720  70.4379440  63.7189470
   5.3576050  71.3442270  63.6381490   5.6089280  69.9498220  63.1049040
   2.8142040  75.0165680  59.5881120   2.5882960  74.8002850  60.4927740
   2.0334570  75.4494140  59.2427090  10.0439800  75.0229050  58.1871770
   9.4448690  75.7464850  58.0035390  10.5919410  74.9605830  57.4048220
   5.2541250  75.9151260  70.2541390   5.1584850  74.9745990  70.1041790
   6.0973230  76.1366330  69.8589460   8.6504670  73.6592590  60.2175050
   9.0434240  73.9764790  59.4043740   9.0121520  72.7804470  60.3319570
   6.9596840  72.4099900  71.4771910   6.2695160  72.2172100  72.1118000
   7.7029140  72.6934540  72.0096210   9.2359810  76.2498340  64.3125830
   8.5040930  76.7585150  64.6615930   8.8384150  75.4328320  64.0114610
   5.6737200  72.9252540  62.7178320   5.6773260  72.4842490  61.8682860
   6.5688320  73.2469870  62.8250140   5.7357350  73.9264620  55.7085080
   5.8570170  73.8851100  56.6570900   5.3505860  74.7888770  55.5531810
   9.6985720  71.7032020  63.7248770   9.7158460  72.1540670  64.5690620
   9.4501300  70.8037660  63.9382210   4.7478850  76.2365760  55.1068380
   4.1795750  75.7884010  54.4804290   5.4567850  76.5958540  54.5733530
  13.1256470  69.1164200  69.5635150  13.4502240  68.3853860  70.0893130
  13.1612980  68.7977840  68.6616140   5.9745170  76.9854320  64.4643730
   6.3415300  76.5112890  65.2105070   5.7850230  77.8595890  64.8052070
   3.7644540  76.0262960  66.7827940   3.4601610  76.9054940  67.0078300
   4.7191000  76.0862750  66.8185380   2.2926330  80.2323950  57.3794790
   1.5188590  79.6921570  57.2193510   3.0220960  79.7130560  57.0412550
  13.0514310  79.2289310  63.1721180  13.7713430  79.7244600  62.7817290
  12.8496130  78.5507200  62.5275050   8.5124250  70.6227270  57.3150570
   7.6988860  70.1240440  57.2395880   8.3186200  71.4625520  56.8986920
   8.4333110  79.2998370  69.0590180   8.3670420  78.3794040  68.8047770
   7.8038250  79.3973810  69.7734820  11.2272640  74.9946920  55.6112730
  12.1152260  75.3064150  55.4364070  11.1977730  74.1219170  55.2193310
   2.3363730  79.9004330  61.0173600   2.8542400  79.0972590  60.9630490
   1.8847750  79.8383470  61.8590430   7.2233230  81.1670610  56.2900900
   7.5648930  81.9112840  55.7944220   6.3945940  81.4801730  56.6525730
   3.0221390  77.3249940  70.8138850   2.7221530  77.4707120  69.9166670
   3.7932630  76.7655230  70.7212240   8.3649840  82.1218940  68.8093980
   8.3794380  81.1899900  68.5912890   7.6574940  82.2078700  69.4483750
  13.4986910  76.3058760  55.0792590  13.4150630  76.7372980  54.2289030
  14.2181100  76.7657110  55.5119410  14.5761050  78.7626280  68.1562560
  13.8509240  79.3555060  67.9591950  15.1036510  78.7549820  67.3575930
  14.5274160  83.1601020  57.8074720  13.8850320  82.5056640  58.0818440
  14.1404820  83.5656110  57.0315390  10.1060640  80.4886450  61.6546410
  10.4584460  79.8914580  60.9947780   9.2222970  80.1630680  61.8254660
   6.1923920  81.2484140  59.0616820   6.8795050  81.7953350  59.4424410
   5.4056340  81.7924870  59.0966430   5.4951130  78.2530170  58.6742180
   5.9513910  79.0635420  58.9002370   5.1439340  77.9353310  59.5060670
   7.7983740  83.7636510  65.9034480   8.4425960  83.9695890  66.5807900
   8.1613180  83.0024910  65.4505330   9.0715820  81.7668860  64.6211930
   9.7138050  81.0662020  64.7344100   9.5965170  82.5467300  64.4408820
  12.9171540  82.0517480  54.3451070  12.6909120  81.3347920  54.9375710
  12.5267740  81.8029920  53.5072820  10.8453440  82.5663760  67.8247990
  11.1809680  83.1530450  68.5025910   9.9253780  82.4356470  68.0545780
  12.4987790  79.9689420  56.0065230  12.2109490  80.4302110  56.7943110
  13.2939960  79.5087190  56.2749450   6.6742020  82.6155090  70.9936050
   6.3538890  81.8964330  71.5381740   6.0000380  83.2910160  71.0672110
   4.7156190  83.4615540  55.9369200   4.7066290  84.1945230  55.3213710
   3.7954550  83.2147120  56.0296160   9.8895620  72.8481250  66.3572850
  10.2576440  72.0276460  66.6852420   9.0293820  72.9083140  66.7728500
  13.2557650  71.8038190  57.1660410  12.6270810  71.9083860  56.4518640
  12.7609570  72.0234970  57.9554290   7.7015790  83.5243780  54.5994390
   7.8027770  83.3207770  53.6696370   6.8017530  83.2702060  54.8042170
   5.2241680  74.0824140  58.5818290   4.5157830  74.5510480  59.0231900
   5.5086160  73.4246150  59.2163480   6.8497610  75.5020840  66.5810820
   7.3482860  75.9766660  67.2462670   6.9920560  74.5784360  66.7880850
   9.2557110  70.8074800  60.0214080   9.1324890  70.8260930  59.0723590
  10.2041670  70.8553740  60.1412480   6.3433900  86.0430100  59.2942060
   6.5975400  86.0051490  58.3721430   5.3946380  85.9163430  59.2870310
   3.4276700  72.3909220  55.9569000   4.2767230  72.8279370  55.8909190
   3.0607970  72.7029480  56.7841060  14.0564470  71.7188800  67.4239210
  13.5538070  72.4594200  67.7633020  14.8721130  72.1072800  67.1076000
  12.3486480  76.9621980  60.8700570  11.4076620  76.9772210  61.0448260
  12.6630550  76.1757940  61.3160870   2.3268120  78.6441580  54.4304530
   3.0931390  78.5322940  54.9929960   2.4042810  77.9479550  53.7781300
  14.3512060  84.1330830  62.5454830  14.4759480  84.9562000  63.0178640
  15.2177620  83.9221560  62.1978980   1.8229590  86.2262040  62.2171960
   2.5592070  85.6777500  62.4880530   2.2070510  87.0918050  62.0777950
   4.9331900  85.3992350  54.0397530   5.7260510  85.6881180  53.5879320
   4.4136250  84.9684520  53.3610010   9.6652500  81.5187980  71.3532950
   9.0590660  81.5419580  70.6128700   9.3606610  80.7871020  71.8900200
  11.0952870  85.2468270  69.9642360  12.0474620  85.1626290  69.9142600
  10.9481090  85.9109980  70.6376150  13.9862070  84.6262480  55.4634270
  13.7003580  84.2127620  54.6488450  13.7881620  85.5550190  55.3434790
   5.4509300  80.6195760  53.9039880   5.3459940  80.0048110  54.6301260
   5.2833520  80.0961650  53.1202890   5.6023620  79.3052560  69.8829110
   4.8369290  79.8737560  69.7983780   5.7839580  79.0128770  68.9897340
   8.6912030  79.6815790  54.5081870   8.1422130  80.1285090  55.1524610
   9.3131290  79.1765040  55.0319540  12.7446970  81.0357890  70.4404130
  13.4856440  81.3733650  69.9371590  11.9819650  81.2049950  69.8873900
   4.3587150  78.6406710  56.4047170   4.7803570  78.4746580  57.2478560
   4.4837990  77.8306940  55.9102310   2.5214570  74.6203260  69.2118150
   1.9911030  74.1294210  68.5841490   3.1902640  75.0487460  68.6776080
   6.8714790  77.6644320  53.6524270   7.3920450  76.9493340  53.2865420
   7.5183190  78.3030190  53.9524780  11.4192630  79.0872720  68.9759340
  11.8333650  79.2417800  69.8249760  10.4843630  79.2127940  69.1385120
  11.8914800  76.4268880  70.9798490  12.4735570  75.6721200  70.8918970
  12.0676570  76.9576320  70.2029970   3.0086870  71.5865630  69.2915440
   2.9143740  70.9686380  68.5666310   2.4284260  72.3131920  69.0645350
   5.7748310  70.1438870  66.3242830   5.3265610  70.1663130  65.4788380
   5.1413510  69.7457890  66.9213130   6.1807860  79.0393200  66.9455270
   6.5995970  79.8825930  66.7731510   5.2616490  79.1765240  66.7162050
   8.5171760  76.7709380  68.3293110   8.6367970  76.1750520  69.0687950
   9.3765760  76.8079070  67.9094410  10.8559660  77.3246570  66.9055620
  10.3294880  77.8489190  66.3020760  11.1991000  77.9573960  67.5365350
   3.2546050  74.7139940  53.3505330   3.0535110  73.8507300  53.7118670
   3.0838100  74.6273300  52.4126930   4.0315280  85.3446210  68.0613000
   3.4936370  86.0692270  67.7421700   4.2849240  84.8676550  67.2710340
   5.2840530  73.3130730  69.5868930   5.8740220  73.0046580  70.2746750
   4.4660770  72.8410480  69.7428830  10.1033960  72.9296540  69.8201950
   9.4149480  72.2678080  69.7551940  10.8239980  72.4834810  70.2650410
  10.7334360  69.5248170  55.8792210  11.0136650  68.6816070  56.2351630
   9.9600090  69.7571280  56.3930960   2.0528850  71.8140560  53.3383210
   2.3554750  71.8207990  52.4302360   2.7923440  71.4638420  53.8350870
   6.8877490  86.5797420  68.3199650   6.8136190  87.4832560  68.6272020
   5.9856330  86.2609320  68.2921720   5.2713780  70.7575180  54.3239410
   4.9235780  70.0799170  53.7441860   5.4726550  70.2964690  55.1382800
   7.4362820  85.7455930  55.9426010   8.3313610  86.0840900  55.9644770
   7.4680450  85.0235340  55.3150290   2.8866700  82.2381020  59.2835240
   2.5862240  82.1145990  60.1839150   2.7804190  81.3789610  58.8750970
  14.4157170  84.2759600  68.6492210  13.8159160  84.3352160  67.9056130
  14.5451070  83.3364580  68.7789060  15.6558620  82.0177420  53.9861920
  14.8251580  82.0854070  54.4569150  15.8330450  82.9081540  53.6828780
  15.1115080  78.7624900  56.4896120  15.8733990  79.3321550  56.5955810
  15.1269450  78.1952100  57.2604430  16.1175050  79.6175000  61.3338050
  16.4883880  78.8342320  60.9274020  16.7576980  80.3064100  61.1555350
  13.1008810  81.0011580  66.7468370  12.2868650  81.4308740  67.0094160
  13.5083010  81.6129990  66.1337420  15.1634250  79.0559270  53.6468640
  15.4383090  79.9638150  53.5187860  14.9744990  78.9921800  54.5830630
  11.5609860  72.0804120  54.9422270  11.9794740  71.8935100  54.1018930
  11.2545920  71.2283170  55.2525200  15.0599590  76.9928260  58.6398070
  14.6843190  76.2256190  58.2079360  14.3302710  77.3750960  59.1273000
  14.4499210  76.1399780  68.2737590  14.2185300  75.9112530  67.3735540
  14.7103760  77.0599330  68.2282480  12.8887280  71.3656210  71.0517290
  13.7657460  71.3739610  71.4351290  12.9008120  70.6287050  70.4409640
  14.3350550  75.2185750  61.9405310  14.8588030  74.7248400  61.3095480
  14.9209970  75.3536110  62.6852880  14.5140270  75.3025620  65.4624860
  13.5642980  75.2689160  65.5769850  14.6953280  76.2125730  65.2274630
  13.8250520  74.4759100  57.8797720  14.3209640  74.2429970  58.6646600
  13.6266590  73.6370940  57.4635360  15.2537680  73.1120050  60.4135400
  15.1436960  72.9576090  61.3517670  16.0145270  72.5840990  60.1710810
  13.6003400  69.0514180  66.8718400  14.2375620  69.6648320  67.2377590
  13.7478290  69.0874840  65.9267630  16.1427950  70.9427970  53.6541540
  17.0677260  70.8109150  53.4459830  16.1203740  71.0220790  54.6077990
  16.2166440  71.7138630  56.2798250  15.4217940  71.6483750  56.8091160
  16.4209720  72.6489270  56.2683600  13.1584860  85.7530180  60.2736640
  13.7543930  85.4314750  59.5971060  13.4163010  85.2802000  61.0649910
   4.7653460  83.7407680  66.0236990   4.5244820  84.0082240  65.1367510
   5.7056100  83.9113410  66.0787850   6.9707880  70.2040370  69.7793500
   6.9096770  70.7962200  70.5288910   7.9108260  70.0966330  69.6343760
   9.6082440  69.8610430  69.4185790  10.2222850  70.1789720  68.7566870
  10.1532000  69.3759020  70.0381650  16.0257620  85.7602060  66.8247630
  15.5315900  86.1570930  66.1074760  15.4170910  85.1351270  67.2184910
  10.3490480  68.4242570  65.7455080   9.4750320  68.7577680  65.5428010
  10.2401230  67.9515750  66.5706950  11.2562460  70.6313440  67.1296800
  10.9275820  69.8165200  66.7498530  12.2044760  70.5883250  67.0062490
  13.7097070  86.4025480  64.1034370  13.2500040  87.1541290  63.7292390
  13.0809530  85.6831950  64.0449170   4.1392790  84.7113720  63.2782500
   4.6557810  84.1001080  62.7530760   4.7890170  85.2142500  63.7693510
   6.8788290  85.6022210  64.1051480   7.1666100  85.3476510  63.2284490
   7.3911510  85.0499570  64.6957050   8.0965300  69.3412410  64.6847990
   7.3137090  69.8157910  64.9644750   7.8028230  68.4367240  64.5761170
  12.6486370  70.0435510  62.7297080  13.0894460  69.9880610  61.8818680
  12.3793960  70.9593520  62.8007260  14.5124940  69.6750750  60.7405900
  14.4513340  68.7311970  60.5936920  15.2916970  69.7830840  61.2859360
   5.9819520  71.7599160  60.1964020   5.1694030  71.3856050  59.8559900
   6.4861160  71.0044240  60.4985210  10.4844500  68.4241610  61.4347090
  11.0873870  68.9961820  61.9095610   9.7437490  68.9881050  61.2120990
  13.6279100  68.8263170  56.7087370  13.8229730  69.7246620  56.9754800
  12.8408970  68.5950250  57.2020320   1.8130860  70.1723940  55.7463680
   2.3423620  69.3853740  55.6171630   2.4459180  70.8515130  55.9799210
   4.0068700  69.9099080  58.8009070   3.3771440  69.2086390  58.9679200
   3.4673840  70.6703210  58.5842230   6.9460650  86.5238310  71.4719680
   7.8727960  86.2882580  71.5155640   6.9311080  87.3510310  70.9905710
  15.1805710  86.0663880  58.4693930  15.3557900  85.3801620  57.8254850
  14.4827280  86.5910930  58.0770600   4.1324260  69.1883060  71.2361560
   3.8508530  69.6916660  70.4722380   4.5143960  68.3904810  70.8703690
   3.0233360  86.4558720  56.0229240   3.7552180  86.1718000  55.4753130
   3.2827030  86.2172000  56.9128620   2.1848150  82.5723450  56.0275570
   1.5557030  83.0408550  56.5761400   2.2995980  81.7272670  56.4621760
  10.7339720  68.6036640  71.8142030  10.6205170  68.9231250  72.7093550
  11.5509460  69.0049150  71.5179310  13.5138210  85.7508170  71.2960720
  14.3063530  85.2557400  71.0886680  13.8071360  86.4298310  71.9036330
   9.6397870  76.6229110  42.1776770   9.5591920  75.7083720  41.9068480
   9.2262290  77.1196180  41.4716480   7.7715910  78.4008130  44.0586040
   6.9958010  77.9208570  44.3484610   8.4228840  77.7213780  43.8842200
  11.7923340  82.8068320  42.8385170  11.3304870  82.0355560  43.1672340
  12.6048890  82.8334390  43.3437620   1.7683000  82.7468030  45.1319820
   2.0711040  81.8565770  44.9530040   2.5126590  83.3038250  44.9042070
   8.0186650  85.0926330  42.4589160   7.3998090  85.5483830  41.8883600
   8.8738430  85.2477790  42.0578860   7.2124900  81.0765320  44.0656200
   7.1433180  80.1355260  43.9045330   7.9744760  81.1666730  44.6378770
   8.2430070  73.8835700  44.2925130   8.6194890  73.0107580  44.1798800
   8.1449580  74.2194400  43.4015570   2.3735080  72.2561330  39.7542570
   2.4801830  73.1565060  40.0611330   1.4627440  72.2079300  39.4637220
  12.0254190  71.3786140  41.2253470  12.8463810  70.8882710  41.2678950
  12.0588270  71.9683800  41.9785310   4.2142810  75.2247700  44.0867750
   4.7221030  75.7228670  44.7272770   4.7456050  74.4482900  43.9107110
  16.3153740  73.3952890  47.7897100  15.6105910  73.7834600  47.2712210
  16.5811660  74.0903180  48.3918030   2.4978910  69.8646260  48.3531170
   2.4997350  70.3818650  47.5477070   1.6683220  69.3876440  48.3301100
   8.8850000  79.9765570  39.8521070   8.2667270  80.4415020  39.2883790
   9.3973250  80.6693050  40.2690580   3.7481760  79.5041440  46.5304670
   3.4151140  80.1310360  47.1725740   3.9248440  80.0303320  45.7506340
  12.2615670  73.3186520  43.9981010  11.5571240  73.6071410  44.5784120
  12.6227830  74.1286630  43.6380570   2.1794240  71.5756220  46.3601620
   2.5211050  72.4198270  46.0655490   1.2410050  71.7239960  46.4766960
   2.9600860  81.4722240  48.3453850   3.5774860  82.1473320  48.0638300
   2.0993980  81.8810220  48.2541350  13.8778450  82.9361650  46.2608490
  13.1941970  83.6060760  46.2525160  14.4172740  83.1342300  45.4953350
  15.3302590  72.7641310  44.3890220  14.3827500  72.7980290  44.5205650
  15.6552580  73.5780260  44.7739580   5.8622130  69.0638490  42.6846210
   6.1697110  68.5085380  41.9681710   4.9322830  69.1982950  42.5019200
  11.4137190  84.7805780  44.9753670  11.4264350  84.3768070  44.1075930
  10.8612410  85.5553070  44.8715100  12.7082610  81.5022000  40.0643840
  12.5978940  80.5596330  40.1893260  12.7050860  81.8637640  40.9506600
  10.8122630  79.6835620  46.3036280  11.2291420  79.4695730  45.4689740
  11.5362450  79.9408410  46.8744900   8.2502890  77.1287320  39.4206330
   7.3232170  77.0624700  39.6494800   8.4027710  78.0667450  39.3061570
   8.2371970  73.4004320  36.4173490   7.2975640  73.5618280  36.5025950
   8.5555230  74.1190000  35.8709480  14.7584730  78.0822840  46.3952520
  13.9303360  78.1515930  45.9202650  15.3535210  78.6677150  45.9268350
  12.2800180  78.6907620  39.9241580  11.6612600  78.3527170  39.2767880
  12.2624630  78.0467380  40.6320770  11.7226740  74.8692160  47.3407390
  11.3097920  75.6945870  47.5947380  10.9902690  74.2837200  47.1483750
   3.8559530  77.6552060  42.2026060   3.4516530  76.9429310  41.7071960
   3.9422650  77.3105300  43.0914100   4.3241230  81.3419620  44.3665270
   4.0269520  80.7365090  43.6873050   5.2741050  81.3796930  44.2554630
   2.5688150  74.4295270  45.9825100   3.1202740  74.5390610  45.2078350
   3.0831660  74.8032870  46.6980330  12.4126840  84.9151490  48.0288370
  11.9357400  85.7223680  47.8360980  11.7288630  84.2629820  48.1814580
   3.4159660  81.0801310  51.0173070   2.5188190  81.3041280  51.2646470
   3.4412530  81.2036250  50.0684470  10.4564880  77.9294430  36.9314330
  10.8958160  77.0916860  36.7852150  11.1693300  78.5623830  37.0178470
   2.2430880  77.9514630  49.5930440   2.1038650  78.8237430  49.9617840
   1.3612240  77.6087440  49.4478380   8.5660260  82.8690500  40.8995570
   9.0056170  83.6114830  40.4850960   8.5047150  83.1117070  41.8234530
   4.0411230  83.8936330  51.8015590   4.0126660  84.2979280  50.9344020
   3.8776200  82.9646690  51.6387190  14.0382020  69.1837240  35.2455370
  13.7254680  69.2764070  36.1454440  14.7994490  69.7618270  35.1952800
  15.9926050  84.6763430  53.0979760  16.4685770  85.1546320  53.7768840
  16.6133210  84.6080920  52.3725260  15.3959300  81.8676280  50.2579770
  15.5222360  81.6288160  49.3396950  15.4380680  81.0360820  50.7301850
   9.2576040  85.5704280  48.8274580   9.7720710  85.4812290  49.6297010
   8.4145120  85.9163980  49.1202490  11.2330440  85.8559620  38.2558580
  11.0731580  85.5662560  39.1540410  11.0677150  85.0799750  37.7203810
   3.7118820  85.6358150  40.0330200   3.5361300  84.7193690  39.8198000
   2.8574560  85.9945440  40.2728000  10.9356570  83.3647180  36.8156580
  10.2421730  83.3624470  36.1558860  11.6779430  82.9406500  36.3850750
  10.5006500  84.9909890  40.8905070  10.9563450  84.2099270  41.2043690
  10.8399020  85.7016710  41.4346250  15.2483310  73.9208740  51.2229510
  14.6327580  74.4288410  50.6944970  14.9279730  73.0207070  51.1655450
   3.0227820  69.8932110  43.0856380   2.5795970  70.6741650  42.7540900
   3.5812810  70.2162000  43.7927320   7.3097630  72.7600630  48.6891700
   6.8477000  72.9683650  49.5011640   6.9075740  71.9459980  48.3862370
  12.3102140  73.9809580  49.8188360  11.4595730  73.6815330  50.1397430
  12.1503930  74.2251590  48.9072180   9.4051850  75.4811330  51.9187150
   9.7305260  74.6475080  51.5789380  10.1932180  76.0039850  52.0665480
   6.1386640  69.5142810  37.9662210   5.5140820  69.5102680  38.6915520
   6.0516760  68.6473770  37.5698180   5.0603720  70.4379440  44.9445980
   5.3576050  71.3442270  44.8638000   5.6089280  69.9498220  44.3305550
   2.8142040  75.0165680  40.8137630   2.5882960  74.8002850  41.7184250
   2.0334570  75.4494140  40.4683600  10.0439800  75.0229050  39.4128280
   9.4448690  75.7464850  39.2291900  10.5919410  74.9605830  38.6304730
   5.2541250  75.9151260  51.4797900   5.1584850  74.9745990  51.3298300
   6.0973230  76.1366330  51.0845970   8.6504670  73.6592590  41.4431560
   9.0434240  73.9764790  40.6300250   9.0121520  72.7804470  41.5576080
   6.9596840  72.4099900  52.7028420   6.2695160  72.2172100  53.3374510
   7.7029140  72.6934540  53.2352720   9.2359810  76.2498340  45.5382340
   8.5040930  76.7585150  45.8872440   8.8384150  75.4328320  45.2371120
   5.6737200  72.9252540  43.9434830   5.6773260  72.4842490  43.0939370
   6.5688320  73.2469870  44.0506650   5.7357350  73.9264620  36.9341590
   5.8570170  73.8851100  37.8827410   5.3505860  74.7888770  36.7788320
   9.6985720  71.7032020  44.9505280   9.7158460  72.1540670  45.7947130
   9.4501300  70.8037660  45.1638720   4.7478850  76.2365760  36.3324890
   4.1795750  75.7884010  35.7060800   5.4567850  76.5958540  35.7990040
  13.1256470  69.1164200  50.7891660  13.4502240  68.3853860  51.3149640
  13.1612980  68.7977840  49.8872650   5.9745170  76.9854320  45.6900240
   6.3415300  76.5112890  46.4361580   5.7850230  77.8595890  46.0308580
   3.7644540  76.0262960  48.0084450   3.4601610  76.9054940  48.2334810
   4.7191000  76.0862750  48.0441890   2.2926330  80.2323950  38.6051300
   1.5188590  79.6921570  38.4450020   3.0220960  79.7130560  38.2669060
  13.0514310  79.2289310  44.3977690  13.7713430  79.7244600  44.0073800
  12.8496130  78.5507200  43.7531560   8.5124250  70.6227270  38.5407080
   7.6988860  70.1240440  38.4652390   8.3186200  71.4625520  38.1243430
   8.4333110  79.2998370  50.2846690   8.3670420  78.3794040  50.0304280
   7.8038250  79.3973810  50.9991330  11.2272640  74.9946920  36.8369240
  12.1152260  75.3064150  36.6620580  11.1977730  74.1219170  36.4449820
   2.3363730  79.9004330  42.2430110   2.8542400  79.0972590  42.1887000
   1.8847750  79.8383470  43.0846940   7.2233230  81.1670610  37.5157410
   7.5648930  81.9112840  37.0200730   6.3945940  81.4801730  37.8782240
   3.0221390  77.3249940  52.0395360   2.7221530  77.4707120  51.1423180
   3.7932630  76.7655230  51.9468750   8.3649840  82.1218940  50.0350490
   8.3794380  81.1899900  49.8169400   7.6574940  82.2078700  50.6740260
  13.4986910  76.3058760  36.3049100  13.4150630  76.7372980  35.4545540
  14.2181100  76.7657110  36.7375920  14.5761050  78.7626280  49.3819070
  13.8509240  79.3555060  49.1848460  15.1036510  78.7549820  48.5832440
  14.5274160  83.1601020  39.0331230  13.8850320  82.5056640  39.3074950
  14.1404820  83.5656110  38.2571900  10.1060640  80.4886450  42.8802920
  10.4584460  79.8914580  42.2204290   9.2222970  80.1630680  43.0511170
   6.1923920  81.2484140  40.2873330   6.8795050  81.7953350  40.6680920
   5.4056340  81.7924870  40.3222940   5.4951130  78.2530170  39.8998690
   5.9513910  79.0635420  40.1258880   5.1439340  77.9353310  40.7317180
   7.7983740  83.7636510  47.1290990   8.4425960  83.9695890  47.8064410
   8.1613180  83.0024910  46.6761840   9.0715820  81.7668860  45.8468440
   9.7138050  81.0662020  45.9600610   9.5965170  82.5467300  45.6665330
  12.9171540  82.0517480  35.5707580  12.6909120  81.3347920  36.1632220
  12.5267740  81.8029920  34.7329330  10.8453440  82.5663760  49.0504500
  11.1809680  83.1530450  49.7282420   9.9253780  82.4356470  49.2802290
  12.4987790  79.9689420  37.2321740  12.2109490  80.4302110  38.0199620
  13.2939960  79.5087190  37.5005960   6.6742020  82.6155090  52.2192560
   6.3538890  81.8964330  52.7638250   6.0000380  83.2910160  52.2928620
   4.7156190  83.4615540  37.1625710   4.7066290  84.1945230  36.5470220
   3.7954550  83.2147120  37.2552670   9.8895620  72.8481250  47.5829360
  10.2576440  72.0276460  47.9108930   9.0293820  72.9083140  47.9985010
  13.2557650  71.8038190  38.3916920  12.6270810  71.9083860  37.6775150
  12.7609570  72.0234970  39.1810800   7.7015790  83.5243780  35.8250900
   7.8027770  83.3207770  34.8952880   6.8017530  83.2702060  36.0298680
   5.2241680  74.0824140  39.8074800   4.5157830  74.5510480  40.2488410
   5.5086160  73.4246150  40.4419990   6.8497610  75.5020840  47.8067330
   7.3482860  75.9766660  48.4719180   6.9920560  74.5784360  48.0137360
   9.2557110  70.8074800  41.2470590   9.1324890  70.8260930  40.2980100
  10.2041670  70.8553740  41.3668990   6.3433900  86.0430100  40.5198570
   6.5975400  86.0051490  39.5977940   5.3946380  85.9163430  40.5126820
   3.4276700  72.3909220  37.1825510   4.2767230  72.8279370  37.1165700
   3.0607970  72.7029480  38.0097570  14.0564470  71.7188800  48.6495720
  13.5538070  72.4594200  48.9889530  14.8721130  72.1072800  48.3332510
  12.3486480  76.9621980  42.0957080  11.4076620  76.9772210  42.2704770
  12.6630550  76.1757940  42.5417380   2.3268120  78.6441580  35.6561040
   3.0931390  78.5322940  36.2186470   2.4042810  77.9479550  35.0037810
  14.3512060  84.1330830  43.7711340  14.4759480  84.9562000  44.2435150
  15.2177620  83.9221560  43.4235490   1.8229590  86.2262040  43.4428470
   2.5592070  85.6777500  43.7137040   2.2070510  87.0918050  43.3034460
   4.9331900  85.3992350  35.2654040   5.7260510  85.6881180  34.8135830
   4.4136250  84.9684520  34.5866520   9.6652500  81.5187980  52.5789460
   9.0590660  81.5419580  51.8385210   9.3606610  80.7871020  53.1156710
  11.0952870  85.2468270  51.1898870  12.0474620  85.1626290  51.1399110
  10.9481090  85.9109980  51.8632660  13.9862070  84.6262480  36.6890780
  13.7003580  84.2127620  35.8744960  13.7881620  85.5550190  36.5691300
   5.4509300  80.6195760  35.1296390   5.3459940  80.0048110  35.8557770
   5.2833520  80.0961650  34.3459400   5.6023620  79.3052560  51.1085620
   4.8369290  79.8737560  51.0240290   5.7839580  79.0128770  50.2153850
   8.6912030  79.6815790  35.7338380   8.1422130  80.1285090  36.3781120
   9.3131290  79.1765040  36.2576050  12.7446970  81.0357890  51.6660640
  13.4856440  81.3733650  51.1628100  11.9819650  81.2049950  51.1130410
   4.3587150  78.6406710  37.6303680   4.7803570  78.4746580  38.4735070
   4.4837990  77.8306940  37.1358820   2.5214570  74.6203260  50.4374660
   1.9911030  74.1294210  49.8098000   3.1902640  75.0487460  49.9032590
   6.8714790  77.6644320  34.8780780   7.3920450  76.9493340  34.5121930
   7.5183190  78.3030190  35.1781290  11.4192630  79.0872720  50.2015850
  11.8333650  79.2417800  51.0506270  10.4843630  79.2127940  50.3641630
  11.8914800  76.4268880  52.2055000  12.4735570  75.6721200  52.1175480
  12.0676570  76.9576320  51.4286480   3.0086870  71.5865630  50.5171950
   2.9143740  70.9686380  49.7922820   2.4284260  72.3131920  50.2901860
   5.7748310  70.1438870  47.5499340   5.3265610  70.1663130  46.7044890
   5.1413510  69.7457890  48.1469640   6.1807860  79.0393200  48.1711780
   6.5995970  79.8825930  47.9988020   5.2616490  79.1765240  47.9418560
   8.5171760  76.7709380  49.5549620   8.6367970  76.1750520  50.2944460
   9.3765760  76.8079070  49.1350920  10.8559660  77.3246570  48.1312130
  10.3294880  77.8489190  47.5277270  11.1991000  77.9573960  48.7621860
   3.2546050  74.7139940  34.5761840   3.0535110  73.8507300  34.9375180
   3.0838100  74.6273300  33.6383440   4.0315280  85.3446210  49.2869510
   3.4936370  86.0692270  48.9678210   4.2849240  84.8676550  48.4966850
   5.2840530  73.3130730  50.8125440   5.8740220  73.0046580  51.5003260
   4.4660770  72.8410480  50.9685340  10.1033960  72.9296540  51.0458460
   9.4149480  72.2678080  50.9808450  10.8239980  72.4834810  51.4906920
  10.7334360  69.5248170  37.1048720  11.0136650  68.6816070  37.4608140
   9.9600090  69.7571280  37.6187470   2.0528850  71.8140560  34.5639720
   2.3554750  71.8207990  33.6558870   2.7923440  71.4638420  35.0607380
   6.8877490  86.5797420  49.5456160   6.8136190  87.4832560  49.8528530
   5.9856330  86.2609320  49.5178230   5.2713780  70.7575180  35.5495920
   4.9235780  70.0799170  34.9698370   5.4726550  70.2964690  36.3639310
   7.4362820  85.7455930  37.1682520   8.3313610  86.0840900  37.1901280
   7.4680450  85.0235340  36.5406800   2.8866700  82.2381020  40.5091750
   2.5862240  82.1145990  41.4095660   2.7804190  81.3789610  40.1007480
  14.4157170  84.2759600  49.8748720  13.8159160  84.3352160  49.1312640
  14.5451070  83.3364580  50.0045570  15.6558620  82.0177420  35.2118430
  14.8251580  82.0854070  35.6825660  15.8330450  82.9081540  34.9085290
  15.1115080  78.7624900  37.7152630  15.8733990  79.3321550  37.8212320
  15.1269450  78.1952100  38.4860940  16.1175050  79.6175000  42.5594560
  16.4883880  78.8342320  42.1530530  16.7576980  80.3064100  42.3811860
  13.1008810  81.0011580  47.9724880  12.2868650  81.4308740  48.2350670
  13.5083010  81.6129990  47.3593930  15.1634250  79.0559270  34.8725150
  15.4383090  79.9638150  34.7444370  14.9744990  78.9921800  35.8087140
  11.5609860  72.0804120  36.1678780  11.9794740  71.8935100  35.3275440
  11.2545920  71.2283170  36.4781710  15.0599590  76.9928260  39.8654580
  14.6843190  76.2256190  39.4335870  14.3302710  77.3750960  40.3529510
  14.4499210  76.1399780  49.4994100  14.2185300  75.9112530  48.5992050
  14.7103760  77.0599330  49.4538990  12.8887280  71.3656210  52.2773800
  13.7657460  71.3739610  52.6607800  12.9008120  70.6287050  51.6666150
  14.3350550  75.2185750  43.1661820  14.8588030  74.7248400  42.5351990
  14.9209970  75.3536110  43.9109390  14.5140270  75.3025620  46.6881370
  13.5642980  75.2689160  46.8026360  14.6953280  76.2125730  46.4531140
  13.8250520  74.4759100  39.1054230  14.3209640  74.2429970  39.8903110
  13.6266590  73.6370940  38.6891870  15.2537680  73.1120050  41.6391910
  15.1436960  72.9576090  42.5774180  16.0145270  72.5840990  41.3967320
  13.6003400  69.0514180  48.0974910  14.2375620  69.6648320  48.4634100
  13.7478290  69.0874840  47.1524140  16.1427950  70.9427970  34.8798050
  17.0677260  70.8109150  34.6716340  16.1203740  71.0220790  35.8334500
  16.2166440  71.7138630  37.5054760  15.4217940  71.6483750  38.0347670
  16.4209720  72.6489270  37.4940110  13.1584860  85.7530180  41.4993150
  13.7543930  85.4314750  40.8227570  13.4163010  85.2802000  42.2906420
   4.7653460  83.7407680  47.2493500   4.5244820  84.0082240  46.3624020
   5.7056100  83.9113410  47.3044360   6.9707880  70.2040370  51.0050010
   6.9096770  70.7962200  51.7545420   7.9108260  70.0966330  50.8600270
   9.6082440  69.8610430  50.6442300  10.2222850  70.1789720  49.9823380
  10.1532000  69.3759020  51.2638160  16.0257620  85.7602060  48.0504140
  15.5315900  86.1570930  47.3331270  15.4170910  85.1351270  48.4441420
  10.3490480  68.4242570  46.9711590   9.4750320  68.7577680  46.7684520
  10.2401230  67.9515750  47.7963460  11.2562460  70.6313440  48.3553310
  10.9275820  69.8165200  47.9755040  12.2044760  70.5883250  48.2319000
  13.7097070  86.4025480  45.3290880  13.2500040  87.1541290  44.9548900
  13.0809530  85.6831950  45.2705680   4.1392790  84.7113720  44.5039010
   4.6557810  84.1001080  43.9787270   4.7890170  85.2142500  44.9950020
   6.8788290  85.6022210  45.3307990   7.1666100  85.3476510  44.4541000
   7.3911510  85.0499570  45.9213560   8.0965300  69.3412410  45.9104500
   7.3137090  69.8157910  46.1901260   7.8028230  68.4367240  45.8017680
  12.6486370  70.0435510  43.9553590  13.0894460  69.9880610  43.1075190
  12.3793960  70.9593520  44.0263770  14.5124940  69.6750750  41.9662410
  14.4513340  68.7311970  41.8193430  15.2916970  69.7830840  42.5115870
   5.9819520  71.7599160  41.4220530   5.1694030  71.3856050  41.0816410
   6.4861160  71.0044240  41.7241720  10.4844500  68.4241610  42.6603600
  11.0873870  68.9961820  43.1352120   9.7437490  68.9881050  42.4377500
  13.6279100  68.8263170  37.9343880  13.8229730  69.7246620  38.2011310
  12.8408970  68.5950250  38.4276830   1.8130860  70.1723940  36.9720190
   2.3423620  69.3853740  36.8428140   2.4459180  70.8515130  37.2055720
   4.0068700  69.9099080  40.0265580   3.3771440  69.2086390  40.1935710
   3.4673840  70.6703210  39.8098740   6.9460650  86.5238310  52.6976190
   7.8727960  86.2882580  52.7412150   6.9311080  87.3510310  52.2162220
  15.1805710  86.0663880  39.6950440  15.3557900  85.3801620  39.0511360
  14.4827280  86.5910930  39.3027110   4.1324260  69.1883060  52.4618070
   3.8508530  69.6916660  51.6978890   4.5143960  68.3904810  52.0960200
   3.0233360  86.4558720  37.2485750   3.7552180  86.1718000  36.7009640
   3.2827030  86.2172000  38.1385130   2.1848150  82.5723450  37.2532080
   1.5557030  83.0408550  37.8017910   2.2995980  81.7272670  37.6878270
  10.7339720  68.6036640  53.0398540  10.6205170  68.9231250  53.9350060
  11.5509460  69.0049150  52.7435820  13.5138210  85.7508170  52.5217230
  14.3063530  85.2557400  52.3143190  13.8071360  86.4298310  53.1292840
   9.6397870  76.6229110  23.4033280   9.5591920  75.7083720  23.1324990
   9.2262290  77.1196180  22.6972990   7.7715910  78.4008130  25.2842550
   6.9958010  77.9208570  25.5741120   8.4228840  77.7213780  25.1098710
  11.7923340  82.8068320  24.0641680  11.3304870  82.0355560  24.3928850
  12.6048890  82.8334390  24.5694130   1.7683000  82.7468030  26.3576330
   2.0711040  81.8565770  26.1786550   2.5126590  83.3038250  26.1298580
   8.0186650  85.0926330  23.6845670   7.3998090  85.5483830  23.1140110
   8.8738430  85.2477790  23.2835370   7.2124900  81.0765320  25.2912710
   7.1433180  80.1355260  25.1301840   7.9744760  81.1666730  25.8635280
   8.2430070  73.8835700  25.5181640   8.6194890  73.0107580  25.4055310
   8.1449580  74.2194400  24.6272080   2.3735080  72.2561330  20.9799080
   2.4801830  73.1565060  21.2867840   1.4627440  72.2079300  20.6893730
  12.0254190  71.3786140  22.4509980  12.8463810  70.8882710  22.4935460
  12.0588270  71.9683800  23.2041820   4.2142810  75.2247700  25.3124260
   4.7221030  75.7228670  25.9529280   4.7456050  74.4482900  25.1363620
  16.3153740  73.3952890  29.0153610  15.6105910  73.7834600  28.4968720
  16.5811660  74.0903180  29.6174540   2.4978910  69.8646260  29.5787680
   2.4997350  70.3818650  28.7733580   1.6683220  69.3876440  29.5557610
   8.8850000  79.9765570  21.0777580   8.2667270  80.4415020  20.5140300
   9.3973250  80.6693050  21.4947090   3.7481760  79.5041440  27.7561180
   3.4151140  80.1310360  28.3982250   3.9248440  80.0303320  26.9762850
  12.2615670  73.3186520  25.2237520  11.5571240  73.6071410  25.8040630
  12.6227830  74.1286630  24.8637080   2.1794240  71.5756220  27.5858130
   2.5211050  72.4198270  27.2912000   1.2410050  71.7239960  27.7023470
   2.9600860  81.4722240  29.5710360   3.5774860  82.1473320  29.2894810
   2.0993980  81.8810220  29.4797860  13.8778450  82.9361650  27.4865000
  13.1941970  83.6060760  27.4781670  14.4172740  83.1342300  26.7209860
  15.3302590  72.7641310  25.6146730  14.3827500  72.7980290  25.7462160
  15.6552580  73.5780260  25.9996090   5.8622130  69.0638490  23.9102720
   6.1697110  68.5085380  23.1938220   4.9322830  69.1982950  23.7275710
  11.4137190  84.7805780  26.2010180  11.4264350  84.3768070  25.3332440
  10.8612410  85.5553070  26.0971610  12.7082610  81.5022000  21.2900350
  12.5978940  80.5596330  21.4149770  12.7050860  81.8637640  22.1763110
  10.8122630  79.6835620  27.5292790  11.2291420  79.4695730  26.6946250
  11.5362450  79.9408410  28.1001410   8.2502890  77.1287320  20.6462840
   7.3232170  77.0624700  20.8751310   8.4027710  78.0667450  20.5318080
   8.2371970  73.4004320  17.6430000   7.2975640  73.5618280  17.7282460
   8.5555230  74.1190000  17.0965990  14.7584730  78.0822840  27.6209030
  13.9303360  78.1515930  27.1459160  15.3535210  78.6677150  27.1524860
  12.2800180  78.6907620  21.1498090  11.6612600  78.3527170  20.5024390
  12.2624630  78.0467380  21.8577280  11.7226740  74.8692160  28.5663900
  11.3097920  75.6945870  28.8203890  10.9902690  74.2837200  28.3740260
   3.8559530  77.6552060  23.4282570   3.4516530  76.9429310  22.9328470
   3.9422650  77.3105300  24.3170610   4.3241230  81.3419620  25.5921780
   4.0269520  80.7365090  24.9129560   5.2741050  81.3796930  25.4811140
   2.5688150  74.4295270  27.2081610   3.1202740  74.5390610  26.4334860
   3.0831660  74.8032870  27.9236840  12.4126840  84.9151490  29.2544880
  11.9357400  85.7223680  29.0617490  11.7288630  84.2629820  29.4071090
   3.4159660  81.0801310  32.2429580   2.5188190  81.3041280  32.4902980
   3.4412530  81.2036250  31.2940980  10.4564880  77.9294430  18.1570840
  10.8958160  77.0916860  18.0108660  11.1693300  78.5623830  18.2434980
   2.2430880  77.9514630  30.8186950   2.1038650  78.8237430  31.1874350
   1.3612240  77.6087440  30.6734890   8.5660260  82.8690500  22.1252080
   9.0056170  83.6114830  21.7107470   8.5047150  83.1117070  23.0491040
   4.0411230  83.8936330  33.0272100   4.0126660  84.2979280  32.1600530
   3.8776200  82.9646690  32.8643700  14.0382020  69.1837240  16.4711880
  13.7254680  69.2764070  17.3710950  14.7994490  69.7618270  16.4209310
  15.9926050  84.6763430  34.3236270  16.4685770  85.1546320  35.0025350
  16.6133210  84.6080920  33.5981770  15.3959300  81.8676280  31.4836280
  15.5222360  81.6288160  30.5653460  15.4380680  81.0360820  31.9558360
   9.2576040  85.5704280  30.0531090   9.7720710  85.4812290  30.8553520
   8.4145120  85.9163980  30.3459000  11.2330440  85.8559620  19.4815090
  11.0731580  85.5662560  20.3796920  11.0677150  85.0799750  18.9460320
   3.7118820  85.6358150  21.2586710   3.5361300  84.7193690  21.0454510
   2.8574560  85.9945440  21.4984510  10.9356570  83.3647180  18.0413090
  10.2421730  83.3624470  17.3815370  11.6779430  82.9406500  17.6107260
  10.5006500  84.9909890  22.1161580  10.9563450  84.2099270  22.4300200
  10.8399020  85.7016710  22.6602760  15.2483310  73.9208740  32.4486020
  14.6327580  74.4288410  31.9201480  14.9279730  73.0207070  32.3911960
   3.0227820  69.8932110  24.3112890   2.5795970  70.6741650  23.9797410
   3.5812810  70.2162000  25.0183830   7.3097630  72.7600630  29.9148210
   6.8477000  72.9683650  30.7268150   6.9075740  71.9459980  29.6118880
  12.3102140  73.9809580  31.0444870  11.4595730  73.6815330  31.3653940
  12.1503930  74.2251590  30.1328690   9.4051850  75.4811330  33.1443660
   9.7305260  74.6475080  32.8045890  10.1932180  76.0039850  33.2921990
   6.1386640  69.5142810  19.1918720   5.5140820  69.5102680  19.9172030
   6.0516760  68.6473770  18.7954690   5.0603720  70.4379440  26.1702490
   5.3576050  71.3442270  26.0894510   5.6089280  69.9498220  25.5562060
   2.8142040  75.0165680  22.0394140   2.5882960  74.8002850  22.9440760
   2.0334570  75.4494140  21.6940110  10.0439800  75.0229050  20.6384790
   9.4448690  75.7464850  20.4548410  10.5919410  74.9605830  19.8561240
   5.2541250  75.9151260  32.7054410   5.1584850  74.9745990  32.5554810
   6.0973230  76.1366330  32.3102480   8.6504670  73.6592590  22.6688070
   9.0434240  73.9764790  21.8556760   9.0121520  72.7804470  22.7832590
   6.9596840  72.4099900  33.9284930   6.2695160  72.2172100  34.5631020
   7.7029140  72.6934540  34.4609230   9.2359810  76.2498340  26.7638850
   8.5040930  76.7585150  27.1128950   8.8384150  75.4328320  26.4627630
   5.6737200  72.9252540  25.1691340   5.6773260  72.4842490  24.3195880
   6.5688320  73.2469870  25.2763160   5.7357350  73.9264620  18.1598100
   5.8570170  73.8851100  19.1083920   5.3505860  74.7888770  18.0044830
   9.6985720  71.7032020  26.1761790   9.7158460  72.1540670  27.0203640
   9.4501300  70.8037660  26.3895230   4.7478850  76.2365760  17.5581400
   4.1795750  75.7884010  16.9317310   5.4567850  76.5958540  17.0246550
  13.1256470  69.1164200  32.0148170  13.4502240  68.3853860  32.5406150
  13.1612980  68.7977840  31.1129160   5.9745170  76.9854320  26.9156750
   6.3415300  76.5112890  27.6618090   5.7850230  77.8595890  27.2565090
   3.7644540  76.0262960  29.2340960   3.4601610  76.9054940  29.4591320
   4.7191000  76.0862750  29.2698400   2.2926330  80.2323950  19.8307810
   1.5188590  79.6921570  19.6706530   3.0220960  79.7130560  19.4925570
  13.0514310  79.2289310  25.6234200  13.7713430  79.7244600  25.2330310
  12.8496130  78.5507200  24.9788070   8.5124250  70.6227270  19.7663590
   7.6988860  70.1240440  19.6908900   8.3186200  71.4625520  19.3499940
   8.4333110  79.2998370  31.5103200   8.3670420  78.3794040  31.2560790
   7.8038250  79.3973810  32.2247840  11.2272640  74.9946920  18.0625750
  12.1152260  75.3064150  17.8877090  11.1977730  74.1219170  17.6706330
   2.3363730  79.9004330  23.4686620   2.8542400  79.0972590  23.4143510
   1.8847750  79.8383470  24.3103450   7.2233230  81.1670610  18.7413920
   7.5648930  81.9112840  18.2457240   6.3945940  81.4801730  19.1038750
   3.0221390  77.3249940  33.2651870   2.7221530  77.4707120  32.3679690
   3.7932630  76.7655230  33.1725260   8.3649840  82.1218940  31.2607000
   8.3794380  81.1899900  31.0425910   7.6574940  82.2078700  31.8996770
  13.4986910  76.3058760  17.5305610  13.4150630  76.7372980  16.6802050
  14.2181100  76.7657110  17.9632430  14.5761050  78.7626280  30.6075580
  13.8509240  79.3555060  30.4104970  15.1036510  78.7549820  29.8088950
  14.5274160  83.1601020  20.2587740  13.8850320  82.5056640  20.5331460
  14.1404820  83.5656110  19.4828410  10.1060640  80.4886450  24.1059430
  10.4584460  79.8914580  23.4460800   9.2222970  80.1630680  24.2767680
   6.1923920  81.2484140  21.5129840   6.8795050  81.7953350  21.8937430
   5.4056340  81.7924870  21.5479450   5.4951130  78.2530170  21.1255200
   5.9513910  79.0635420  21.3515390   5.1439340  77.9353310  21.9573690
   7.7983740  83.7636510  28.3547500   8.4425960  83.9695890  29.0320920
   8.1613180  83.0024910  27.9018350   9.0715820  81.7668860  27.0724950
   9.7138050  81.0662020  27.1857120   9.5965170  82.5467300  26.8921840
  12.9171540  82.0517480  16.7964090  12.6909120  81.3347920  17.3888730
  12.5267740  81.8029920  15.9585840  10.8453440  82.5663760  30.2761010
  11.1809680  83.1530450  30.9538930   9.9253780  82.4356470  30.5058800
  12.4987790  79.9689420  18.4578250  12.2109490  80.4302110  19.2456130
  13.2939960  79.5087190  18.7262470   6.6742020  82.6155090  33.4449070
   6.3538890  81.8964330  33.9894760   6.0000380  83.2910160  33.5185130
   4.7156190  83.4615540  18.3882220   4.7066290  84.1945230  17.7726730
   3.7954550  83.2147120  18.4809180   9.8895620  72.8481250  28.8085870
  10.2576440  72.0276460  29.1365440   9.0293820  72.9083140  29.2241520
  13.2557650  71.8038190  19.6173430  12.6270810  71.9083860  18.9031660
  12.7609570  72.0234970  20.4067310   7.7015790  83.5243780  17.0507410
   7.8027770  83.3207770  16.1209390   6.8017530  83.2702060  17.2555190
   5.2241680  74.0824140  21.0331310   4.5157830  74.5510480  21.4744920
   5.5086160  73.4246150  21.6676500   6.8497610  75.5020840  29.0323840
   7.3482860  75.9766660  29.6975690   6.9920560  74.5784360  29.2393870
   9.2557110  70.8074800  22.4727100   9.1324890  70.8260930  21.5236610
  10.2041670  70.8553740  22.5925500   6.3433900  86.0430100  21.7455080
   6.5975400  86.0051490  20.8234450   5.3946380  85.9163430  21.7383330
   3.4276700  72.3909220  18.4082020   4.2767230  72.8279370  18.3422210
   3.0607970  72.7029480  19.2354080  14.0564470  71.7188800  29.8752230
  13.5538070  72.4594200  30.2146040  14.8721130  72.1072800  29.5589020
  12.3486480  76.9621980  23.3213590  11.4076620  76.9772210  23.4961280
  12.6630550  76.1757940  23.7673890   2.3268120  78.6441580  16.8817550
   3.0931390  78.5322940  17.4442980   2.4042810  77.9479550  16.2294320
  14.3512060  84.1330830  24.9967850  14.4759480  84.9562000  25.4691660
  15.2177620  83.9221560  24.6492000   1.8229590  86.2262040  24.6684980
   2.5592070  85.6777500  24.9393550   2.2070510  87.0918050  24.5290970
   4.9331900  85.3992350  16.4910550   5.7260510  85.6881180  16.0392340
   4.4136250  84.9684520  15.8123030   9.6652500  81.5187980  33.8045970
   9.0590660  81.5419580  33.0641720   9.3606610  80.7871020  34.3413220
  11.0952870  85.2468270  32.4155380  12.0474620  85.1626290  32.3655620
  10.9481090  85.9109980  33.0889170  13.9862070  84.6262480  17.9147290
  13.7003580  84.2127620  17.1001470  13.7881620  85.5550190  17.7947810
   5.4509300  80.6195760  16.3552900   5.3459940  80.0048110  17.0814280
   5.2833520  80.0961650  15.5715910   5.6023620  79.3052560  32.3342130
   4.8369290  79.8737560  32.2496800   5.7839580  79.0128770  31.4410360
   8.6912030  79.6815790  16.9594890   8.1422130  80.1285090  17.6037630
   9.3131290  79.1765040  17.4832560  12.7446970  81.0357890  32.8917150
  13.4856440  81.3733650  32.3884610  11.9819650  81.2049950  32.3386920
   4.3587150  78.6406710  18.8560190   4.7803570  78.4746580  19.6991580
   4.4837990  77.8306940  18.3615330   2.5214570  74.6203260  31.6631170
   1.9911030  74.1294210  31.0354510   3.1902640  75.0487460  31.1289100
   6.8714790  77.6644320  16.1037290   7.3920450  76.9493340  15.7378440
   7.5183190  78.3030190  16.4037800  11.4192630  79.0872720  31.4272360
  11.8333650  79.2417800  32.2762780  10.4843630  79.2127940  31.5898140
  11.8914800  76.4268880  33.4311510  12.4735570  75.6721200  33.3431990
  12.0676570  76.9576320  32.6542990   3.0086870  71.5865630  31.7428460
   2.9143740  70.9686380  31.0179330   2.4284260  72.3131920  31.5158370
   5.7748310  70.1438870  28.7755850   5.3265610  70.1663130  27.9301400
   5.1413510  69.7457890  29.3726150   6.1807860  79.0393200  29.3968290
   6.5995970  79.8825930  29.2244530   5.2616490  79.1765240  29.1675070
   8.5171760  76.7709380  30.7806130   8.6367970  76.1750520  31.5200970
   9.3765760  76.8079070  30.3607430  10.8559660  77.3246570  29.3568640
  10.3294880  77.8489190  28.7533780  11.1991000  77.9573960  29.9878370
   3.2546050  74.7139940  15.8018350   3.0535110  73.8507300  16.1631690
   3.0838100  74.6273300  14.8639950   4.0315280  85.3446210  30.5126020
   3.4936370  86.0692270  30.1934720   4.2849240  84.8676550  29.7223360
   5.2840530  73.3130730  32.0381950   5.8740220  73.0046580  32.7259770
   4.4660770  72.8410480  32.1941850  10.1033960  72.9296540  32.2714970
   9.4149480  72.2678080  32.2064960  10.8239980  72.4834810  32.7163430
  10.7334360  69.5248170  18.3305230  11.0136650  68.6816070  18.6864650
   9.9600090  69.7571280  18.8443980   2.0528850  71.8140560  15.7896230
   2.3554750  71.8207990  14.8815380   2.7923440  71.4638420  16.2863890
   6.8877490  86.5797420  30.7712670   6.8136190  87.4832560  31.0785040
   5.9856330  86.2609320  30.7434740   5.2713780  70.7575180  16.7752430
   4.9235780  70.0799170  16.1954880   5.4726550  70.2964690  17.5895820
   7.4362820  85.7455930  18.3939030   8.3313610  86.0840900  18.4157790
   7.4680450  85.0235340  17.7663310   2.8866700  82.2381020  21.7348260
   2.5862240  82.1145990  22.6352170   2.7804190  81.3789610  21.3263990
  14.4157170  84.2759600  31.1005230  13.8159160  84.3352160  30.3569150
  14.5451070  83.3364580  31.2302080  15.6558620  82.0177420  16.4374940
  14.8251580  82.0854070  16.9082170  15.8330450  82.9081540  16.1341800
  15.1115080  78.7624900  18.9409140  15.8733990  79.3321550  19.0468830
  15.1269450  78.1952100  19.7117450  16.1175050  79.6175000  23.7851070
  16.4883880  78.8342320  23.3787040  16.7576980  80.3064100  23.6068370
  13.1008810  81.0011580  29.1981390  12.2868650  81.4308740  29.4607180
  13.5083010  81.6129990  28.5850440  15.1634250  79.0559270  16.0981660
  15.4383090  79.9638150  15.9700880  14.9744990  78.9921800  17.0343650
  11.5609860  72.0804120  17.3935290  11.9794740  71.8935100  16.5531950
  11.2545920  71.2283170  17.7038220  15.0599590  76.9928260  21.0911090
  14.6843190  76.2256190  20.6592380  14.3302710  77.3750960  21.5786020
  14.4499210  76.1399780  30.7250610  14.2185300  75.9112530  29.8248560
  14.7103760  77.0599330  30.6795500  12.8887280  71.3656210  33.5030310
  13.7657460  71.3739610  33.8864310  12.9008120  70.6287050  32.8922660
  14.3350550  75.2185750  24.3918330  14.8588030  74.7248400  23.7608500
  14.9209970  75.3536110  25.1365900  14.5140270  75.3025620  27.9137880
  13.5642980  75.2689160  28.0282870  14.6953280  76.2125730  27.6787650
  13.8250520  74.4759100  20.3310740  14.3209640  74.2429970  21.1159620
  13.6266590  73.6370940  19.9148380  15.2537680  73.1120050  22.8648420
  15.1436960  72.9576090  23.8030690  16.0145270  72.5840990  22.6223830
  13.6003400  69.0514180  29.3231420  14.2375620  69.6648320  29.6890610
  13.7478290  69.0874840  28.3780650  16.1427950  70.9427970  16.1054560
  17.0677260  70.8109150  15.8972850  16.1203740  71.0220790  17.0591010
  16.2166440  71.7138630  18.7311270  15.4217940  71.6483750  19.2604180
  16.4209720  72.6489270  18.7196620  13.1584860  85.7530180  22.7249660
  13.7543930  85.4314750  22.0484080  13.4163010  85.2802000  23.5162930
   4.7653460  83.7407680  28.4750010   4.5244820  84.0082240  27.5880530
   5.7056100  83.9113410  28.5300870   6.9707880  70.2040370  32.2306520
   6.9096770  70.7962200  32.9801930   7.9108260  70.0966330  32.0856780
   9.6082440  69.8610430  31.8698810  10.2222850  70.1789720  31.2079890
  10.1532000  69.3759020  32.4894670  16.0257620  85.7602060  29.2760650
  15.5315900  86.1570930  28.5587780  15.4170910  85.1351270  29.6697930
  10.3490480  68.4242570  28.1968100   9.4750320  68.7577680  27.9941030
  10.2401230  67.9515750  29.0219970  11.2562460  70.6313440  29.5809820
  10.9275820  69.8165200  29.2011550  12.2044760  70.5883250  29.4575510
  13.7097070  86.4025480  26.5547390  13.2500040  87.1541290  26.1805410
  13.0809530  85.6831950  26.4962190   4.1392790  84.7113720  25.7295520
   4.6557810  84.1001080  25.2043780   4.7890170  85.2142500  26.2206530
   6.8788290  85.6022210  26.5564500   7.1666100  85.3476510  25.6797510
   7.3911510  85.0499570  27.1470070   8.0965300  69.3412410  27.1361010
   7.3137090  69.8157910  27.4157770   7.8028230  68.4367240  27.0274190
  12.6486370  70.0435510  25.1810100  13.0894460  69.9880610  24.3331700
  12.3793960  70.9593520  25.2520280  14.5124940  69.6750750  23.1918920
  14.4513340  68.7311970  23.0449940  15.2916970  69.7830840  23.7372380
   5.9819520  71.7599160  22.6477040   5.1694030  71.3856050  22.3072920
   6.4861160  71.0044240  22.9498230  10.4844500  68.4241610  23.8860110
  11.0873870  68.9961820  24.3608630   9.7437490  68.9881050  23.6634010
  13.6279100  68.8263170  19.1600390  13.8229730  69.7246620  19.4267820
  12.8408970  68.5950250  19.6533340   1.8130860  70.1723940  18.1976700
   2.3423620  69.3853740  18.0684650   2.4459180  70.8515130  18.4312230
   4.0068700  69.9099080  21.2522090   3.3771440  69.2086390  21.4192220
   3.4673840  70.6703210  21.0355250   6.9460650  86.5238310  33.9232700
   7.8727960  86.2882580  33.9668660   6.9311080  87.3510310  33.4418730
  15.1805710  86.0663880  20.9206950  15.3557900  85.3801620  20.2767870
  14.4827280  86.5910930  20.5283620   4.1324260  69.1883060  33.6874580
   3.8508530  69.6916660  32.9235400   4.5143960  68.3904810  33.3216710
   3.0233360  86.4558720  18.4742260   3.7552180  86.1718000  17.9266150
   3.2827030  86.2172000  19.3641640   2.1848150  82.5723450  18.4788590
   1.5557030  83.0408550  19.0274420   2.2995980  81.7272670  18.9134780
  10.7339720  68.6036640  34.2655050  10.6205170  68.9231250  35.1606570
  11.5509460  69.0049150  33.9692330  13.5138210  85.7508170  33.7473740
  14.3063530  85.2557400  33.5399700  13.8071360  86.4298310  34.3549350
   9.6397870  76.6229110   4.6289790   9.5591920  75.7083720   4.3581500
   9.2262290  77.1196180   3.9229500   7.7715910  78.4008130   6.5099060
   6.9958010  77.9208570   6.7997630   8.4228840  77.7213780   6.3355220
  11.7923340  82.8068320   5.2898190  11.3304870  82.0355560   5.6185360
  12.6048890  82.8334390   5.7950640   1.7683000  82.7468030   7.5832840
   2.0711040  81.8565770   7.4043060   2.5126590  83.3038250   7.3555090
   8.0186650  85.0926330   4.9102180   7.3998090  85.5483830   4.3396620
   8.8738430  85.2477790   4.5091880   7.2124900  81.0765320   6.5169220
   7.1433180  80.1355260   6.3558350   7.9744760  81.1666730   7.0891790
   8.2430070  73.8835700   6.7438150   8.6194890  73.0107580   6.6311820
   8.1449580  74.2194400   5.8528590   2.3735080  72.2561330   2.2055590
   2.4801830  73.1565060   2.5124350   1.4627440  72.2079300   1.9150240
  12.0254190  71.3786140   3.6766490  12.8463810  70.8882710   3.7191970
  12.0588270  71.9683800   4.4298330   4.2142810  75.2247700   6.5380770
   4.7221030  75.7228670   7.1785790   4.7456050  74.4482900   6.3620130
  16.3153740  73.3952890  10.2410120  15.6105910  73.7834600   9.7225230
  16.5811660  74.0903180  10.8431050   2.4978910  69.8646260  10.8044190
   2.4997350  70.3818650   9.9990090   1.6683220  69.3876440  10.7814120
   8.8850000  79.9765570   2.3034090   8.2667270  80.4415020   1.7396810
   9.3973250  80.6693050   2.7203600   3.7481760  79.5041440   8.9817690
   3.4151140  80.1310360   9.6238760   3.9248440  80.0303320   8.2019360
  12.2615670  73.3186520   6.4494030  11.5571240  73.6071410   7.0297140
  12.6227830  74.1286630   6.0893590   2.1794240  71.5756220   8.8114640
   2.5211050  72.4198270   8.5168510   1.2410050  71.7239960   8.9279980
   2.9600860  81.4722240  10.7966870   3.5774860  82.1473320  10.5151320
   2.0993980  81.8810220  10.7054370  13.8778450  82.9361650   8.7121510
  13.1941970  83.6060760   8.7038180  14.4172740  83.1342300   7.9466370
  15.3302590  72.7641310   6.8403240  14.3827500  72.7980290   6.9718670
  15.6552580  73.5780260   7.2252600   5.8622130  69.0638490   5.1359230
   6.1697110  68.5085380   4.4194730   4.9322830  69.1982950   4.9532220
  11.4137190  84.7805780   7.4266690  11.4264350  84.3768070   6.5588950
  10.8612410  85.5553070   7.3228120  12.7082610  81.5022000   2.5156860
  12.5978940  80.5596330   2.6406280  12.7050860  81.8637640   3.4019620
  10.8122630  79.6835620   8.7549300  11.2291420  79.4695730   7.9202760
  11.5362450  79.9408410   9.3257920   8.2502890  77.1287320   1.8719350
   7.3232170  77.0624700   2.1007820   8.4027710  78.0667450   1.7574590
  14.7584730  78.0822840   8.8465540  13.9303360  78.1515930   8.3715670
  15.3535210  78.6677150   8.3781370  12.2800180  78.6907620   2.3754600
  11.6612600  78.3527170   1.7280900  12.2624630  78.0467380   3.0833790
  11.7226740  74.8692160   9.7920410  11.3097920  75.6945870  10.0460400
  10.9902690  74.2837200   9.5996770   3.8559530  77.6552060   4.6539080
   3.4516530  76.9429310   4.1584980   3.9422650  77.3105300   5.5427120
   4.3241230  81.3419620   6.8178290   4.0269520  80.7365090   6.1386070
   5.2741050  81.3796930   6.7067650   2.5688150  74.4295270   8.4338120
   3.1202740  74.5390610   7.6591370   3.0831660  74.8032870   9.1493350
  12.4126840  84.9151490  10.4801390  11.9357400  85.7223680  10.2874000
  11.7288630  84.2629820  10.6327600   3.4159660  81.0801310  13.4686090
   2.5188190  81.3041280  13.7159490   3.4412530  81.2036250  12.5197490
   2.2430880  77.9514630  12.0443460   2.1038650  78.8237430  12.4130860
   1.3612240  77.6087440  11.8991400   8.5660260  82.8690500   3.3508590
   9.0056170  83.6114830   2.9363980   8.5047150  83.1117070   4.2747550
   4.0411230  83.8936330  14.2528610   4.0126660  84.2979280  13.3857040
   3.8776200  82.9646690  14.0900210  15.9926050  84.6763430  15.5492780
  16.4685770  85.1546320  16.2281860  16.6133210  84.6080920  14.8238280
  15.3959300  81.8676280  12.7092790  15.5222360  81.6288160  11.7909970
  15.4380680  81.0360820  13.1814870   9.2576040  85.5704280  11.2787600
   9.7720710  85.4812290  12.0810030   8.4145120  85.9163980  11.5715510
   3.7118820  85.6358150   2.4843220   3.5361300  84.7193690   2.2711020
   2.8574560  85.9945440   2.7241020  10.5006500  84.9909890   3.3418090
  10.9563450  84.2099270   3.6556710  10.8399020  85.7016710   3.8859270
  15.2483310  73.9208740  13.6742530  14.6327580  74.4288410  13.1457990
  14.9279730  73.0207070  13.6168470   3.0227820  69.8932110   5.5369400
   2.5795970  70.6741650   5.2053920   3.5812810  70.2162000   6.2440340
   7.3097630  72.7600630  11.1404720   6.8477000  72.9683650  11.9524660
   6.9075740  71.9459980  10.8375390  12.3102140  73.9809580  12.2701380
  11.4595730  73.6815330  12.5910450  12.1503930  74.2251590  11.3585200
   9.4051850  75.4811330  14.3700170   9.7305260  74.6475080  14.0302400
  10.1932180  76.0039850  14.5178500   5.0603720  70.4379440   7.3959000
   5.3576050  71.3442270   7.3151020   5.6089280  69.9498220   6.7818570
   2.8142040  75.0165680   3.2650650   2.5882960  74.8002850   4.1697270
   2.0334570  75.4494140   2.9196620   5.2541250  75.9151260  13.9310920
   5.1584850  74.9745990  13.7811320   6.0973230  76.1366330  13.5358990
   8.6504670  73.6592590   3.8944580   9.0434240  73.9764790   3.0813270
   9.0121520  72.7804470   4.0089100   6.9596840  72.4099900  15.1541440
   6.2695160  72.2172100  15.7887530   7.7029140  72.6934540  15.6865740
   9.2359810  76.2498340   7.9895360   8.5040930  76.7585150   8.3385460
   8.8384150  75.4328320   7.6884140   5.6737200  72.9252540   6.3947850
   5.6773260  72.4842490   5.5452390   6.5688320  73.2469870   6.5019670
   9.6985720  71.7032020   7.4018300   9.7158460  72.1540670   8.2460150
   9.4501300  70.8037660   7.6151740  13.1256470  69.1164200  13.2404680
  13.4502240  68.3853860  13.7662660  13.1612980  68.7977840  12.3385670
   5.9745170  76.9854320   8.1413260   6.3415300  76.5112890   8.8874600
   5.7850230  77.8595890   8.4821600   3.7644540  76.0262960  10.4597470
   3.4601610  76.9054940  10.6847830   4.7191000  76.0862750  10.4954910
  13.0514310  79.2289310   6.8490710  13.7713430  79.7244600   6.4586820
  12.8496130  78.5507200   6.2044580   8.4333110  79.2998370  12.7359710
   8.3670420  78.3794040  12.4817300   7.8038250  79.3973810  13.4504350
   2.3363730  79.9004330   4.6943130   2.8542400  79.0972590   4.6400020
   1.8847750  79.8383470   5.5359960   3.0221390  77.3249940  14.4908380
   2.7221530  77.4707120  13.5936200   3.7932630  76.7655230  14.3981770
   8.3649840  82.1218940  12.4863510   8.3794380  81.1899900  12.2682420
   7.6574940  82.2078700  13.1253280  14.5761050  78.7626280  11.8332090
  13.8509240  79.3555060  11.6361480  15.1036510  78.7549820  11.0345460
  10.1060640  80.4886450   5.3315940  10.4584460  79.8914580   4.6717310
   9.2222970  80.1630680   5.5024190   6.1923920  81.2484140   2.7386350
   6.8795050  81.7953350   3.1193940   5.4056340  81.7924870   2.7735960
   5.4951130  78.2530170   2.3511710   5.9513910  79.0635420   2.5771900
   5.1439340  77.9353310   3.1830200   7.7983740  83.7636510   9.5804010
   8.4425960  83.9695890  10.2577430   8.1613180  83.0024910   9.1274860
   9.0715820  81.7668860   8.2981460   9.7138050  81.0662020   8.4113630
   9.5965170  82.5467300   8.1178350  10.8453440  82.5663760  11.5017520
  11.1809680  83.1530450  12.1795440   9.9253780  82.4356470  11.7315310
   6.6742020  82.6155090  14.6705580   6.3538890  81.8964330  15.2151270
   6.0000380  83.2910160  14.7441640   9.8895620  72.8481250  10.0342380
  10.2576440  72.0276460  10.3621950   9.0293820  72.9083140  10.4498030
   5.2241680  74.0824140   2.2587820   4.5157830  74.5510480   2.7001430
   5.5086160  73.4246150   2.8933010   6.8497610  75.5020840  10.2580350
   7.3482860  75.9766660  10.9232200   6.9920560  74.5784360  10.4650380
   9.2557110  70.8074800   3.6983610   9.1324890  70.8260930   2.7493120
  10.2041670  70.8553740   3.8182010   6.3433900  86.0430100   2.9711590
   6.5975400  86.0051490   2.0490960   5.3946380  85.9163430   2.9639840
  14.0564470  71.7188800  11.1008740  13.5538070  72.4594200  11.4402550
  14.8721130  72.1072800  10.7845530  12.3486480  76.9621980   4.5470100
  11.4076620  76.9772210   4.7217790  12.6630550  76.1757940   4.9930400
  14.3512060  84.1330830   6.2224360  14.4759480  84.9562000   6.6948170
  15.2177620  83.9221560   5.8748510   1.8229590  86.2262040   5.8941490
   2.5592070  85.6777500   6.1650060   2.2070510  87.0918050   5.7547480
   9.6652500  81.5187980  15.0302480   9.0590660  81.5419580  14.2898230
   9.3606610  80.7871020  15.5669730  11.0952870  85.2468270  13.6411890
  12.0474620  85.1626290  13.5912130  10.9481090  85.9109980  14.3145680
   5.6023620  79.3052560  13.5598640   4.8369290  79.8737560  13.4753310
   5.7839580  79.0128770  12.6666870  12.7446970  81.0357890  14.1173660
  13.4856440  81.3733650  13.6141120  11.9819650  81.2049950  13.5643430
   2.5214570  74.6203260  12.8887680   1.9911030  74.1294210  12.2611020
   3.1902640  75.0487460  12.3545610  11.4192630  79.0872720  12.6528870
  11.8333650  79.2417800  13.5019290  10.4843630  79.2127940  12.8154650
  11.8914800  76.4268880  14.6568020  12.4735570  75.6721200  14.5688500
  12.0676570  76.9576320  13.8799500   3.0086870  71.5865630  12.9684970
   2.9143740  70.9686380  12.2435840   2.4284260  72.3131920  12.7414880
   5.7748310  70.1438870  10.0012360   5.3265610  70.1663130   9.1557910
   5.1413510  69.7457890  10.5982660   6.1807860  79.0393200  10.6224800
   6.5995970  79.8825930  10.4501040   5.2616490  79.1765240  10.3931580
   8.5171760  76.7709380  12.0062640   8.6367970  76.1750520  12.7457480
   9.3765760  76.8079070  11.5863940  10.8559660  77.3246570  10.5825150
  10.3294880  77.8489190   9.9790290  11.1991000  77.9573960  11.2134880
   4.0315280  85.3446210  11.7382530   3.4936370  86.0692270  11.4191230
   4.2849240  84.8676550  10.9479870   5.2840530  73.3130730  13.2638460
   5.8740220  73.0046580  13.9516280   4.4660770  72.8410480  13.4198360
  10.1033960  72.9296540  13.4971480   9.4149480  72.2678080  13.4321470
  10.8239980  72.4834810  13.9419940   6.8877490  86.5797420  11.9969180
   6.8136190  87.4832560  12.3041550   5.9856330  86.2609320  11.9691250
   2.8866700  82.2381020   2.9604770   2.5862240  82.1145990   3.8608680
   2.7804190  81.3789610   2.5520500  14.4157170  84.2759600  12.3261740
  13.8159160  84.3352160  11.5825660  14.5451070  83.3364580  12.4558590
  16.1175050  79.6175000   5.0107580  16.4883880  78.8342320   4.6043550
  16.7576980  80.3064100   4.8324880  13.1008810  81.0011580  10.4237900
  12.2868650  81.4308740  10.6863690  13.5083010  81.6129990   9.8106950
  15.0599590  76.9928260   2.3167600  14.6843190  76.2256190   1.8848890
  14.3302710  77.3750960   2.8042530  14.4499210  76.1399780  11.9507120
  14.2185300  75.9112530  11.0505070  14.7103760  77.0599330  11.9052010
  12.8887280  71.3656210  14.7286820  13.7657460  71.3739610  15.1120820
  12.9008120  70.6287050  14.1179170  14.3350550  75.2185750   5.6174840
  14.8588030  74.7248400   4.9865010  14.9209970  75.3536110   6.3622410
  14.5140270  75.3025620   9.1394390  13.5642980  75.2689160   9.2539380
  14.6953280  76.2125730   8.9044160  15.2537680  73.1120050   4.0904930
  15.1436960  72.9576090   5.0287200  16.0145270  72.5840990   3.8480340
  13.6003400  69.0514180  10.5487930  14.2375620  69.6648320  10.9147120
  13.7478290  69.0874840   9.6037160  13.1584860  85.7530180   3.9506170
  13.7543930  85.4314750   3.2740590  13.4163010  85.2802000   4.7419440
   4.7653460  83.7407680   9.7006520   4.5244820  84.0082240   8.8137040
   5.7056100  83.9113410   9.7557380   6.9707880  70.2040370  13.4563030
   6.9096770  70.7962200  14.2058440   7.9108260  70.0966330  13.3113290
   9.6082440  69.8610430  13.0955320  10.2222850  70.1789720  12.4336400
  10.1532000  69.3759020  13.7151180  16.0257620  85.7602060  10.5017160
  15.5315900  86.1570930   9.7844290  15.4170910  85.1351270  10.8954440
  10.3490480  68.4242570   9.4224610   9.4750320  68.7577680   9.2197540
  10.2401230  67.9515750  10.2476480  11.2562460  70.6313440  10.8066330
  10.9275820  69.8165200  10.4268060  12.2044760  70.5883250  10.6832020
  13.7097070  86.4025480   7.7803900  13.2500040  87.1541290   7.4061920
  13.0809530  85.6831950   7.7218700   4.1392790  84.7113720   6.9552030
   4.6557810  84.1001080   6.4300290   4.7890170  85.2142500   7.4463040
   6.8788290  85.6022210   7.7821010   7.1666100  85.3476510   6.9054020
   7.3911510  85.0499570   8.3726580   8.0965300  69.3412410   8.3617520
   7.3137090  69.8157910   8.6414280   7.8028230  68.4367240   8.2530700
  12.6486370  70.0435510   6.4066610  13.0894460  69.9880610   5.5588210
  12.3793960  70.9593520   6.4776790  14.5124940  69.6750750   4.4175430
  14.4513340  68.7311970   4.2706450  15.2916970  69.7830840   4.9628890
   5.9819520  71.7599160   3.8733550   5.1694030  71.3856050   3.5329430
   6.4861160  71.0044240   4.1754740  10.4844500  68.4241610   5.1116620
  11.0873870  68.9961820   5.5865140   9.7437490  68.9881050   4.8890520
   4.0068700  69.9099080   2.4778600   3.3771440  69.2086390   2.6448730
   3.4673840  70.6703210   2.2611760   6.9460650  86.5238310  15.1489210
   7.8727960  86.2882580  15.1925170   6.9311080  87.3510310  14.6675240
  15.1805710  86.0663880   2.1463460  15.3557900  85.3801620   1.5024380
  14.4827280  86.5910930   1.7540130   4.1324260  69.1883060  14.9131090
   3.8508530  69.6916660  14.1491910   4.5143960  68.3904810  14.5473220
  10.7339720  68.6036640  15.4911560  10.6205170  68.9231250  16.3863080
  11.5509460  69.0049150  15.1948840  13.5138210  85.7508170  14.9730250
  14.3063530  85.2557400  14.7656210  13.8071360  86.4298310  15.5805860
   9.6397870  57.8485620  98.5007240   9.5591920  56.9340230  98.2298950
   9.2262290  58.3452690  97.7946950   7.7715910  59.6264640 100.3816510
   6.9958010  59.1465080 100.6715080   8.4228840  58.9470290 100.2072670
  11.7923340  64.0324830  99.1615640  11.3304870  63.2612070  99.4902810
  12.6048890  64.0590900  99.6668090   1.7683000  63.9724540 101.4550290
   2.0711040  63.0822280 101.2760510   2.5126590  64.5294760 101.2272540
   8.0186650  66.3182840  98.7819630   7.3998090  66.7740340  98.2114070
   8.8738430  66.4734300  98.3809330   7.2124900  62.3021830 100.3886670
   7.1433180  61.3611770 100.2275800   7.9744760  62.3923240 100.9609240
   8.2430070  55.1092210 100.6155600   8.6194890  54.2364090 100.5029270
   8.1449580  55.4450910  99.7246040   2.3735080  53.4817840  96.0773040
   2.4801830  54.3821570  96.3841800   1.4627440  53.4335810  95.7867690
  12.0254190  52.6042650  97.5483940  12.8463810  52.1139220  97.5909420
  12.0588270  53.1940310  98.3015780   4.2142810  56.4504210 100.4098220
   4.7221030  56.9485180 101.0503240   4.7456050  55.6739410 100.2337580
  16.3153740  54.6209400 104.1127570  15.6105910  55.0091110 103.5942680
  16.5811660  55.3159690 104.7148500   2.4978910  51.0902770 104.6761640
   2.4997350  51.6075160 103.8707540   1.6683220  50.6132950 104.6531570
   8.8850000  61.2022080  96.1751540   8.2667270  61.6671530  95.6114260
   9.3973250  61.8949560  96.5921050   3.7481760  60.7297950 102.8535140
   3.4151140  61.3566870 103.4956210   3.9248440  61.2559830 102.0736810
  12.2615670  54.5443030 100.3211480  11.5571240  54.8327920 100.9014590
  12.6227830  55.3543140  99.9611040   2.1794240  52.8012730 102.6832090
   2.5211050  53.6454780 102.3885960   1.2410050  52.9496470 102.7997430
   2.9600860  62.6978750 104.6684320   3.5774860  63.3729830 104.3868770
   2.0993980  63.1066730 104.5771820  13.8778450  64.1618160 102.5838960
  13.1941970  64.8317270 102.5755630  14.4172740  64.3598810 101.8183820
  15.3302590  53.9897820 100.7120690  14.3827500  54.0236800 100.8436120
  15.6552580  54.8036770 101.0970050   5.8622130  50.2895000  99.0076680
   6.1697110  49.7341890  98.2912180   4.9322830  50.4239460  98.8249670
  11.4137190  66.0062290 101.2984140  11.4264350  65.6024580 100.4306400
  10.8612410  66.7809580 101.1945570  12.7082610  62.7278510  96.3874310
  12.5978940  61.7852840  96.5123730  12.7050860  63.0894150  97.2737070
  10.8122630  60.9092130 102.6266750  11.2291420  60.6952240 101.7920210
  11.5362450  61.1664920 103.1975370   8.2502890  58.3543830  95.7436800
   7.3232170  58.2881210  95.9725270   8.4027710  59.2923960  95.6292040
   8.2371970  54.6260830  92.7403960   7.2975640  54.7874790  92.8256420
   8.5555230  55.3446510  92.1939950  14.7584730  59.3079350 102.7182990
  13.9303360  59.3772440 102.2433120  15.3535210  59.8933660 102.2498820
  12.2800180  59.9164130  96.2472050  11.6612600  59.5783680  95.5998350
  12.2624630  59.2723890  96.9551240  11.7226740  56.0948670 103.6637860
  11.3097920  56.9202380 103.9177850  10.9902690  55.5093710 103.4714220
   3.8559530  58.8808570  98.5256530   3.4516530  58.1685820  98.0302430
   3.9422650  58.5361810  99.4144570   4.3241230  62.5676130 100.6895740
   4.0269520  61.9621600 100.0103520   5.2741050  62.6053440 100.5785100
   2.5688150  55.6551780 102.3055570   3.1202740  55.7647120 101.5308820
   3.0831660  56.0289380 103.0210800  12.4126840  66.1408000 104.3518840
  11.9357400  66.9480190 104.1591450  11.7288630  65.4886330 104.5045050
  10.4564880  59.1550940  93.2544800  10.8958160  58.3173370  93.1082620
  11.1693300  59.7880340  93.3408940   8.5660260  64.0947010  97.2226040
   9.0056170  64.8371340  96.8081430   8.5047150  64.3373580  98.1465000
  14.0382020  50.4093750  91.5685840  13.7254680  50.5020580  92.4684910
  14.7994490  50.9874780  91.5183270  11.2330440  67.0816130  94.5789050
  11.0731580  66.7919070  95.4770880  11.0677150  66.3056260  94.0434280
   3.7118820  66.8614660  96.3560670   3.5361300  65.9450200  96.1428470
   2.8574560  67.2201950  96.5958470  10.9356570  64.5903690  93.1387050
  10.2421730  64.5880980  92.4789330  11.6779430  64.1663010  92.7081220
  10.5006500  66.2166400  97.2135540  10.9563450  65.4355780  97.5274160
  10.8399020  66.9273220  97.7576720   3.0227820  51.1188620  99.4086850
   2.5795970  51.8998160  99.0771370   3.5812810  51.4418510 100.1157790
   6.1386640  50.7399320  94.2892680   5.5140820  50.7359190  95.0145990
   6.0516760  49.8730280  93.8928650   5.0603720  51.6635950 101.2676450
   5.3576050  52.5698780 101.1868470   5.6089280  51.1754730 100.6536020
   2.8142040  56.2422190  97.1368100   2.5882960  56.0259360  98.0414720
   2.0334570  56.6750650  96.7914070  10.0439800  56.2485560  95.7358750
   9.4448690  56.9721360  95.5522370  10.5919410  56.1862340  94.9535200
   8.6504670  54.8849100  97.7662030   9.0434240  55.2021300  96.9530720
   9.0121520  54.0060980  97.8806550   9.2359810  57.4754850 101.8612810
   8.5040930  57.9841660 102.2102910   8.8384150  56.6584830 101.5601590
   5.6737200  54.1509050 100.2665300   5.6773260  53.7099000  99.4169840
   6.5688320  54.4726380 100.3737120   5.7357350  55.1521130  93.2572060
   5.8570170  55.1107610  94.2057880   5.3505860  56.0145280  93.1018790
   9.6985720  52.9288530 101.2735750   9.7158460  53.3797180 102.1177600
   9.4501300  52.0294170 101.4869190   4.7478850  57.4622270  92.6555360
   4.1795750  57.0140520  92.0291270   5.4567850  57.8215050  92.1220510
   5.9745170  58.2110830 102.0130710   6.3415300  57.7369400 102.7592050
   5.7850230  59.0852400 102.3539050   3.7644540  57.2519470 104.3314920
   3.4601610  58.1311450 104.5565280   4.7191000  57.3119260 104.3672360
   2.2926330  61.4580460  94.9281770   1.5188590  60.9178080  94.7680490
   3.0220960  60.9387070  94.5899530  13.0514310  60.4545820 100.7208160
  13.7713430  60.9501110 100.3304270  12.8496130  59.7763710 100.0762030
   8.5124250  51.8483780  94.8637550   7.6988860  51.3496950  94.7882860
   8.3186200  52.6882030  94.4473900  11.2272640  56.2203430  93.1599710
  12.1152260  56.5320660  92.9851050  11.1977730  55.3475680  92.7680290
   2.3363730  61.1260840  98.5660580   2.8542400  60.3229100  98.5117470
   1.8847750  61.0639980  99.4077410   7.2233230  62.3927120  93.8387880
   7.5648930  63.1369350  93.3431200   6.3945940  62.7058240  94.2012710
  13.4986910  57.5315270  92.6279570  13.4150630  57.9629490  91.7776010
  14.2181100  57.9913620  93.0606390  14.5274160  64.3857530  95.3561700
  13.8850320  63.7313150  95.6305420  14.1404820  64.7912620  94.5802370
  10.1060640  61.7142960  99.2033390  10.4584460  61.1171090  98.5434760
   9.2222970  61.3887190  99.3741640   6.1923920  62.4740650  96.6103800
   6.8795050  63.0209860  96.9911390   5.4056340  63.0181380  96.6453410
   5.4951130  59.4786680  96.2229160   5.9513910  60.2891930  96.4489350
   5.1439340  59.1609820  97.0547650   7.7983740  64.9893020 103.4521460
   8.4425960  65.1952400 104.1294880   8.1613180  64.2281420 102.9992310
   9.0715820  62.9925370 102.1698910   9.7138050  62.2918530 102.2831080
   9.5965170  63.7723810 101.9895800  12.9171540  63.2773990  91.8938050
  12.6909120  62.5604430  92.4862690  12.5267740  63.0286430  91.0559800
  12.4987790  61.1945930  93.5552210  12.2109490  61.6558620  94.3430090
  13.2939960  60.7343700  93.8236430   4.7156190  64.6872050  93.4856180
   4.7066290  65.4201740  92.8700690   3.7954550  64.4403630  93.5783140
   9.8895620  54.0737760 103.9059830  10.2576440  53.2532970 104.2339400
   9.0293820  54.1339650 104.3215480  13.2557650  53.0294700  94.7147390
  12.6270810  53.1340370  94.0005620  12.7609570  53.2491480  95.5041270
   7.7015790  64.7500290  92.1481370   7.8027770  64.5464280  91.2183350
   6.8017530  64.4958570  92.3529150   5.2241680  55.3080650  96.1305270
   4.5157830  55.7766990  96.5718880   5.5086160  54.6502660  96.7650460
   6.8497610  56.7277350 104.1297800   7.3482860  57.2023170 104.7949650
   6.9920560  55.8040870 104.3367830   9.2557110  52.0331310  97.5701060
   9.1324890  52.0517440  96.6210570  10.2041670  52.0810250  97.6899460
   6.3433900  67.2686610  96.8429040   6.5975400  67.2308000  95.9208410
   5.3946380  67.1419940  96.8357290   3.4276700  53.6165730  93.5055980
   4.2767230  54.0535880  93.4396170   3.0607970  53.9285990  94.3328040
  12.3486480  58.1878490  98.4187550  11.4076620  58.2028720  98.5935240
  12.6630550  57.4014450  98.8647850   2.3268120  59.8698090  91.9791510
   3.0931390  59.7579450  92.5416940   2.4042810  59.1736060  91.3268280
  14.3512060  65.3587340 100.0941810  14.4759480  66.1818510 100.5665620
  15.2177620  65.1478070  99.7465960   1.8229590  67.4518550  99.7658940
   2.5592070  66.9034010 100.0367510   2.2070510  68.3174560  99.6264930
   4.9331900  66.6248860  91.5884510   5.7260510  66.9137690  91.1366300
   4.4136250  66.1941030  90.9096990  13.9862070  65.8518990  93.0121250
  13.7003580  65.4384130  92.1975430  13.7881620  66.7806700  92.8921770
   5.4509300  61.8452270  91.4526860   5.3459940  61.2304620  92.1788240
   5.2833520  61.3218160  90.6689870   8.6912030  60.9072300  92.0568850
   8.1422130  61.3541600  92.7011590   9.3131290  60.4021550  92.5806520
   4.3587150  59.8663220  93.9534150   4.7803570  59.7003090  94.7965540
   4.4837990  59.0563450  93.4589290   6.8714790  58.8900830  91.2011250
   7.3920450  58.1749850  90.8352400   7.5183190  59.5286700  91.5011760
   5.7748310  51.3695380 103.8729810   5.3265610  51.3919640 103.0275360
   5.1413510  50.9714400 104.4700110   6.1807860  60.2649710 104.4942250
   6.5995970  61.1082440 104.3218490   5.2616490  60.4021750 104.2649030
   3.2546050  55.9396450  90.8992310   3.0535110  55.0763810  91.2605650
   3.0838100  55.8529810  89.9613910  10.7334360  50.7504680  93.4279190
  11.0136650  49.9072580  93.7838610   9.9600090  50.9827790  93.9417940
   2.0528850  53.0397070  90.8870190   2.3554750  53.0464500  89.9789340
   2.7923440  52.6894930  91.3837850   5.2713780  51.9831690  91.8726390
   4.9235780  51.3055680  91.2928840   5.4726550  51.5221200  92.6869780
   7.4362820  66.9712440  93.4912990   8.3313610  67.3097410  93.5131750
   7.4680450  66.2491850  92.8637270   2.8866700  63.4637530  96.8322220
   2.5862240  63.3402500  97.7326130   2.7804190  62.6046120  96.4237950
  15.6558620  63.2433930  91.5348900  14.8251580  63.3110580  92.0056130
  15.8330450  64.1338050  91.2315760  15.1115080  59.9881410  94.0383100
  15.8733990  60.5578060  94.1442790  15.1269450  59.4208610  94.8091410
  16.1175050  60.8431510  98.8825030  16.4883880  60.0598830  98.4761000
  16.7576980  61.5320610  98.7042330  13.1008810  62.2268090 104.2955350
  12.2868650  62.6565250 104.5581140  13.5083010  62.8386500 103.6824400
  15.1634250  60.2815780  91.1955620  15.4383090  61.1894660  91.0674840
  14.9744990  60.2178310  92.1317610  11.5609860  53.3060630  92.4909250
  11.9794740  53.1191610  91.6505910  11.2545920  52.4539680  92.8012180
  15.0599590  58.2184770  96.1885050  14.6843190  57.4512700  95.7566340
  14.3302710  58.6007470  96.6759980  14.3350550  56.4442260  99.4892290
  14.8588030  55.9504910  98.8582460  14.9209970  56.5792620 100.2339860
  14.5140270  56.5282130 103.0111840  13.5642980  56.4945670 103.1256830
  14.6953280  57.4382240 102.7761610  13.8250520  55.7015610  95.4284700
  14.3209640  55.4686480  96.2133580  13.6266590  54.8627450  95.0122340
  15.2537680  54.3376560  97.9622380  15.1436960  54.1832600  98.9004650
  16.0145270  53.8097500  97.7197790  13.6003400  50.2770690 104.4205380
  14.2375620  50.8904830 104.7864570  13.7478290  50.3131350 103.4754610
  16.1427950  52.1684480  91.2028520  17.0677260  52.0365660  90.9946810
  16.1203740  52.2477300  92.1564970  16.2166440  52.9395140  93.8285230
  15.4217940  52.8740260  94.3578140  16.4209720  53.8745780  93.8170580
  13.1584860  66.9786690  97.8223620  13.7543930  66.6571260  97.1458040
  13.4163010  66.5058510  98.6136890   4.7653460  64.9664190 103.5723970
   4.5244820  65.2338750 102.6854490   5.7056100  65.1369920 103.6274830
  16.0257620  66.9858570 104.3734610  15.5315900  67.3827440 103.6561740
  15.4170910  66.3607780 104.7671890  10.3490480  49.6499080 103.2942060
   9.4750320  49.9834190 103.0914990  10.2401230  49.1772260 104.1193930
  11.2562460  51.8569950 104.6783780  10.9275820  51.0421710 104.2985510
  12.2044760  51.8139760 104.5549470  13.7097070  67.6281990 101.6521350
  13.2500040  68.3797800 101.2779370  13.0809530  66.9088460 101.5936150
   4.1392790  65.9370230 100.8269480   4.6557810  65.3257590 100.3017740
   4.7890170  66.4399010 101.3180490   6.8788290  66.8278720 101.6538460
   7.1666100  66.5733020 100.7771470   7.3911510  66.2756080 102.2444030
   8.0965300  50.5668920 102.2334970   7.3137090  51.0414420 102.5131730
   7.8028230  49.6623750 102.1248150  12.6486370  51.2692020 100.2784060
  13.0894460  51.2137120  99.4305660  12.3793960  52.1850030 100.3494240
  14.5124940  50.9007260  98.2892880  14.4513340  49.9568480  98.1423900
  15.2916970  51.0087350  98.8346340   5.9819520  52.9855670  97.7451000
   5.1694030  52.6112560  97.4046880   6.4861160  52.2300750  98.0472190
  10.4844500  49.6498120  98.9834070  11.0873870  50.2218330  99.4582590
   9.7437490  50.2137560  98.7607970  13.6279100  50.0519680  94.2574350
  13.8229730  50.9503130  94.5241780  12.8408970  49.8206760  94.7507300
   1.8130860  51.3980450  93.2950660   2.3423620  50.6110250  93.1658610
   2.4459180  52.0771640  93.5286190   4.0068700  51.1355590  96.3496050
   3.3771440  50.4342900  96.5166180   3.4673840  51.8959720  96.1329210
  15.1805710  67.2920390  96.0180910  15.3557900  66.6058130  95.3741830
  14.4827280  67.8167440  95.6257580   3.0233360  67.6815230  93.5716220
   3.7552180  67.3974510  93.0240110   3.2827030  67.4428510  94.4615600
   2.1848150  63.7979960  93.5762550   1.5557030  64.2665060  94.1248380
   2.2995980  62.9529180  94.0108740   9.6397870  57.8485620  79.7263750
   9.5591920  56.9340230  79.4555460   9.2262290  58.3452690  79.0203460
   7.7715910  59.6264640  81.6073020   6.9958010  59.1465080  81.8971590
   8.4228840  58.9470290  81.4329180  11.7923340  64.0324830  80.3872150
  11.3304870  63.2612070  80.7159320  12.6048890  64.0590900  80.8924600
   1.7683000  63.9724540  82.6806800   2.0711040  63.0822280  82.5017020
   2.5126590  64.5294760  82.4529050   8.0186650  66.3182840  80.0076140
   7.3998090  66.7740340  79.4370580   8.8738430  66.4734300  79.6065840
   7.2124900  62.3021830  81.6143180   7.1433180  61.3611770  81.4532310
   7.9744760  62.3923240  82.1865750   8.2430070  55.1092210  81.8412110
   8.6194890  54.2364090  81.7285780   8.1449580  55.4450910  80.9502550
   2.3735080  53.4817840  77.3029550   2.4801830  54.3821570  77.6098310
   1.4627440  53.4335810  77.0124200  12.0254190  52.6042650  78.7740450
  12.8463810  52.1139220  78.8165930  12.0588270  53.1940310  79.5272290
   4.2142810  56.4504210  81.6354730   4.7221030  56.9485180  82.2759750
   4.7456050  55.6739410  81.4594090  16.3153740  54.6209400  85.3384080
  15.6105910  55.0091110  84.8199190  16.5811660  55.3159690  85.9405010
   2.4978910  51.0902770  85.9018150   2.4997350  51.6075160  85.0964050
   1.6683220  50.6132950  85.8788080   8.8850000  61.2022080  77.4008050
   8.2667270  61.6671530  76.8370770   9.3973250  61.8949560  77.8177560
   3.7481760  60.7297950  84.0791650   3.4151140  61.3566870  84.7212720
   3.9248440  61.2559830  83.2993320  12.2615670  54.5443030  81.5467990
  11.5571240  54.8327920  82.1271100  12.6227830  55.3543140  81.1867550
   2.1794240  52.8012730  83.9088600   2.5211050  53.6454780  83.6142470
   1.2410050  52.9496470  84.0253940   2.9600860  62.6978750  85.8940830
   3.5774860  63.3729830  85.6125280   2.0993980  63.1066730  85.8028330
  13.8778450  64.1618160  83.8095470  13.1941970  64.8317270  83.8012140
  14.4172740  64.3598810  83.0440330  15.3302590  53.9897820  81.9377200
  14.3827500  54.0236800  82.0692630  15.6552580  54.8036770  82.3226560
   5.8622130  50.2895000  80.2333190   6.1697110  49.7341890  79.5168690
   4.9322830  50.4239460  80.0506180  11.4137190  66.0062290  82.5240650
  11.4264350  65.6024580  81.6562910  10.8612410  66.7809580  82.4202080
  12.7082610  62.7278510  77.6130820  12.5978940  61.7852840  77.7380240
  12.7050860  63.0894150  78.4993580  10.8122630  60.9092130  83.8523260
  11.2291420  60.6952240  83.0176720  11.5362450  61.1664920  84.4231880
   8.2502890  58.3543830  76.9693310   7.3232170  58.2881210  77.1981780
   8.4027710  59.2923960  76.8548550   8.2371970  54.6260830  73.9660470
   7.2975640  54.7874790  74.0512930   8.5555230  55.3446510  73.4196460
  14.7584730  59.3079350  83.9439500  13.9303360  59.3772440  83.4689630
  15.3535210  59.8933660  83.4755330  12.2800180  59.9164130  77.4728560
  11.6612600  59.5783680  76.8254860  12.2624630  59.2723890  78.1807750
  11.7226740  56.0948670  84.8894370  11.3097920  56.9202380  85.1434360
  10.9902690  55.5093710  84.6970730   3.8559530  58.8808570  79.7513040
   3.4516530  58.1685820  79.2558940   3.9422650  58.5361810  80.6401080
   4.3241230  62.5676130  81.9152250   4.0269520  61.9621600  81.2360030
   5.2741050  62.6053440  81.8041610   2.5688150  55.6551780  83.5312080
   3.1202740  55.7647120  82.7565330   3.0831660  56.0289380  84.2467310
  12.4126840  66.1408000  85.5775350  11.9357400  66.9480190  85.3847960
  11.7288630  65.4886330  85.7301560   3.4159660  62.3057820  88.5660050
   2.5188190  62.5297790  88.8133450   3.4412530  62.4292760  87.6171450
  10.4564880  59.1550940  74.4801310  10.8958160  58.3173370  74.3339130
  11.1693300  59.7880340  74.5665450   2.2430880  59.1771140  87.1417420
   2.1038650  60.0493940  87.5104820   1.3612240  58.8343950  86.9965360
   8.5660260  64.0947010  78.4482550   9.0056170  64.8371340  78.0337940
   8.5047150  64.3373580  79.3721510   4.0411230  65.1192840  89.3502570
   4.0126660  65.5235790  88.4831000   3.8776200  64.1903200  89.1874170
  14.0382020  50.4093750  72.7942350  13.7254680  50.5020580  73.6941420
  14.7994490  50.9874780  72.7439780  15.9926050  65.9019940  90.6466740
  16.4685770  66.3802830  91.3255820  16.6133210  65.8337430  89.9212240
  15.3959300  63.0932790  87.8066750  15.5222360  62.8544670  86.8883930
  15.4380680  62.2617330  88.2788830   9.2576040  66.7960790  86.3761560
   9.7720710  66.7068800  87.1783990   8.4145120  67.1420490  86.6689470
  11.2330440  67.0816130  75.8045560  11.0731580  66.7919070  76.7027390
  11.0677150  66.3056260  75.2690790   3.7118820  66.8614660  77.5817180
   3.5361300  65.9450200  77.3684980   2.8574560  67.2201950  77.8214980
  10.9356570  64.5903690  74.3643560  10.2421730  64.5880980  73.7045840
  11.6779430  64.1663010  73.9337730  10.5006500  66.2166400  78.4392050
  10.9563450  65.4355780  78.7530670  10.8399020  66.9273220  78.9833230
  15.2483310  55.1465250  88.7716490  14.6327580  55.6544920  88.2431950
  14.9279730  54.2463580  88.7142430   3.0227820  51.1188620  80.6343360
   2.5795970  51.8998160  80.3027880   3.5812810  51.4418510  81.3414300
   7.3097630  53.9857140  86.2378680   6.8477000  54.1940160  87.0498620
   6.9075740  53.1716490  85.9349350  12.3102140  55.2066090  87.3675340
  11.4595730  54.9071840  87.6884410  12.1503930  55.4508100  86.4559160
   9.4051850  56.7067840  89.4674130   9.7305260  55.8731590  89.1276360
  10.1932180  57.2296360  89.6152460   6.1386640  50.7399320  75.5149190
   5.5140820  50.7359190  76.2402500   6.0516760  49.8730280  75.1185160
   5.0603720  51.6635950  82.4932960   5.3576050  52.5698780  82.4124980
   5.6089280  51.1754730  81.8792530   2.8142040  56.2422190  78.3624610
   2.5882960  56.0259360  79.2671230   2.0334570  56.6750650  78.0170580
  10.0439800  56.2485560  76.9615260   9.4448690  56.9721360  76.7778880
  10.5919410  56.1862340  76.1791710   5.2541250  57.1407770  89.0284880
   5.1584850  56.2002500  88.8785280   6.0973230  57.3622840  88.6332950
   8.6504670  54.8849100  78.9918540   9.0434240  55.2021300  78.1787230
   9.0121520  54.0060980  79.1063060   6.9596840  53.6356410  90.2515400
   6.2695160  53.4428610  90.8861490   7.7029140  53.9191050  90.7839700
   9.2359810  57.4754850  83.0869320   8.5040930  57.9841660  83.4359420
   8.8384150  56.6584830  82.7858100   5.6737200  54.1509050  81.4921810
   5.6773260  53.7099000  80.6426350   6.5688320  54.4726380  81.5993630
   5.7357350  55.1521130  74.4828570   5.8570170  55.1107610  75.4314390
   5.3505860  56.0145280  74.3275300   9.6985720  52.9288530  82.4992260
   9.7158460  53.3797180  83.3434110   9.4501300  52.0294170  82.7125700
   4.7478850  57.4622270  73.8811870   4.1795750  57.0140520  73.2547780
   5.4567850  57.8215050  73.3477020  13.1256470  50.3420710  88.3378640
  13.4502240  49.6110370  88.8636620  13.1612980  50.0234350  87.4359630
   5.9745170  58.2110830  83.2387220   6.3415300  57.7369400  83.9848560
   5.7850230  59.0852400  83.5795560   3.7644540  57.2519470  85.5571430
   3.4601610  58.1311450  85.7821790   4.7191000  57.3119260  85.5928870
   2.2926330  61.4580460  76.1538280   1.5188590  60.9178080  75.9937000
   3.0220960  60.9387070  75.8156040  13.0514310  60.4545820  81.9464670
  13.7713430  60.9501110  81.5560780  12.8496130  59.7763710  81.3018540
   8.5124250  51.8483780  76.0894060   7.6988860  51.3496950  76.0139370
   8.3186200  52.6882030  75.6730410   8.4333110  60.5254880  87.8333670
   8.3670420  59.6050550  87.5791260   7.8038250  60.6230320  88.5478310
  11.2272640  56.2203430  74.3856220  12.1152260  56.5320660  74.2107560
  11.1977730  55.3475680  73.9936800   2.3363730  61.1260840  79.7917090
   2.8542400  60.3229100  79.7373980   1.8847750  61.0639980  80.6333920
   7.2233230  62.3927120  75.0644390   7.5648930  63.1369350  74.5687710
   6.3945940  62.7058240  75.4269220   3.0221390  58.5506450  89.5882340
   2.7221530  58.6963630  88.6910160   3.7932630  57.9911740  89.4955730
   8.3649840  63.3475450  87.5837470   8.3794380  62.4156410  87.3656380
   7.6574940  63.4335210  88.2227240  13.4986910  57.5315270  73.8536080
  13.4150630  57.9629490  73.0032520  14.2181100  57.9913620  74.2862900
  14.5761050  59.9882790  86.9306050  13.8509240  60.5811570  86.7335440
  15.1036510  59.9806330  86.1319420  14.5274160  64.3857530  76.5818210
  13.8850320  63.7313150  76.8561930  14.1404820  64.7912620  75.8058880
  10.1060640  61.7142960  80.4289900  10.4584460  61.1171090  79.7691270
   9.2222970  61.3887190  80.5998150   6.1923920  62.4740650  77.8360310
   6.8795050  63.0209860  78.2167900   5.4056340  63.0181380  77.8709920
   5.4951130  59.4786680  77.4485670   5.9513910  60.2891930  77.6745860
   5.1439340  59.1609820  78.2804160   7.7983740  64.9893020  84.6777970
   8.4425960  65.1952400  85.3551390   8.1613180  64.2281420  84.2248820
   9.0715820  62.9925370  83.3955420   9.7138050  62.2918530  83.5087590
   9.5965170  63.7723810  83.2152310  12.9171540  63.2773990  73.1194560
  12.6909120  62.5604430  73.7119200  12.5267740  63.0286430  72.2816310
  10.8453440  63.7920270  86.5991480  11.1809680  64.3786960  87.2769400
   9.9253780  63.6612980  86.8289270  12.4987790  61.1945930  74.7808720
  12.2109490  61.6558620  75.5686600  13.2939960  60.7343700  75.0492940
   6.6742020  63.8411600  89.7679540   6.3538890  63.1220840  90.3125230
   6.0000380  64.5166670  89.8415600   4.7156190  64.6872050  74.7112690
   4.7066290  65.4201740  74.0957200   3.7954550  64.4403630  74.8039650
   9.8895620  54.0737760  85.1316340  10.2576440  53.2532970  85.4595910
   9.0293820  54.1339650  85.5471990  13.2557650  53.0294700  75.9403900
  12.6270810  53.1340370  75.2262130  12.7609570  53.2491480  76.7297780
   7.7015790  64.7500290  73.3737880   7.8027770  64.5464280  72.4439860
   6.8017530  64.4958570  73.5785660   5.2241680  55.3080650  77.3561780
   4.5157830  55.7766990  77.7975390   5.5086160  54.6502660  77.9906970
   6.8497610  56.7277350  85.3554310   7.3482860  57.2023170  86.0206160
   6.9920560  55.8040870  85.5624340   9.2557110  52.0331310  78.7957570
   9.1324890  52.0517440  77.8467080  10.2041670  52.0810250  78.9155970
   6.3433900  67.2686610  78.0685550   6.5975400  67.2308000  77.1464920
   5.3946380  67.1419940  78.0613800   3.4276700  53.6165730  74.7312490
   4.2767230  54.0535880  74.6652680   3.0607970  53.9285990  75.5584550
  14.0564470  52.9445310  86.1982700  13.5538070  53.6850710  86.5376510
  14.8721130  53.3329310  85.8819490  12.3486480  58.1878490  79.6444060
  11.4076620  58.2028720  79.8191750  12.6630550  57.4014450  80.0904360
   2.3268120  59.8698090  73.2048020   3.0931390  59.7579450  73.7673450
   2.4042810  59.1736060  72.5524790  14.3512060  65.3587340  81.3198320
  14.4759480  66.1818510  81.7922130  15.2177620  65.1478070  80.9722470
   1.8229590  67.4518550  80.9915450   2.5592070  66.9034010  81.2624020
   2.2070510  68.3174560  80.8521440   4.9331900  66.6248860  72.8141020
   5.7260510  66.9137690  72.3622810   4.4136250  66.1941030  72.1353500
   9.6652500  62.7444490  90.1276440   9.0590660  62.7676090  89.3872190
   9.3606610  62.0127530  90.6643690  11.0952870  66.4724780  88.7385850
  12.0474620  66.3882800  88.6886090  10.9481090  67.1366490  89.4119640
  13.9862070  65.8518990  74.2377760  13.7003580  65.4384130  73.4231940
  13.7881620  66.7806700  74.1178280   5.4509300  61.8452270  72.6783370
   5.3459940  61.2304620  73.4044750   5.2833520  61.3218160  71.8946380
   5.6023620  60.5309070  88.6572600   4.8369290  61.0994070  88.5727270
   5.7839580  60.2385280  87.7640830   8.6912030  60.9072300  73.2825360
   8.1422130  61.3541600  73.9268100   9.3131290  60.4021550  73.8063030
  12.7446970  62.2614400  89.2147620  13.4856440  62.5990160  88.7115080
  11.9819650  62.4306460  88.6617390   4.3587150  59.8663220  75.1790660
   4.7803570  59.7003090  76.0222050   4.4837990  59.0563450  74.6845800
   2.5214570  55.8459770  87.9861640   1.9911030  55.3550720  87.3584980
   3.1902640  56.2743970  87.4519570   6.8714790  58.8900830  72.4267760
   7.3920450  58.1749850  72.0608910   7.5183190  59.5286700  72.7268270
  11.4192630  60.3129230  87.7502830  11.8333650  60.4674310  88.5993250
  10.4843630  60.4384450  87.9128610  11.8914800  57.6525390  89.7541980
  12.4735570  56.8977710  89.6662460  12.0676570  58.1832830  88.9773460
   3.0086870  52.8122140  88.0658930   2.9143740  52.1942890  87.3409800
   2.4284260  53.5388430  87.8388840   5.7748310  51.3695380  85.0986320
   5.3265610  51.3919640  84.2531870   5.1413510  50.9714400  85.6956620
   6.1807860  60.2649710  85.7198760   6.5995970  61.1082440  85.5475000
   5.2616490  60.4021750  85.4905540   8.5171760  57.9965890  87.1036600
   8.6367970  57.4007030  87.8431440   9.3765760  58.0335580  86.6837900
  10.8559660  58.5503080  85.6799110  10.3294880  59.0745700  85.0764250
  11.1991000  59.1830470  86.3108840   3.2546050  55.9396450  72.1248820
   3.0535110  55.0763810  72.4862160   3.0838100  55.8529810  71.1870420
   4.0315280  66.5702720  86.8356490   3.4936370  67.2948780  86.5165190
   4.2849240  66.0933060  86.0453830   5.2840530  54.5387240  88.3612420
   5.8740220  54.2303090  89.0490240   4.4660770  54.0666990  88.5172320
  10.1033960  54.1553050  88.5945440   9.4149480  53.4934590  88.5295430
  10.8239980  53.7091320  89.0393900  10.7334360  50.7504680  74.6535700
  11.0136650  49.9072580  75.0095120   9.9600090  50.9827790  75.1674450
   2.0528850  53.0397070  72.1126700   2.3554750  53.0464500  71.2045850
   2.7923440  52.6894930  72.6094360   6.8877490  67.8053930  87.0943140
   6.8136190  68.7089070  87.4015510   5.9856330  67.4865830  87.0665210
   5.2713780  51.9831690  73.0982900   4.9235780  51.3055680  72.5185350
   5.4726550  51.5221200  73.9126290   7.4362820  66.9712440  74.7169500
   8.3313610  67.3097410  74.7388260   7.4680450  66.2491850  74.0893780
   2.8866700  63.4637530  78.0578730   2.5862240  63.3402500  78.9582640
   2.7804190  62.6046120  77.6494460  14.4157170  65.5016110  87.4235700
  13.8159160  65.5608670  86.6799620  14.5451070  64.5621090  87.5532550
  15.6558620  63.2433930  72.7605410  14.8251580  63.3110580  73.2312640
  15.8330450  64.1338050  72.4572270  15.1115080  59.9881410  75.2639610
  15.8733990  60.5578060  75.3699300  15.1269450  59.4208610  76.0347920
  16.1175050  60.8431510  80.1081540  16.4883880  60.0598830  79.7017510
  16.7576980  61.5320610  79.9298840  13.1008810  62.2268090  85.5211860
  12.2868650  62.6565250  85.7837650  13.5083010  62.8386500  84.9080910
  15.1634250  60.2815780  72.4212130  15.4383090  61.1894660  72.2931350
  14.9744990  60.2178310  73.3574120  11.5609860  53.3060630  73.7165760
  11.9794740  53.1191610  72.8762420  11.2545920  52.4539680  74.0268690
  15.0599590  58.2184770  77.4141560  14.6843190  57.4512700  76.9822850
  14.3302710  58.6007470  77.9016490  14.4499210  57.3656290  87.0481080
  14.2185300  57.1369040  86.1479030  14.7103760  58.2855840  87.0025970
  12.8887280  52.5912720  89.8260780  13.7657460  52.5996120  90.2094780
  12.9008120  51.8543560  89.2153130  14.3350550  56.4442260  80.7148800
  14.8588030  55.9504910  80.0838970  14.9209970  56.5792620  81.4596370
  14.5140270  56.5282130  84.2368350  13.5642980  56.4945670  84.3513340
  14.6953280  57.4382240  84.0018120  13.8250520  55.7015610  76.6541210
  14.3209640  55.4686480  77.4390090  13.6266590  54.8627450  76.2378850
  15.2537680  54.3376560  79.1878890  15.1436960  54.1832600  80.1261160
  16.0145270  53.8097500  78.9454300  13.6003400  50.2770690  85.6461890
  14.2375620  50.8904830  86.0121080  13.7478290  50.3131350  84.7011120
  16.1427950  52.1684480  72.4285030  17.0677260  52.0365660  72.2203320
  16.1203740  52.2477300  73.3821480  16.2166440  52.9395140  75.0541740
  15.4217940  52.8740260  75.5834650  16.4209720  53.8745780  75.0427090
  13.1584860  66.9786690  79.0480130  13.7543930  66.6571260  78.3714550
  13.4163010  66.5058510  79.8393400   4.7653460  64.9664190  84.7980480
   4.5244820  65.2338750  83.9111000   5.7056100  65.1369920  84.8531340
   6.9707880  51.4296880  88.5536990   6.9096770  52.0218710  89.3032400
   7.9108260  51.3222840  88.4087250   9.6082440  51.0866940  88.1929280
  10.2222850  51.4046230  87.5310360  10.1532000  50.6015530  88.8125140
  16.0257620  66.9858570  85.5991120  15.5315900  67.3827440  84.8818250
  15.4170910  66.3607780  85.9928400  10.3490480  49.6499080  84.5198570
   9.4750320  49.9834190  84.3171500  10.2401230  49.1772260  85.3450440
  11.2562460  51.8569950  85.9040290  10.9275820  51.0421710  85.5242020
  12.2044760  51.8139760  85.7805980  13.7097070  67.6281990  82.8777860
  13.2500040  68.3797800  82.5035880  13.0809530  66.9088460  82.8192660
   4.1392790  65.9370230  82.0525990   4.6557810  65.3257590  81.5274250
   4.7890170  66.4399010  82.5437000   6.8788290  66.8278720  82.8794970
   7.1666100  66.5733020  82.0027980   7.3911510  66.2756080  83.4700540
   8.0965300  50.5668920  83.4591480   7.3137090  51.0414420  83.7388240
   7.8028230  49.6623750  83.3504660  12.6486370  51.2692020  81.5040570
  13.0894460  51.2137120  80.6562170  12.3793960  52.1850030  81.5750750
  14.5124940  50.9007260  79.5149390  14.4513340  49.9568480  79.3680410
  15.2916970  51.0087350  80.0602850   5.9819520  52.9855670  78.9707510
   5.1694030  52.6112560  78.6303390   6.4861160  52.2300750  79.2728700
  10.4844500  49.6498120  80.2090580  11.0873870  50.2218330  80.6839100
   9.7437490  50.2137560  79.9864480  13.6279100  50.0519680  75.4830860
  13.8229730  50.9503130  75.7498290  12.8408970  49.8206760  75.9763810
   1.8130860  51.3980450  74.5207170   2.3423620  50.6110250  74.3915120
   2.4459180  52.0771640  74.7542700   4.0068700  51.1355590  77.5752560
   3.3771440  50.4342900  77.7422690   3.4673840  51.8959720  77.3585720
   6.9460650  67.7494820  90.2463170   7.8727960  67.5139090  90.2899130
   6.9311080  68.5766820  89.7649200  15.1805710  67.2920390  77.2437420
  15.3557900  66.6058130  76.5998340  14.4827280  67.8167440  76.8514090
   4.1324260  50.4139570  90.0105050   3.8508530  50.9173170  89.2465870
   4.5143960  49.6161320  89.6447180   3.0233360  67.6815230  74.7972730
   3.7552180  67.3974510  74.2496620   3.2827030  67.4428510  75.6872110
   2.1848150  63.7979960  74.8019060   1.5557030  64.2665060  75.3504890
   2.2995980  62.9529180  75.2365250  10.7339720  49.8293150  90.5885520
  10.6205170  50.1487760  91.4837040  11.5509460  50.2305660  90.2922800
  13.5138210  66.9764680  90.0704210  14.3063530  66.4813910  89.8630170
  13.8071360  67.6554820  90.6779820   9.6397870  57.8485620  60.9520260
   9.5591920  56.9340230  60.6811970   9.2262290  58.3452690  60.2459970
   7.7715910  59.6264640  62.8329530   6.9958010  59.1465080  63.1228100
   8.4228840  58.9470290  62.6585690  11.7923340  64.0324830  61.6128660
  11.3304870  63.2612070  61.9415830  12.6048890  64.0590900  62.1181110
   1.7683000  63.9724540  63.9063310   2.0711040  63.0822280  63.7273530
   2.5126590  64.5294760  63.6785560   8.0186650  66.3182840  61.2332650
   7.3998090  66.7740340  60.6627090   8.8738430  66.4734300  60.8322350
   7.2124900  62.3021830  62.8399690   7.1433180  61.3611770  62.6788820
   7.9744760  62.3923240  63.4122260   8.2430070  55.1092210  63.0668620
   8.6194890  54.2364090  62.9542290   8.1449580  55.4450910  62.1759060
   2.3735080  53.4817840  58.5286060   2.4801830  54.3821570  58.8354820
   1.4627440  53.4335810  58.2380710  12.0254190  52.6042650  59.9996960
  12.8463810  52.1139220  60.0422440  12.0588270  53.1940310  60.7528800
   4.2142810  56.4504210  62.8611240   4.7221030  56.9485180  63.5016260
   4.7456050  55.6739410  62.6850600  16.3153740  54.6209400  66.5640590
  15.6105910  55.0091110  66.0455700  16.5811660  55.3159690  67.1661520
   2.4978910  51.0902770  67.1274660   2.4997350  51.6075160  66.3220560
   1.6683220  50.6132950  67.1044590   8.8850000  61.2022080  58.6264560
   8.2667270  61.6671530  58.0627280   9.3973250  61.8949560  59.0434070
   3.7481760  60.7297950  65.3048160   3.4151140  61.3566870  65.9469230
   3.9248440  61.2559830  64.5249830  12.2615670  54.5443030  62.7724500
  11.5571240  54.8327920  63.3527610  12.6227830  55.3543140  62.4124060
   2.1794240  52.8012730  65.1345110   2.5211050  53.6454780  64.8398980
   1.2410050  52.9496470  65.2510450   2.9600860  62.6978750  67.1197340
   3.5774860  63.3729830  66.8381790   2.0993980  63.1066730  67.0284840
  13.8778450  64.1618160  65.0351980  13.1941970  64.8317270  65.0268650
  14.4172740  64.3598810  64.2696840  15.3302590  53.9897820  63.1633710
  14.3827500  54.0236800  63.2949140  15.6552580  54.8036770  63.5483070
   5.8622130  50.2895000  61.4589700   6.1697110  49.7341890  60.7425200
   4.9322830  50.4239460  61.2762690  11.4137190  66.0062290  63.7497160
  11.4264350  65.6024580  62.8819420  10.8612410  66.7809580  63.6458590
  12.7082610  62.7278510  58.8387330  12.5978940  61.7852840  58.9636750
  12.7050860  63.0894150  59.7250090  10.8122630  60.9092130  65.0779770
  11.2291420  60.6952240  64.2433230  11.5362450  61.1664920  65.6488390
   8.2502890  58.3543830  58.1949820   7.3232170  58.2881210  58.4238290
   8.4027710  59.2923960  58.0805060   8.2371970  54.6260830  55.1916980
   7.2975640  54.7874790  55.2769440   8.5555230  55.3446510  54.6452970
  14.7584730  59.3079350  65.1696010  13.9303360  59.3772440  64.6946140
  15.3535210  59.8933660  64.7011840  12.2800180  59.9164130  58.6985070
  11.6612600  59.5783680  58.0511370  12.2624630  59.2723890  59.4064260
  11.7226740  56.0948670  66.1150880  11.3097920  56.9202380  66.3690870
  10.9902690  55.5093710  65.9227240   3.8559530  58.8808570  60.9769550
   3.4516530  58.1685820  60.4815450   3.9422650  58.5361810  61.8657590
   4.3241230  62.5676130  63.1408760   4.0269520  61.9621600  62.4616540
   5.2741050  62.6053440  63.0298120   2.5688150  55.6551780  64.7568590
   3.1202740  55.7647120  63.9821840   3.0831660  56.0289380  65.4723820
  12.4126840  66.1408000  66.8031860  11.9357400  66.9480190  66.6104470
  11.7288630  65.4886330  66.9558070   3.4159660  62.3057820  69.7916560
   2.5188190  62.5297790  70.0389960   3.4412530  62.4292760  68.8427960
  10.4564880  59.1550940  55.7057820  10.8958160  58.3173370  55.5595640
  11.1693300  59.7880340  55.7921960   2.2430880  59.1771140  68.3673930
   2.1038650  60.0493940  68.7361330   1.3612240  58.8343950  68.2221870
   8.5660260  64.0947010  59.6739060   9.0056170  64.8371340  59.2594450
   8.5047150  64.3373580  60.5978020   4.0411230  65.1192840  70.5759080
   4.0126660  65.5235790  69.7087510   3.8776200  64.1903200  70.4130680
  14.0382020  50.4093750  54.0198860  13.7254680  50.5020580  54.9197930
  14.7994490  50.9874780  53.9696290  15.9926050  65.9019940  71.8723250
  16.4685770  66.3802830  72.5512330  16.6133210  65.8337430  71.1468750
  15.3959300  63.0932790  69.0323260  15.5222360  62.8544670  68.1140440
  15.4380680  62.2617330  69.5045340   9.2576040  66.7960790  67.6018070
   9.7720710  66.7068800  68.4040500   8.4145120  67.1420490  67.8945980
  11.2330440  67.0816130  57.0302070  11.0731580  66.7919070  57.9283900
  11.0677150  66.3056260  56.4947300   3.7118820  66.8614660  58.8073690
   3.5361300  65.9450200  58.5941490   2.8574560  67.2201950  59.0471490
  10.9356570  64.5903690  55.5900070  10.2421730  64.5880980  54.9302350
  11.6779430  64.1663010  55.1594240  10.5006500  66.2166400  59.6648560
  10.9563450  65.4355780  59.9787180  10.8399020  66.9273220  60.2089740
  15.2483310  55.1465250  69.9973000  14.6327580  55.6544920  69.4688460
  14.9279730  54.2463580  69.9398940   3.0227820  51.1188620  61.8599870
   2.5795970  51.8998160  61.5284390   3.5812810  51.4418510  62.5670810
   7.3097630  53.9857140  67.4635190   6.8477000  54.1940160  68.2755130
   6.9075740  53.1716490  67.1605860  12.3102140  55.2066090  68.5931850
  11.4595730  54.9071840  68.9140920  12.1503930  55.4508100  67.6815670
   9.4051850  56.7067840  70.6930640   9.7305260  55.8731590  70.3532870
  10.1932180  57.2296360  70.8408970   6.1386640  50.7399320  56.7405700
   5.5140820  50.7359190  57.4659010   6.0516760  49.8730280  56.3441670
   5.0603720  51.6635950  63.7189470   5.3576050  52.5698780  63.6381490
   5.6089280  51.1754730  63.1049040   2.8142040  56.2422190  59.5881120
   2.5882960  56.0259360  60.4927740   2.0334570  56.6750650  59.2427090
  10.0439800  56.2485560  58.1871770   9.4448690  56.9721360  58.0035390
  10.5919410  56.1862340  57.4048220   5.2541250  57.1407770  70.2541390
   5.1584850  56.2002500  70.1041790   6.0973230  57.3622840  69.8589460
   8.6504670  54.8849100  60.2175050   9.0434240  55.2021300  59.4043740
   9.0121520  54.0060980  60.3319570   6.9596840  53.6356410  71.4771910
   6.2695160  53.4428610  72.1118000   7.7029140  53.9191050  72.0096210
   9.2359810  57.4754850  64.3125830   8.5040930  57.9841660  64.6615930
   8.8384150  56.6584830  64.0114610   5.6737200  54.1509050  62.7178320
   5.6773260  53.7099000  61.8682860   6.5688320  54.4726380  62.8250140
   5.7357350  55.1521130  55.7085080   5.8570170  55.1107610  56.6570900
   5.3505860  56.0145280  55.5531810   9.6985720  52.9288530  63.7248770
   9.7158460  53.3797180  64.5690620   9.4501300  52.0294170  63.9382210
   4.7478850  57.4622270  55.1068380   4.1795750  57.0140520  54.4804290
   5.4567850  57.8215050  54.5733530  13.1256470  50.3420710  69.5635150
  13.4502240  49.6110370  70.0893130  13.1612980  50.0234350  68.6616140
   5.9745170  58.2110830  64.4643730   6.3415300  57.7369400  65.2105070
   5.7850230  59.0852400  64.8052070   3.7644540  57.2519470  66.7827940
   3.4601610  58.1311450  67.0078300   4.7191000  57.3119260  66.8185380
   2.2926330  61.4580460  57.3794790   1.5188590  60.9178080  57.2193510
   3.0220960  60.9387070  57.0412550  13.0514310  60.4545820  63.1721180
  13.7713430  60.9501110  62.7817290  12.8496130  59.7763710  62.5275050
   8.5124250  51.8483780  57.3150570   7.6988860  51.3496950  57.2395880
   8.3186200  52.6882030  56.8986920   8.4333110  60.5254880  69.0590180
   8.3670420  59.6050550  68.8047770   7.8038250  60.6230320  69.7734820
  11.2272640  56.2203430  55.6112730  12.1152260  56.5320660  55.4364070
  11.1977730  55.3475680  55.2193310   2.3363730  61.1260840  61.0173600
   2.8542400  60.3229100  60.9630490   1.8847750  61.0639980  61.8590430
   7.2233230  62.3927120  56.2900900   7.5648930  63.1369350  55.7944220
   6.3945940  62.7058240  56.6525730   3.0221390  58.5506450  70.8138850
   2.7221530  58.6963630  69.9166670   3.7932630  57.9911740  70.7212240
   8.3649840  63.3475450  68.8093980   8.3794380  62.4156410  68.5912890
   7.6574940  63.4335210  69.4483750  13.4986910  57.5315270  55.0792590
  13.4150630  57.9629490  54.2289030  14.2181100  57.9913620  55.5119410
  14.5761050  59.9882790  68.1562560  13.8509240  60.5811570  67.9591950
  15.1036510  59.9806330  67.3575930  14.5274160  64.3857530  57.8074720
  13.8850320  63.7313150  58.0818440  14.1404820  64.7912620  57.0315390
  10.1060640  61.7142960  61.6546410  10.4584460  61.1171090  60.9947780
   9.2222970  61.3887190  61.8254660   6.1923920  62.4740650  59.0616820
   6.8795050  63.0209860  59.4424410   5.4056340  63.0181380  59.0966430
   5.4951130  59.4786680  58.6742180   5.9513910  60.2891930  58.9002370
   5.1439340  59.1609820  59.5060670   7.7983740  64.9893020  65.9034480
   8.4425960  65.1952400  66.5807900   8.1613180  64.2281420  65.4505330
   9.0715820  62.9925370  64.6211930   9.7138050  62.2918530  64.7344100
   9.5965170  63.7723810  64.4408820  12.9171540  63.2773990  54.3451070
  12.6909120  62.5604430  54.9375710  12.5267740  63.0286430  53.5072820
  10.8453440  63.7920270  67.8247990  11.1809680  64.3786960  68.5025910
   9.9253780  63.6612980  68.0545780  12.4987790  61.1945930  56.0065230
  12.2109490  61.6558620  56.7943110  13.2939960  60.7343700  56.2749450
   6.6742020  63.8411600  70.9936050   6.3538890  63.1220840  71.5381740
   6.0000380  64.5166670  71.0672110   4.7156190  64.6872050  55.9369200
   4.7066290  65.4201740  55.3213710   3.7954550  64.4403630  56.0296160
   9.8895620  54.0737760  66.3572850  10.2576440  53.2532970  66.6852420
   9.0293820  54.1339650  66.7728500  13.2557650  53.0294700  57.1660410
  12.6270810  53.1340370  56.4518640  12.7609570  53.2491480  57.9554290
   7.7015790  64.7500290  54.5994390   7.8027770  64.5464280  53.6696370
   6.8017530  64.4958570  54.8042170   5.2241680  55.3080650  58.5818290
   4.5157830  55.7766990  59.0231900   5.5086160  54.6502660  59.2163480
   6.8497610  56.7277350  66.5810820   7.3482860  57.2023170  67.2462670
   6.9920560  55.8040870  66.7880850   9.2557110  52.0331310  60.0214080
   9.1324890  52.0517440  59.0723590  10.2041670  52.0810250  60.1412480
   6.3433900  67.2686610  59.2942060   6.5975400  67.2308000  58.3721430
   5.3946380  67.1419940  59.2870310   3.4276700  53.6165730  55.9569000
   4.2767230  54.0535880  55.8909190   3.0607970  53.9285990  56.7841060
  14.0564470  52.9445310  67.4239210  13.5538070  53.6850710  67.7633020
  14.8721130  53.3329310  67.1076000  12.3486480  58.1878490  60.8700570
  11.4076620  58.2028720  61.0448260  12.6630550  57.4014450  61.3160870
   2.3268120  59.8698090  54.4304530   3.0931390  59.7579450  54.9929960
   2.4042810  59.1736060  53.7781300  14.3512060  65.3587340  62.5454830
  14.4759480  66.1818510  63.0178640  15.2177620  65.1478070  62.1978980
   1.8229590  67.4518550  62.2171960   2.5592070  66.9034010  62.4880530
   2.2070510  68.3174560  62.0777950   4.9331900  66.6248860  54.0397530
   5.7260510  66.9137690  53.5879320   4.4136250  66.1941030  53.3610010
   9.6652500  62.7444490  71.3532950   9.0590660  62.7676090  70.6128700
   9.3606610  62.0127530  71.8900200  11.0952870  66.4724780  69.9642360
  12.0474620  66.3882800  69.9142600  10.9481090  67.1366490  70.6376150
  13.9862070  65.8518990  55.4634270  13.7003580  65.4384130  54.6488450
  13.7881620  66.7806700  55.3434790   5.4509300  61.8452270  53.9039880
   5.3459940  61.2304620  54.6301260   5.2833520  61.3218160  53.1202890
   5.6023620  60.5309070  69.8829110   4.8369290  61.0994070  69.7983780
   5.7839580  60.2385280  68.9897340   8.6912030  60.9072300  54.5081870
   8.1422130  61.3541600  55.1524610   9.3131290  60.4021550  55.0319540
  12.7446970  62.2614400  70.4404130  13.4856440  62.5990160  69.9371590
  11.9819650  62.4306460  69.8873900   4.3587150  59.8663220  56.4047170
   4.7803570  59.7003090  57.2478560   4.4837990  59.0563450  55.9102310
   2.5214570  55.8459770  69.2118150   1.9911030  55.3550720  68.5841490
   3.1902640  56.2743970  68.6776080   6.8714790  58.8900830  53.6524270
   7.3920450  58.1749850  53.2865420   7.5183190  59.5286700  53.9524780
  11.4192630  60.3129230  68.9759340  11.8333650  60.4674310  69.8249760
  10.4843630  60.4384450  69.1385120  11.8914800  57.6525390  70.9798490
  12.4735570  56.8977710  70.8918970  12.0676570  58.1832830  70.2029970
   3.0086870  52.8122140  69.2915440   2.9143740  52.1942890  68.5666310
   2.4284260  53.5388430  69.0645350   5.7748310  51.3695380  66.3242830
   5.3265610  51.3919640  65.4788380   5.1413510  50.9714400  66.9213130
   6.1807860  60.2649710  66.9455270   6.5995970  61.1082440  66.7731510
   5.2616490  60.4021750  66.7162050   8.5171760  57.9965890  68.3293110
   8.6367970  57.4007030  69.0687950   9.3765760  58.0335580  67.9094410
  10.8559660  58.5503080  66.9055620  10.3294880  59.0745700  66.3020760
  11.1991000  59.1830470  67.5365350   3.2546050  55.9396450  53.3505330
   3.0535110  55.0763810  53.7118670   3.0838100  55.8529810  52.4126930
   4.0315280  66.5702720  68.0613000   3.4936370  67.2948780  67.7421700
   4.2849240  66.0933060  67.2710340   5.2840530  54.5387240  69.5868930
   5.8740220  54.2303090  70.2746750   4.4660770  54.0666990  69.7428830
  10.1033960  54.1553050  69.8201950   9.4149480  53.4934590  69.7551940
  10.8239980  53.7091320  70.2650410  10.7334360  50.7504680  55.8792210
  11.0136650  49.9072580  56.2351630   9.9600090  50.9827790  56.3930960
   2.0528850  53.0397070  53.3383210   2.3554750  53.0464500  52.4302360
   2.7923440  52.6894930  53.8350870   6.8877490  67.8053930  68.3199650
   6.8136190  68.7089070  68.6272020   5.9856330  67.4865830  68.2921720
   5.2713780  51.9831690  54.3239410   4.9235780  51.3055680  53.7441860
   5.4726550  51.5221200  55.1382800   7.4362820  66.9712440  55.9426010
   8.3313610  67.3097410  55.9644770   7.4680450  66.2491850  55.3150290
   2.8866700  63.4637530  59.2835240   2.5862240  63.3402500  60.1839150
   2.7804190  62.6046120  58.8750970  14.4157170  65.5016110  68.6492210
  13.8159160  65.5608670  67.9056130  14.5451070  64.5621090  68.7789060
  15.6558620  63.2433930  53.9861920  14.8251580  63.3110580  54.4569150
  15.8330450  64.1338050  53.6828780  15.1115080  59.9881410  56.4896120
  15.8733990  60.5578060  56.5955810  15.1269450  59.4208610  57.2604430
  16.1175050  60.8431510  61.3338050  16.4883880  60.0598830  60.9274020
  16.7576980  61.5320610  61.1555350  13.1008810  62.2268090  66.7468370
  12.2868650  62.6565250  67.0094160  13.5083010  62.8386500  66.1337420
  15.1634250  60.2815780  53.6468640  15.4383090  61.1894660  53.5187860
  14.9744990  60.2178310  54.5830630  11.5609860  53.3060630  54.9422270
  11.9794740  53.1191610  54.1018930  11.2545920  52.4539680  55.2525200
  15.0599590  58.2184770  58.6398070  14.6843190  57.4512700  58.2079360
  14.3302710  58.6007470  59.1273000  14.4499210  57.3656290  68.2737590
  14.2185300  57.1369040  67.3735540  14.7103760  58.2855840  68.2282480
  12.8887280  52.5912720  71.0517290  13.7657460  52.5996120  71.4351290
  12.9008120  51.8543560  70.4409640  14.3350550  56.4442260  61.9405310
  14.8588030  55.9504910  61.3095480  14.9209970  56.5792620  62.6852880
  14.5140270  56.5282130  65.4624860  13.5642980  56.4945670  65.5769850
  14.6953280  57.4382240  65.2274630  13.8250520  55.7015610  57.8797720
  14.3209640  55.4686480  58.6646600  13.6266590  54.8627450  57.4635360
  15.2537680  54.3376560  60.4135400  15.1436960  54.1832600  61.3517670
  16.0145270  53.8097500  60.1710810  13.6003400  50.2770690  66.8718400
  14.2375620  50.8904830  67.2377590  13.7478290  50.3131350  65.9267630
  16.1427950  52.1684480  53.6541540  17.0677260  52.0365660  53.4459830
  16.1203740  52.2477300  54.6077990  16.2166440  52.9395140  56.2798250
  15.4217940  52.8740260  56.8091160  16.4209720  53.8745780  56.2683600
  13.1584860  66.9786690  60.2736640  13.7543930  66.6571260  59.5971060
  13.4163010  66.5058510  61.0649910   4.7653460  64.9664190  66.0236990
   4.5244820  65.2338750  65.1367510   5.7056100  65.1369920  66.0787850
   6.9707880  51.4296880  69.7793500   6.9096770  52.0218710  70.5288910
   7.9108260  51.3222840  69.6343760   9.6082440  51.0866940  69.4185790
  10.2222850  51.4046230  68.7566870  10.1532000  50.6015530  70.0381650
  16.0257620  66.9858570  66.8247630  15.5315900  67.3827440  66.1074760
  15.4170910  66.3607780  67.2184910  10.3490480  49.6499080  65.7455080
   9.4750320  49.9834190  65.5428010  10.2401230  49.1772260  66.5706950
  11.2562460  51.8569950  67.1296800  10.9275820  51.0421710  66.7498530
  12.2044760  51.8139760  67.0062490  13.7097070  67.6281990  64.1034370
  13.2500040  68.3797800  63.7292390  13.0809530  66.9088460  64.0449170
   4.1392790  65.9370230  63.2782500   4.6557810  65.3257590  62.7530760
   4.7890170  66.4399010  63.7693510   6.8788290  66.8278720  64.1051480
   7.1666100  66.5733020  63.2284490   7.3911510  66.2756080  64.6957050
   8.0965300  50.5668920  64.6847990   7.3137090  51.0414420  64.9644750
   7.8028230  49.6623750  64.5761170  12.6486370  51.2692020  62.7297080
  13.0894460  51.2137120  61.8818680  12.3793960  52.1850030  62.8007260
  14.5124940  50.9007260  60.7405900  14.4513340  49.9568480  60.5936920
  15.2916970  51.0087350  61.2859360   5.9819520  52.9855670  60.1964020
   5.1694030  52.6112560  59.8559900   6.4861160  52.2300750  60.4985210
  10.4844500  49.6498120  61.4347090  11.0873870  50.2218330  61.9095610
   9.7437490  50.2137560  61.2120990  13.6279100  50.0519680  56.7087370
  13.8229730  50.9503130  56.9754800  12.8408970  49.8206760  57.2020320
   1.8130860  51.3980450  55.7463680   2.3423620  50.6110250  55.6171630
   2.4459180  52.0771640  55.9799210   4.0068700  51.1355590  58.8009070
   3.3771440  50.4342900  58.9679200   3.4673840  51.8959720  58.5842230
   6.9460650  67.7494820  71.4719680   7.8727960  67.5139090  71.5155640
   6.9311080  68.5766820  70.9905710  15.1805710  67.2920390  58.4693930
  15.3557900  66.6058130  57.8254850  14.4827280  67.8167440  58.0770600
   4.1324260  50.4139570  71.2361560   3.8508530  50.9173170  70.4722380
   4.5143960  49.6161320  70.8703690   3.0233360  67.6815230  56.0229240
   3.7552180  67.3974510  55.4753130   3.2827030  67.4428510  56.9128620
   2.1848150  63.7979960  56.0275570   1.5557030  64.2665060  56.5761400
   2.2995980  62.9529180  56.4621760  10.7339720  49.8293150  71.8142030
  10.6205170  50.1487760  72.7093550  11.5509460  50.2305660  71.5179310
  13.5138210  66.9764680  71.2960720  14.3063530  66.4813910  71.0886680
  13.8071360  67.6554820  71.9036330   9.6397870  57.8485620  42.1776770
   9.5591920  56.9340230  41.9068480   9.2262290  58.3452690  41.4716480
   7.7715910  59.6264640  44.0586040   6.9958010  59.1465080  44.3484610
   8.4228840  58.9470290  43.8842200  11.7923340  64.0324830  42.8385170
  11.3304870  63.2612070  43.1672340  12.6048890  64.0590900  43.3437620
   1.7683000  63.9724540  45.1319820   2.0711040  63.0822280  44.9530040
   2.5126590  64.5294760  44.9042070   8.0186650  66.3182840  42.4589160
   7.3998090  66.7740340  41.8883600   8.8738430  66.4734300  42.0578860
   7.2124900  62.3021830  44.0656200   7.1433180  61.3611770  43.9045330
   7.9744760  62.3923240  44.6378770   8.2430070  55.1092210  44.2925130
   8.6194890  54.2364090  44.1798800   8.1449580  55.4450910  43.4015570
   2.3735080  53.4817840  39.7542570   2.4801830  54.3821570  40.0611330
   1.4627440  53.4335810  39.4637220  12.0254190  52.6042650  41.2253470
  12.8463810  52.1139220  41.2678950  12.0588270  53.1940310  41.9785310
   4.2142810  56.4504210  44.0867750   4.7221030  56.9485180  44.7272770
   4.7456050  55.6739410  43.9107110  16.3153740  54.6209400  47.7897100
  15.6105910  55.0091110  47.2712210  16.5811660  55.3159690  48.3918030
   2.4978910  51.0902770  48.3531170   2.4997350  51.6075160  47.5477070
   1.6683220  50.6132950  48.3301100   8.8850000  61.2022080  39.8521070
   8.2667270  61.6671530  39.2883790   9.3973250  61.8949560  40.2690580
   3.7481760  60.7297950  46.5304670   3.4151140  61.3566870  47.1725740
   3.9248440  61.2559830  45.7506340  12.2615670  54.5443030  43.9981010
  11.5571240  54.8327920  44.5784120  12.6227830  55.3543140  43.6380570
   2.1794240  52.8012730  46.3601620   2.5211050  53.6454780  46.0655490
   1.2410050  52.9496470  46.4766960   2.9600860  62.6978750  48.3453850
   3.5774860  63.3729830  48.0638300   2.0993980  63.1066730  48.2541350
  13.8778450  64.1618160  46.2608490  13.1941970  64.8317270  46.2525160
  14.4172740  64.3598810  45.4953350  15.3302590  53.9897820  44.3890220
  14.3827500  54.0236800  44.5205650  15.6552580  54.8036770  44.7739580
   5.8622130  50.2895000  42.6846210   6.1697110  49.7341890  41.9681710
   4.9322830  50.4239460  42.5019200  11.4137190  66.0062290  44.9753670
  11.4264350  65.6024580  44.1075930  10.8612410  66.7809580  44.8715100
  12.7082610  62.7278510  40.0643840  12.5978940  61.7852840  40.1893260
  12.7050860  63.0894150  40.9506600  10.8122630  60.9092130  46.3036280
  11.2291420  60.6952240  45.4689740  11.5362450  61.1664920  46.8744900
   8.2502890  58.3543830  39.4206330   7.3232170  58.2881210  39.6494800
   8.4027710  59.2923960  39.3061570   8.2371970  54.6260830  36.4173490
   7.2975640  54.7874790  36.5025950   8.5555230  55.3446510  35.8709480
  14.7584730  59.3079350  46.3952520  13.9303360  59.3772440  45.9202650
  15.3535210  59.8933660  45.9268350  12.2800180  59.9164130  39.9241580
  11.6612600  59.5783680  39.2767880  12.2624630  59.2723890  40.6320770
  11.7226740  56.0948670  47.3407390  11.3097920  56.9202380  47.5947380
  10.9902690  55.5093710  47.1483750   3.8559530  58.8808570  42.2026060
   3.4516530  58.1685820  41.7071960   3.9422650  58.5361810  43.0914100
   4.3241230  62.5676130  44.3665270   4.0269520  61.9621600  43.6873050
   5.2741050  62.6053440  44.2554630   2.5688150  55.6551780  45.9825100
   3.1202740  55.7647120  45.2078350   3.0831660  56.0289380  46.6980330
  12.4126840  66.1408000  48.0288370  11.9357400  66.9480190  47.8360980
  11.7288630  65.4886330  48.1814580   3.4159660  62.3057820  51.0173070
   2.5188190  62.5297790  51.2646470   3.4412530  62.4292760  50.0684470
  10.4564880  59.1550940  36.9314330  10.8958160  58.3173370  36.7852150
  11.1693300  59.7880340  37.0178470   2.2430880  59.1771140  49.5930440
   2.1038650  60.0493940  49.9617840   1.3612240  58.8343950  49.4478380
   8.5660260  64.0947010  40.8995570   9.0056170  64.8371340  40.4850960
   8.5047150  64.3373580  41.8234530   4.0411230  65.1192840  51.8015590
   4.0126660  65.5235790  50.9344020   3.8776200  64.1903200  51.6387190
  15.9926050  65.9019940  53.0979760  16.4685770  66.3802830  53.7768840
  16.6133210  65.8337430  52.3725260  15.3959300  63.0932790  50.2579770
  15.5222360  62.8544670  49.3396950  15.4380680  62.2617330  50.7301850
   9.2576040  66.7960790  48.8274580   9.7720710  66.7068800  49.6297010
   8.4145120  67.1420490  49.1202490  11.2330440  67.0816130  38.2558580
  11.0731580  66.7919070  39.1540410  11.0677150  66.3056260  37.7203810
   3.7118820  66.8614660  40.0330200   3.5361300  65.9450200  39.8198000
   2.8574560  67.2201950  40.2728000  10.9356570  64.5903690  36.8156580
  10.2421730  64.5880980  36.1558860  11.6779430  64.1663010  36.3850750
  10.5006500  66.2166400  40.8905070  10.9563450  65.4355780  41.2043690
  10.8399020  66.9273220  41.4346250  15.2483310  55.1465250  51.2229510
  14.6327580  55.6544920  50.6944970  14.9279730  54.2463580  51.1655450
   3.0227820  51.1188620  43.0856380   2.5795970  51.8998160  42.7540900
   3.5812810  51.4418510  43.7927320   7.3097630  53.9857140  48.6891700
   6.8477000  54.1940160  49.5011640   6.9075740  53.1716490  48.3862370
  12.3102140  55.2066090  49.8188360  11.4595730  54.9071840  50.1397430
  12.1503930  55.4508100  48.9072180   9.4051850  56.7067840  51.9187150
   9.7305260  55.8731590  51.5789380  10.1932180  57.2296360  52.0665480
   6.1386640  50.7399320  37.9662210   5.5140820  50.7359190  38.6915520
   6.0516760  49.8730280  37.5698180   5.0603720  51.6635950  44.9445980
   5.3576050  52.5698780  44.8638000   5.6089280  51.1754730  44.3305550
   2.8142040  56.2422190  40.8137630   2.5882960  56.0259360  41.7184250
   2.0334570  56.6750650  40.4683600  10.0439800  56.2485560  39.4128280
   9.4448690  56.9721360  39.2291900  10.5919410  56.1862340  38.6304730
   5.2541250  57.1407770  51.4797900   5.1584850  56.2002500  51.3298300
   6.0973230  57.3622840  51.0845970   8.6504670  54.8849100  41.4431560
   9.0434240  55.2021300  40.6300250   9.0121520  54.0060980  41.5576080
   6.9596840  53.6356410  52.7028420   6.2695160  53.4428610  53.3374510
   7.7029140  53.9191050  53.2352720   9.2359810  57.4754850  45.5382340
   8.5040930  57.9841660  45.8872440   8.8384150  56.6584830  45.2371120
   5.6737200  54.1509050  43.9434830   5.6773260  53.7099000  43.0939370
   6.5688320  54.4726380  44.0506650   5.7357350  55.1521130  36.9341590
   5.8570170  55.1107610  37.8827410   5.3505860  56.0145280  36.7788320
   9.6985720  52.9288530  44.9505280   9.7158460  53.3797180  45.7947130
   9.4501300  52.0294170  45.1638720   4.7478850  57.4622270  36.3324890
   4.1795750  57.0140520  35.7060800   5.4567850  57.8215050  35.7990040
  13.1256470  50.3420710  50.7891660  13.4502240  49.6110370  51.3149640
  13.1612980  50.0234350  49.8872650   5.9745170  58.2110830  45.6900240
   6.3415300  57.7369400  46.4361580   5.7850230  59.0852400  46.0308580
   3.7644540  57.2519470  48.0084450   3.4601610  58.1311450  48.2334810
   4.7191000  57.3119260  48.0441890   2.2926330  61.4580460  38.6051300
   1.5188590  60.9178080  38.4450020   3.0220960  60.9387070  38.2669060
  13.0514310  60.4545820  44.3977690  13.7713430  60.9501110  44.0073800
  12.8496130  59.7763710  43.7531560   8.5124250  51.8483780  38.5407080
   7.6988860  51.3496950  38.4652390   8.3186200  52.6882030  38.1243430
   8.4333110  60.5254880  50.2846690   8.3670420  59.6050550  50.0304280
   7.8038250  60.6230320  50.9991330  11.2272640  56.2203430  36.8369240
  12.1152260  56.5320660  36.6620580  11.1977730  55.3475680  36.4449820
   2.3363730  61.1260840  42.2430110   2.8542400  60.3229100  42.1887000
   1.8847750  61.0639980  43.0846940   7.2233230  62.3927120  37.5157410
   7.5648930  63.1369350  37.0200730   6.3945940  62.7058240  37.8782240
   3.0221390  58.5506450  52.0395360   2.7221530  58.6963630  51.1423180
   3.7932630  57.9911740  51.9468750   8.3649840  63.3475450  50.0350490
   8.3794380  62.4156410  49.8169400   7.6574940  63.4335210  50.6740260
  13.4986910  57.5315270  36.3049100  13.4150630  57.9629490  35.4545540
  14.2181100  57.9913620  36.7375920  14.5761050  59.9882790  49.3819070
  13.8509240  60.5811570  49.1848460  15.1036510  59.9806330  48.5832440
  14.5274160  64.3857530  39.0331230  13.8850320  63.7313150  39.3074950
  14.1404820  64.7912620  38.2571900  10.1060640  61.7142960  42.8802920
  10.4584460  61.1171090  42.2204290   9.2222970  61.3887190  43.0511170
   6.1923920  62.4740650  40.2873330   6.8795050  63.0209860  40.6680920
   5.4056340  63.0181380  40.3222940   5.4951130  59.4786680  39.8998690
   5.9513910  60.2891930  40.1258880   5.1439340  59.1609820  40.7317180
   7.7983740  64.9893020  47.1290990   8.4425960  65.1952400  47.8064410
   8.1613180  64.2281420  46.6761840   9.0715820  62.9925370  45.8468440
   9.7138050  62.2918530  45.9600610   9.5965170  63.7723810  45.6665330
  12.9171540  63.2773990  35.5707580  12.6909120  62.5604430  36.1632220
  12.5267740  63.0286430  34.7329330  10.8453440  63.7920270  49.0504500
  11.1809680  64.3786960  49.7282420   9.9253780  63.6612980  49.2802290
  12.4987790  61.1945930  37.2321740  12.2109490  61.6558620  38.0199620
  13.2939960  60.7343700  37.5005960   6.6742020  63.8411600  52.2192560
   6.3538890  63.1220840  52.7638250   6.0000380  64.5166670  52.2928620
   4.7156190  64.6872050  37.1625710   4.7066290  65.4201740  36.5470220
   3.7954550  64.4403630  37.2552670   9.8895620  54.0737760  47.5829360
  10.2576440  53.2532970  47.9108930   9.0293820  54.1339650  47.9985010
  13.2557650  53.0294700  38.3916920  12.6270810  53.1340370  37.6775150
  12.7609570  53.2491480  39.1810800   7.7015790  64.7500290  35.8250900
   7.8027770  64.5464280  34.8952880   6.8017530  64.4958570  36.0298680
   5.2241680  55.3080650  39.8074800   4.5157830  55.7766990  40.2488410
   5.5086160  54.6502660  40.4419990   6.8497610  56.7277350  47.8067330
   7.3482860  57.2023170  48.4719180   6.9920560  55.8040870  48.0137360
   9.2557110  52.0331310  41.2470590   9.1324890  52.0517440  40.2980100
  10.2041670  52.0810250  41.3668990   6.3433900  67.2686610  40.5198570
   6.5975400  67.2308000  39.5977940   5.3946380  67.1419940  40.5126820
   3.4276700  53.6165730  37.1825510   4.2767230  54.0535880  37.1165700
   3.0607970  53.9285990  38.0097570  14.0564470  52.9445310  48.6495720
  13.5538070  53.6850710  48.9889530  14.8721130  53.3329310  48.3332510
  12.3486480  58.1878490  42.0957080  11.4076620  58.2028720  42.2704770
  12.6630550  57.4014450  42.5417380   2.3268120  59.8698090  35.6561040
   3.0931390  59.7579450  36.2186470   2.4042810  59.1736060  35.0037810
  14.3512060  65.3587340  43.7711340  14.4759480  66.1818510  44.2435150
  15.2177620  65.1478070  43.4235490   1.8229590  67.4518550  43.4428470
   2.5592070  66.9034010  43.7137040   2.2070510  68.3174560  43.3034460
   4.9331900  66.6248860  35.2654040   5.7260510  66.9137690  34.8135830
   4.4136250  66.1941030  34.5866520   9.6652500  62.7444490  52.5789460
   9.0590660  62.7676090  51.8385210   9.3606610  62.0127530  53.1156710
  11.0952870  66.4724780  51.1898870  12.0474620  66.3882800  51.1399110
  10.9481090  67.1366490  51.8632660  13.9862070  65.8518990  36.6890780
  13.7003580  65.4384130  35.8744960  13.7881620  66.7806700  36.5691300
   5.4509300  61.8452270  35.1296390   5.3459940  61.2304620  35.8557770
   5.2833520  61.3218160  34.3459400   5.6023620  60.5309070  51.1085620
   4.8369290  61.0994070  51.0240290   5.7839580  60.2385280  50.2153850
   8.6912030  60.9072300  35.7338380   8.1422130  61.3541600  36.3781120
   9.3131290  60.4021550  36.2576050  12.7446970  62.2614400  51.6660640
  13.4856440  62.5990160  51.1628100  11.9819650  62.4306460  51.1130410
   4.3587150  59.8663220  37.6303680   4.7803570  59.7003090  38.4735070
   4.4837990  59.0563450  37.1358820   2.5214570  55.8459770  50.4374660
   1.9911030  55.3550720  49.8098000   3.1902640  56.2743970  49.9032590
   6.8714790  58.8900830  34.8780780   7.3920450  58.1749850  34.5121930
   7.5183190  59.5286700  35.1781290  11.4192630  60.3129230  50.2015850
  11.8333650  60.4674310  51.0506270  10.4843630  60.4384450  50.3641630
  11.8914800  57.6525390  52.2055000  12.4735570  56.8977710  52.1175480
  12.0676570  58.1832830  51.4286480   3.0086870  52.8122140  50.5171950
   2.9143740  52.1942890  49.7922820   2.4284260  53.5388430  50.2901860
   5.7748310  51.3695380  47.5499340   5.3265610  51.3919640  46.7044890
   5.1413510  50.9714400  48.1469640   6.1807860  60.2649710  48.1711780
   6.5995970  61.1082440  47.9988020   5.2616490  60.4021750  47.9418560
   8.5171760  57.9965890  49.5549620   8.6367970  57.4007030  50.2944460
   9.3765760  58.0335580  49.1350920  10.8559660  58.5503080  48.1312130
  10.3294880  59.0745700  47.5277270  11.1991000  59.1830470  48.7621860
   3.2546050  55.9396450  34.5761840   3.0535110  55.0763810  34.9375180
   3.0838100  55.8529810  33.6383440   4.0315280  66.5702720  49.2869510
   3.4936370  67.2948780  48.9678210   4.2849240  66.0933060  48.4966850
   5.2840530  54.5387240  50.8125440   5.8740220  54.2303090  51.5003260
   4.4660770  54.0666990  50.9685340  10.1033960  54.1553050  51.0458460
   9.4149480  53.4934590  50.9808450  10.8239980  53.7091320  51.4906920
  10.7334360  50.7504680  37.1048720  11.0136650  49.9072580  37.4608140
   9.9600090  50.9827790  37.6187470   2.0528850  53.0397070  34.5639720
   2.3554750  53.0464500  33.6558870   2.7923440  52.6894930  35.0607380
   6.8877490  67.8053930  49.5456160   6.8136190  68.7089070  49.8528530
   5.9856330  67.4865830  49.5178230   5.2713780  51.9831690  35.5495920
   4.9235780  51.3055680  34.9698370   5.4726550  51.5221200  36.3639310
   7.4362820  66.9712440  37.1682520   8.3313610  67.3097410  37.1901280
   7.4680450  66.2491850  36.5406800   2.8866700  63.4637530  40.5091750
   2.5862240  63.3402500  41.4095660   2.7804190  62.6046120  40.1007480
  14.4157170  65.5016110  49.8748720  13.8159160  65.5608670  49.1312640
  14.5451070  64.5621090  50.0045570  15.6558620  63.2433930  35.2118430
  14.8251580  63.3110580  35.6825660  15.8330450  64.1338050  34.9085290
  15.1115080  59.9881410  37.7152630  15.8733990  60.5578060  37.8212320
  15.1269450  59.4208610  38.4860940  16.1175050  60.8431510  42.5594560
  16.4883880  60.0598830  42.1530530  16.7576980  61.5320610  42.3811860
  13.1008810  62.2268090  47.9724880  12.2868650  62.6565250  48.2350670
  13.5083010  62.8386500  47.3593930  15.1634250  60.2815780  34.8725150
  15.4383090  61.1894660  34.7444370  14.9744990  60.2178310  35.8087140
  11.5609860  53.3060630  36.1678780  11.9794740  53.1191610  35.3275440
  11.2545920  52.4539680  36.4781710  15.0599590  58.2184770  39.8654580
  14.6843190  57.4512700  39.4335870  14.3302710  58.6007470  40.3529510
  14.4499210  57.3656290  49.4994100  14.2185300  57.1369040  48.5992050
  14.7103760  58.2855840  49.4538990  12.8887280  52.5912720  52.2773800
  13.7657460  52.5996120  52.6607800  12.9008120  51.8543560  51.6666150
  14.3350550  56.4442260  43.1661820  14.8588030  55.9504910  42.5351990
  14.9209970  56.5792620  43.9109390  14.5140270  56.5282130  46.6881370
  13.5642980  56.4945670  46.8026360  14.6953280  57.4382240  46.4531140
  13.8250520  55.7015610  39.1054230  14.3209640  55.4686480  39.8903110
  13.6266590  54.8627450  38.6891870  15.2537680  54.3376560  41.6391910
  15.1436960  54.1832600  42.5774180  16.0145270  53.8097500  41.3967320
  13.6003400  50.2770690  48.0974910  14.2375620  50.8904830  48.4634100
  13.7478290  50.3131350  47.1524140  13.1584860  66.9786690  41.4993150
  13.7543930  66.6571260  40.8227570  13.4163010  66.5058510  42.2906420
   4.7653460  64.9664190  47.2493500   4.5244820  65.2338750  46.3624020
   5.7056100  65.1369920  47.3044360   6.9707880  51.4296880  51.0050010
   6.9096770  52.0218710  51.7545420   7.9108260  51.3222840  50.8600270
   9.6082440  51.0866940  50.6442300  10.2222850  51.4046230  49.9823380
  10.1532000  50.6015530  51.2638160  16.0257620  66.9858570  48.0504140
  15.5315900  67.3827440  47.3331270  15.4170910  66.3607780  48.4441420
  10.3490480  49.6499080  46.9711590   9.4750320  49.9834190  46.7684520
  10.2401230  49.1772260  47.7963460  11.2562460  51.8569950  48.3553310
  10.9275820  51.0421710  47.9755040  12.2044760  51.8139760  48.2319000
  13.7097070  67.6281990  45.3290880  13.2500040  68.3797800  44.9548900
  13.0809530  66.9088460  45.2705680   4.1392790  65.9370230  44.5039010
   4.6557810  65.3257590  43.9787270   4.7890170  66.4399010  44.9950020
   6.8788290  66.8278720  45.3307990   7.1666100  66.5733020  44.4541000
   7.3911510  66.2756080  45.9213560   8.0965300  50.5668920  45.9104500
   7.3137090  51.0414420  46.1901260   7.8028230  49.6623750  45.8017680
  12.6486370  51.2692020  43.9553590  13.0894460  51.2137120  43.1075190
  12.3793960  52.1850030  44.0263770  14.5124940  50.9007260  41.9662410
  14.4513340  49.9568480  41.8193430  15.2916970  51.0087350  42.5115870
   5.9819520  52.9855670  41.4220530   5.1694030  52.6112560  41.0816410
   6.4861160  52.2300750  41.7241720  10.4844500  49.6498120  42.6603600
  11.0873870  50.2218330  43.1352120   9.7437490  50.2137560  42.4377500
  13.6279100  50.0519680  37.9343880  13.8229730  50.9503130  38.2011310
  12.8408970  49.8206760  38.4276830   1.8130860  51.3980450  36.9720190
   2.3423620  50.6110250  36.8428140   2.4459180  52.0771640  37.2055720
   4.0068700  51.1355590  40.0265580   3.3771440  50.4342900  40.1935710
   3.4673840  51.8959720  39.8098740   6.9460650  67.7494820  52.6976190
   7.8727960  67.5139090  52.7412150   6.9311080  68.5766820  52.2162220
  15.1805710  67.2920390  39.6950440  15.3557900  66.6058130  39.0511360
  14.4827280  67.8167440  39.3027110   4.1324260  50.4139570  52.4618070
   3.8508530  50.9173170  51.6978890   4.5143960  49.6161320  52.0960200
   3.0233360  67.6815230  37.2485750   3.7552180  67.3974510  36.7009640
   3.2827030  67.4428510  38.1385130   2.1848150  63.7979960  37.2532080
   1.5557030  64.2665060  37.8017910   2.2995980  62.9529180  37.6878270
  10.7339720  49.8293150  53.0398540  10.6205170  50.1487760  53.9350060
  11.5509460  50.2305660  52.7435820  13.5138210  66.9764680  52.5217230
  14.3063530  66.4813910  52.3143190  13.8071360  67.6554820  53.1292840
   9.6397870  57.8485620  23.4033280   9.5591920  56.9340230  23.1324990
   9.2262290  58.3452690  22.6972990   7.7715910  59.6264640  25.2842550
   6.9958010  59.1465080  25.5741120   8.4228840  58.9470290  25.1098710
   1.7683000  63.9724540  26.3576330   2.0711040  63.0822280  26.1786550
   2.5126590  64.5294760  26.1298580   8.0186650  66.3182840  23.6845670
   7.3998090  66.7740340  23.1140110   8.8738430  66.4734300  23.2835370
   7.2124900  62.3021830  25.2912710   7.1433180  61.3611770  25.1301840
   7.9744760  62.3923240  25.8635280   8.2430070  55.1092210  25.5181640
   8.6194890  54.2364090  25.4055310   8.1449580  55.4450910  24.6272080
   2.3735080  53.4817840  20.9799080   2.4801830  54.3821570  21.2867840
   1.4627440  53.4335810  20.6893730  12.0254190  52.6042650  22.4509980
  12.8463810  52.1139220  22.4935460  12.0588270  53.1940310  23.2041820
   4.2142810  56.4504210  25.3124260   4.7221030  56.9485180  25.9529280
   4.7456050  55.6739410  25.1363620   2.4978910  51.0902770  29.5787680
   2.4997350  51.6075160  28.7733580   1.6683220  50.6132950  29.5557610
   8.8850000  61.2022080  21.0777580   8.2667270  61.6671530  20.5140300
   9.3973250  61.8949560  21.4947090   3.7481760  60.7297950  27.7561180
   3.4151140  61.3566870  28.3982250   3.9248440  61.2559830  26.9762850
  12.2615670  54.5443030  25.2237520  11.5571240  54.8327920  25.8040630
  12.6227830  55.3543140  24.8637080   2.1794240  52.8012730  27.5858130
   2.5211050  53.6454780  27.2912000   1.2410050  52.9496470  27.7023470
   2.9600860  62.6978750  29.5710360   3.5774860  63.3729830  29.2894810
   2.0993980  63.1066730  29.4797860   5.8622130  50.2895000  23.9102720
   6.1697110  49.7341890  23.1938220   4.9322830  50.4239460  23.7275710
  11.4137190  66.0062290  26.2010180  11.4264350  65.6024580  25.3332440
  10.8612410  66.7809580  26.0971610   8.2502890  58.3543830  20.6462840
   7.3232170  58.2881210  20.8751310   8.4027710  59.2923960  20.5318080
   8.2371970  54.6260830  17.6430000   7.2975640  54.7874790  17.7282460
   8.5555230  55.3446510  17.0965990  12.2800180  59.9164130  21.1498090
  11.6612600  59.5783680  20.5024390  12.2624630  59.2723890  21.8577280
   3.8559530  58.8808570  23.4282570   3.4516530  58.1685820  22.9328470
   3.9422650  58.5361810  24.3170610   4.3241230  62.5676130  25.5921780
   4.0269520  61.9621600  24.9129560   5.2741050  62.6053440  25.4811140
   2.5688150  55.6551780  27.2081610   3.1202740  55.7647120  26.4334860
   3.0831660  56.0289380  27.9236840  12.4126840  66.1408000  29.2544880
  11.9357400  66.9480190  29.0617490  11.7288630  65.4886330  29.4071090
   3.4159660  62.3057820  32.2429580   2.5188190  62.5297790  32.4902980
   3.4412530  62.4292760  31.2940980  10.4564880  59.1550940  18.1570840
  10.8958160  58.3173370  18.0108660  11.1693300  59.7880340  18.2434980
   2.2430880  59.1771140  30.8186950   2.1038650  60.0493940  31.1874350
   1.3612240  58.8343950  30.6734890   8.5660260  64.0947010  22.1252080
   9.0056170  64.8371340  21.7107470   8.5047150  64.3373580  23.0491040
   4.0411230  65.1192840  33.0272100   4.0126660  65.5235790  32.1600530
   3.8776200  64.1903200  32.8643700  14.0382020  50.4093750  16.4711880
  13.7254680  50.5020580  17.3710950  14.7994490  50.9874780  16.4209310
  15.9926050  65.9019940  34.3236270  16.4685770  66.3802830  35.0025350
  16.6133210  65.8337430  33.5981770   9.2576040  66.7960790  30.0531090
   9.7720710  66.7068800  30.8553520   8.4145120  67.1420490  30.3459000
  11.2330440  67.0816130  19.4815090  11.0731580  66.7919070  20.3796920
  11.0677150  66.3056260  18.9460320   3.7118820  66.8614660  21.2586710
   3.5361300  65.9450200  21.0454510   2.8574560  67.2201950  21.4984510
  10.9356570  64.5903690  18.0413090  10.2421730  64.5880980  17.3815370
  11.6779430  64.1663010  17.6107260  10.5006500  66.2166400  22.1161580
  10.9563450  65.4355780  22.4300200  10.8399020  66.9273220  22.6602760
   3.0227820  51.1188620  24.3112890   2.5795970  51.8998160  23.9797410
   3.5812810  51.4418510  25.0183830   7.3097630  53.9857140  29.9148210
   6.8477000  54.1940160  30.7268150   6.9075740  53.1716490  29.6118880
  12.3102140  55.2066090  31.0444870  11.4595730  54.9071840  31.3653940
  12.1503930  55.4508100  30.1328690   9.4051850  56.7067840  33.1443660
   9.7305260  55.8731590  32.8045890  10.1932180  57.2296360  33.2921990
   6.1386640  50.7399320  19.1918720   5.5140820  50.7359190  19.9172030
   6.0516760  49.8730280  18.7954690   5.0603720  51.6635950  26.1702490
   5.3576050  52.5698780  26.0894510   5.6089280  51.1754730  25.5562060
   2.8142040  56.2422190  22.0394140   2.5882960  56.0259360  22.9440760
   2.0334570  56.6750650  21.6940110  10.0439800  56.2485560  20.6384790
   9.4448690  56.9721360  20.4548410  10.5919410  56.1862340  19.8561240
   5.2541250  57.1407770  32.7054410   5.1584850  56.2002500  32.5554810
   6.0973230  57.3622840  32.3102480   8.6504670  54.8849100  22.6688070
   9.0434240  55.2021300  21.8556760   9.0121520  54.0060980  22.7832590
   6.9596840  53.6356410  33.9284930   6.2695160  53.4428610  34.5631020
   7.7029140  53.9191050  34.4609230   9.2359810  57.4754850  26.7638850
   8.5040930  57.9841660  27.1128950   8.8384150  56.6584830  26.4627630
   5.6737200  54.1509050  25.1691340   5.6773260  53.7099000  24.3195880
   6.5688320  54.4726380  25.2763160   5.7357350  55.1521130  18.1598100
   5.8570170  55.1107610  19.1083920   5.3505860  56.0145280  18.0044830
   9.6985720  52.9288530  26.1761790   9.7158460  53.3797180  27.0203640
   9.4501300  52.0294170  26.3895230   4.7478850  57.4622270  17.5581400
   4.1795750  57.0140520  16.9317310   5.4567850  57.8215050  17.0246550
  13.1256470  50.3420710  32.0148170  13.4502240  49.6110370  32.5406150
  13.1612980  50.0234350  31.1129160   5.9745170  58.2110830  26.9156750
   6.3415300  57.7369400  27.6618090   5.7850230  59.0852400  27.2565090
   3.7644540  57.2519470  29.2340960   3.4601610  58.1311450  29.4591320
   4.7191000  57.3119260  29.2698400   2.2926330  61.4580460  19.8307810
   1.5188590  60.9178080  19.6706530   3.0220960  60.9387070  19.4925570
   8.5124250  51.8483780  19.7663590   7.6988860  51.3496950  19.6908900
   8.3186200  52.6882030  19.3499940   8.4333110  60.5254880  31.5103200
   8.3670420  59.6050550  31.2560790   7.8038250  60.6230320  32.2247840
  11.2272640  56.2203430  18.0625750  12.1152260  56.5320660  17.8877090
  11.1977730  55.3475680  17.6706330   2.3363730  61.1260840  23.4686620
   2.8542400  60.3229100  23.4143510   1.8847750  61.0639980  24.3103450
   7.2233230  62.3927120  18.7413920   7.5648930  63.1369350  18.2457240
   6.3945940  62.7058240  19.1038750   3.0221390  58.5506450  33.2651870
   2.7221530  58.6963630  32.3679690   3.7932630  57.9911740  33.1725260
   8.3649840  63.3475450  31.2607000   8.3794380  62.4156410  31.0425910
   7.6574940  63.4335210  31.8996770  13.4986910  57.5315270  17.5305610
  13.4150630  57.9629490  16.6802050  14.2181100  57.9913620  17.9632430
  10.1060640  61.7142960  24.1059430  10.4584460  61.1171090  23.4460800
   9.2222970  61.3887190  24.2767680   6.1923920  62.4740650  21.5129840
   6.8795050  63.0209860  21.8937430   5.4056340  63.0181380  21.5479450
   5.4951130  59.4786680  21.1255200   5.9513910  60.2891930  21.3515390
   5.1439340  59.1609820  21.9573690   7.7983740  64.9893020  28.3547500
   8.4425960  65.1952400  29.0320920   8.1613180  64.2281420  27.9018350
   9.0715820  62.9925370  27.0724950   9.7138050  62.2918530  27.1857120
   9.5965170  63.7723810  26.8921840  12.9171540  63.2773990  16.7964090
  12.6909120  62.5604430  17.3888730  12.5267740  63.0286430  15.9585840
  10.8453440  63.7920270  30.2761010  11.1809680  64.3786960  30.9538930
   9.9253780  63.6612980  30.5058800   6.6742020  63.8411600  33.4449070
   6.3538890  63.1220840  33.9894760   6.0000380  64.5166670  33.5185130
   4.7156190  64.6872050  18.3882220   4.7066290  65.4201740  17.7726730
   3.7954550  64.4403630  18.4809180   9.8895620  54.0737760  28.8085870
  10.2576440  53.2532970  29.1365440   9.0293820  54.1339650  29.2241520
  13.2557650  53.0294700  19.6173430  12.6270810  53.1340370  18.9031660
  12.7609570  53.2491480  20.4067310   7.7015790  64.7500290  17.0507410
   7.8027770  64.5464280  16.1209390   6.8017530  64.4958570  17.2555190
   5.2241680  55.3080650  21.0331310   4.5157830  55.7766990  21.4744920
   5.5086160  54.6502660  21.6676500   6.8497610  56.7277350  29.0323840
   7.3482860  57.2023170  29.6975690   6.9920560  55.8040870  29.2393870
   9.2557110  52.0331310  22.4727100   9.1324890  52.0517440  21.5236610
  10.2041670  52.0810250  22.5925500   6.3433900  67.2686610  21.7455080
   6.5975400  67.2308000  20.8234450   5.3946380  67.1419940  21.7383330
   3.4276700  53.6165730  18.4082020   4.2767230  54.0535880  18.3422210
   3.0607970  53.9285990  19.2354080  14.0564470  52.9445310  29.8752230
  13.5538070  53.6850710  30.2146040  14.8721130  53.3329310  29.5589020
  12.3486480  58.1878490  23.3213590  11.4076620  58.2028720  23.4961280
  12.6630550  57.4014450  23.7673890   2.3268120  59.8698090  16.8817550
   3.0931390  59.7579450  17.4442980   2.4042810  59.1736060  16.2294320
   1.8229590  67.4518550  24.6684980   2.5592070  66.9034010  24.9393550
   2.2070510  68.3174560  24.5290970   4.9331900  66.6248860  16.4910550
   5.7260510  66.9137690  16.0392340   4.4136250  66.1941030  15.8123030
   9.6652500  62.7444490  33.8045970   9.0590660  62.7676090  33.0641720
   9.3606610  62.0127530  34.3413220  11.0952870  66.4724780  32.4155380
  12.0474620  66.3882800  32.3655620  10.9481090  67.1366490  33.0889170
  13.9862070  65.8518990  17.9147290  13.7003580  65.4384130  17.1001470
  13.7881620  66.7806700  17.7947810   5.4509300  61.8452270  16.3552900
   5.3459940  61.2304620  17.0814280   5.2833520  61.3218160  15.5715910
   5.6023620  60.5309070  32.3342130   4.8369290  61.0994070  32.2496800
   5.7839580  60.2385280  31.4410360   8.6912030  60.9072300  16.9594890
   8.1422130  61.3541600  17.6037630   9.3131290  60.4021550  17.4832560
  12.7446970  62.2614400  32.8917150  13.4856440  62.5990160  32.3884610
  11.9819650  62.4306460  32.3386920   4.3587150  59.8663220  18.8560190
   4.7803570  59.7003090  19.6991580   4.4837990  59.0563450  18.3615330
   2.5214570  55.8459770  31.6631170   1.9911030  55.3550720  31.0354510
   3.1902640  56.2743970  31.1289100   6.8714790  58.8900830  16.1037290
   7.3920450  58.1749850  15.7378440   7.5183190  59.5286700  16.4037800
  11.4192630  60.3129230  31.4272360  11.8333650  60.4674310  32.2762780
  10.4843630  60.4384450  31.5898140  11.8914800  57.6525390  33.4311510
  12.4735570  56.8977710  33.3431990  12.0676570  58.1832830  32.6542990
   3.0086870  52.8122140  31.7428460   2.9143740  52.1942890  31.0179330
   2.4284260  53.5388430  31.5158370   5.7748310  51.3695380  28.7755850
   5.3265610  51.3919640  27.9301400   5.1413510  50.9714400  29.3726150
   6.1807860  60.2649710  29.3968290   6.5995970  61.1082440  29.2244530
   5.2616490  60.4021750  29.1675070   8.5171760  57.9965890  30.7806130
   8.6367970  57.4007030  31.5200970   9.3765760  58.0335580  30.3607430
   3.2546050  55.9396450  15.8018350   3.0535110  55.0763810  16.1631690
   3.0838100  55.8529810  14.8639950   4.0315280  66.5702720  30.5126020
   3.4936370  67.2948780  30.1934720   4.2849240  66.0933060  29.7223360
   5.2840530  54.5387240  32.0381950   5.8740220  54.2303090  32.7259770
   4.4660770  54.0666990  32.1941850  10.1033960  54.1553050  32.2714970
   9.4149480  53.4934590  32.2064960  10.8239980  53.7091320  32.7163430
  10.7334360  50.7504680  18.3305230  11.0136650  49.9072580  18.6864650
   9.9600090  50.9827790  18.8443980   2.0528850  53.0397070  15.7896230
   2.3554750  53.0464500  14.8815380   2.7923440  52.6894930  16.2863890
   6.8877490  67.8053930  30.7712670   6.8136190  68.7089070  31.0785040
   5.9856330  67.4865830  30.7434740   5.2713780  51.9831690  16.7752430
   4.9235780  51.3055680  16.1954880   5.4726550  51.5221200  17.5895820
   7.4362820  66.9712440  18.3939030   8.3313610  67.3097410  18.4157790
   7.4680450  66.2491850  17.7663310   2.8866700  63.4637530  21.7348260
   2.5862240  63.3402500  22.6352170   2.7804190  62.6046120  21.3263990
  14.4157170  65.5016110  31.1005230  13.8159160  65.5608670  30.3569150
  14.5451070  64.5621090  31.2302080  15.6558620  63.2433930  16.4374940
  14.8251580  63.3110580  16.9082170  15.8330450  64.1338050  16.1341800
  15.1634250  60.2815780  16.0981660  15.4383090  61.1894660  15.9700880
  14.9744990  60.2178310  17.0343650  11.5609860  53.3060630  17.3935290
  11.9794740  53.1191610  16.5531950  11.2545920  52.4539680  17.7038220
  15.0599590  58.2184770  21.0911090  14.6843190  57.4512700  20.6592380
  14.3302710  58.6007470  21.5786020  12.8887280  52.5912720  33.5030310
  13.7657460  52.5996120  33.8864310  12.9008120  51.8543560  32.8922660
  13.8250520  55.7015610  20.3310740  14.3209640  55.4686480  21.1159620
  13.6266590  54.8627450  19.9148380  13.6003400  50.2770690  29.3231420
  14.2375620  50.8904830  29.6890610  13.7478290  50.3131350  28.3780650
  16.2166440  52.9395140  18.7311270  15.4217940  52.8740260  19.2604180
  16.4209720  53.8745780  18.7196620   4.7653460  64.9664190  28.4750010
   4.5244820  65.2338750  27.5880530   5.7056100  65.1369920  28.5300870
   6.9707880  51.4296880  32.2306520   6.9096770  52.0218710  32.9801930
   7.9108260  51.3222840  32.0856780   9.6082440  51.0866940  31.8698810
  10.2222850  51.4046230  31.2079890  10.1532000  50.6015530  32.4894670
  16.0257620  66.9858570  29.2760650  15.5315900  67.3827440  28.5587780
  15.4170910  66.3607780  29.6697930  10.3490480  49.6499080  28.1968100
   9.4750320  49.9834190  27.9941030  10.2401230  49.1772260  29.0219970
  11.2562460  51.8569950  29.5809820  10.9275820  51.0421710  29.2011550
  12.2044760  51.8139760  29.4575510  13.7097070  67.6281990  26.5547390
  13.2500040  68.3797800  26.1805410  13.0809530  66.9088460  26.4962190
   4.1392790  65.9370230  25.7295520   4.6557810  65.3257590  25.2043780
   4.7890170  66.4399010  26.2206530   6.8788290  66.8278720  26.5564500
   7.1666100  66.5733020  25.6797510   7.3911510  66.2756080  27.1470070
   8.0965300  50.5668920  27.1361010   7.3137090  51.0414420  27.4157770
   7.8028230  49.6623750  27.0274190   5.9819520  52.9855670  22.6477040
   5.1694030  52.6112560  22.3072920   6.4861160  52.2300750  22.9498230
  10.4844500  49.6498120  23.8860110  11.0873870  50.2218330  24.3608630
   9.7437490  50.2137560  23.6634010  13.6279100  50.0519680  19.1600390
  13.8229730  50.9503130  19.4267820  12.8408970  49.8206760  19.6533340
   1.8130860  51.3980450  18.1976700   2.3423620  50.6110250  18.0684650
   2.4459180  52.0771640  18.4312230   4.0068700  51.1355590  21.2522090
   3.3771440  50.4342900  21.4192220   3.4673840  51.8959720  21.0355250
   6.9460650  67.7494820  33.9232700   7.8727960  67.5139090  33.9668660
   6.9311080  68.5766820  33.4418730   4.1324260  50.4139570  33.6874580
   3.8508530  50.9173170  32.9235400   4.5143960  49.6161320  33.3216710
   3.0233360  67.6815230  18.4742260   3.7552180  67.3974510  17.9266150
   3.2827030  67.4428510  19.3641640   2.1848150  63.7979960  18.4788590
   1.5557030  64.2665060  19.0274420   2.2995980  62.9529180  18.9134780
  10.7339720  49.8293150  34.2655050  10.6205170  50.1487760  35.1606570
  11.5509460  50.2305660  33.9692330  13.5138210  66.9764680  33.7473740
  14.3063530  66.4813910  33.5399700  13.8071360  67.6554820  34.3549350
   9.6397870  57.8485620   4.6289790   9.5591920  56.9340230   4.3581500
   9.2262290  58.3452690   3.9229500   7.7715910  59.6264640   6.5099060
   6.9958010  59.1465080   6.7997630   8.4228840  58.9470290   6.3355220
  11.7923340  64.0324830   5.2898190  11.3304870  63.2612070   5.6185360
  12.6048890  64.0590900   5.7950640   1.7683000  63.9724540   7.5832840
   2.0711040  63.0822280   7.4043060   2.5126590  64.5294760   7.3555090
   8.0186650  66.3182840   4.9102180   7.3998090  66.7740340   4.3396620
   8.8738430  66.4734300   4.5091880   7.2124900  62.3021830   6.5169220
   7.1433180  61.3611770   6.3558350   7.9744760  62.3923240   7.0891790
   8.2430070  55.1092210   6.7438150   8.6194890  54.2364090   6.6311820
   8.1449580  55.4450910   5.8528590   2.3735080  53.4817840   2.2055590
   2.4801830  54.3821570   2.5124350   1.4627440  53.4335810   1.9150240
  12.0254190  52.6042650   3.6766490  12.8463810  52.1139220   3.7191970
  12.0588270  53.1940310   4.4298330   4.2142810  56.4504210   6.5380770
   4.7221030  56.9485180   7.1785790   4.7456050  55.6739410   6.3620130
  16.3153740  54.6209400  10.2410120  15.6105910  55.0091110   9.7225230
  16.5811660  55.3159690  10.8431050   2.4978910  51.0902770  10.8044190
   2.4997350  51.6075160   9.9990090   1.6683220  50.6132950  10.7814120
   8.8850000  61.2022080   2.3034090   8.2667270  61.6671530   1.7396810
   9.3973250  61.8949560   2.7203600   3.7481760  60.7297950   8.9817690
   3.4151140  61.3566870   9.6238760   3.9248440  61.2559830   8.2019360
  12.2615670  54.5443030   6.4494030  11.5571240  54.8327920   7.0297140
  12.6227830  55.3543140   6.0893590   2.1794240  52.8012730   8.8114640
   2.5211050  53.6454780   8.5168510   1.2410050  52.9496470   8.9279980
   2.9600860  62.6978750  10.7966870   3.5774860  63.3729830  10.5151320
   2.0993980  63.1066730  10.7054370  13.8778450  64.1618160   8.7121510
  13.1941970  64.8317270   8.7038180  14.4172740  64.3598810   7.9466370
  15.3302590  53.9897820   6.8403240  14.3827500  54.0236800   6.9718670
  15.6552580  54.8036770   7.2252600   5.8622130  50.2895000   5.1359230
   6.1697110  49.7341890   4.4194730   4.9322830  50.4239460   4.9532220
  11.4137190  66.0062290   7.4266690  11.4264350  65.6024580   6.5588950
  10.8612410  66.7809580   7.3228120  12.7082610  62.7278510   2.5156860
  12.5978940  61.7852840   2.6406280  12.7050860  63.0894150   3.4019620
  10.8122630  60.9092130   8.7549300  11.2291420  60.6952240   7.9202760
  11.5362450  61.1664920   9.3257920   8.2502890  58.3543830   1.8719350
   7.3232170  58.2881210   2.1007820   8.4027710  59.2923960   1.7574590
  14.7584730  59.3079350   8.8465540  13.9303360  59.3772440   8.3715670
  15.3535210  59.8933660   8.3781370  12.2800180  59.9164130   2.3754600
  11.6612600  59.5783680   1.7280900  12.2624630  59.2723890   3.0833790
  11.7226740  56.0948670   9.7920410  11.3097920  56.9202380  10.0460400
  10.9902690  55.5093710   9.5996770   3.8559530  58.8808570   4.6539080
   3.4516530  58.1685820   4.1584980   3.9422650  58.5361810   5.5427120
   4.3241230  62.5676130   6.8178290   4.0269520  61.9621600   6.1386070
   5.2741050  62.6053440   6.7067650   2.5688150  55.6551780   8.4338120
   3.1202740  55.7647120   7.6591370   3.0831660  56.0289380   9.1493350
  12.4126840  66.1408000  10.4801390  11.9357400  66.9480190  10.2874000
  11.7288630  65.4886330  10.6327600   3.4159660  62.3057820  13.4686090
   2.5188190  62.5297790  13.7159490   3.4412530  62.4292760  12.5197490
   2.2430880  59.1771140  12.0443460   2.1038650  60.0493940  12.4130860
   1.3612240  58.8343950  11.8991400   8.5660260  64.0947010   3.3508590
   9.0056170  64.8371340   2.9363980   8.5047150  64.3373580   4.2747550
   4.0411230  65.1192840  14.2528610   4.0126660  65.5235790  13.3857040
   3.8776200  64.1903200  14.0900210  15.9926050  65.9019940  15.5492780
  16.4685770  66.3802830  16.2281860  16.6133210  65.8337430  14.8238280
  15.3959300  63.0932790  12.7092790  15.5222360  62.8544670  11.7909970
  15.4380680  62.2617330  13.1814870   9.2576040  66.7960790  11.2787600
   9.7720710  66.7068800  12.0810030   8.4145120  67.1420490  11.5715510
   3.7118820  66.8614660   2.4843220   3.5361300  65.9450200   2.2711020
   2.8574560  67.2201950   2.7241020  10.5006500  66.2166400   3.3418090
  10.9563450  65.4355780   3.6556710  10.8399020  66.9273220   3.8859270
  15.2483310  55.1465250  13.6742530  14.6327580  55.6544920  13.1457990
  14.9279730  54.2463580  13.6168470   3.0227820  51.1188620   5.5369400
   2.5795970  51.8998160   5.2053920   3.5812810  51.4418510   6.2440340
   7.3097630  53.9857140  11.1404720   6.8477000  54.1940160  11.9524660
   6.9075740  53.1716490  10.8375390  12.3102140  55.2066090  12.2701380
  11.4595730  54.9071840  12.5910450  12.1503930  55.4508100  11.3585200
   9.4051850  56.7067840  14.3700170   9.7305260  55.8731590  14.0302400
  10.1932180  57.2296360  14.5178500   5.0603720  51.6635950   7.3959000
   5.3576050  52.5698780   7.3151020   5.6089280  51.1754730   6.7818570
   2.8142040  56.2422190   3.2650650   2.5882960  56.0259360   4.1697270
   2.0334570  56.6750650   2.9196620   5.2541250  57.1407770  13.9310920
   5.1584850  56.2002500  13.7811320   6.0973230  57.3622840  13.5358990
   8.6504670  54.8849100   3.8944580   9.0434240  55.2021300   3.0813270
   9.0121520  54.0060980   4.0089100   6.9596840  53.6356410  15.1541440
   6.2695160  53.4428610  15.7887530   7.7029140  53.9191050  15.6865740
   9.2359810  57.4754850   7.9895360   8.5040930  57.9841660   8.3385460
   8.8384150  56.6584830   7.6884140   5.6737200  54.1509050   6.3947850
   5.6773260  53.7099000   5.5452390   6.5688320  54.4726380   6.5019670
   9.6985720  52.9288530   7.4018300   9.7158460  53.3797180   8.2460150
   9.4501300  52.0294170   7.6151740  13.1256470  50.3420710  13.2404680
  13.4502240  49.6110370  13.7662660  13.1612980  50.0234350  12.3385670
   5.9745170  58.2110830   8.1413260   6.3415300  57.7369400   8.8874600
   5.7850230  59.0852400   8.4821600   3.7644540  57.2519470  10.4597470
   3.4601610  58.1311450  10.6847830   4.7191000  57.3119260  10.4954910
  13.0514310  60.4545820   6.8490710  13.7713430  60.9501110   6.4586820
  12.8496130  59.7763710   6.2044580   8.4333110  60.5254880  12.7359710
   8.3670420  59.6050550  12.4817300   7.8038250  60.6230320  13.4504350
   2.3363730  61.1260840   4.6943130   2.8542400  60.3229100   4.6400020
   1.8847750  61.0639980   5.5359960   3.0221390  58.5506450  14.4908380
   2.7221530  58.6963630  13.5936200   3.7932630  57.9911740  14.3981770
   8.3649840  63.3475450  12.4863510   8.3794380  62.4156410  12.2682420
   7.6574940  63.4335210  13.1253280  14.5761050  59.9882790  11.8332090
  13.8509240  60.5811570  11.6361480  15.1036510  59.9806330  11.0345460
  10.1060640  61.7142960   5.3315940  10.4584460  61.1171090   4.6717310
   9.2222970  61.3887190   5.5024190   6.1923920  62.4740650   2.7386350
   6.8795050  63.0209860   3.1193940   5.4056340  63.0181380   2.7735960
   5.4951130  59.4786680   2.3511710   5.9513910  60.2891930   2.5771900
   5.1439340  59.1609820   3.1830200   7.7983740  64.9893020   9.5804010
   8.4425960  65.1952400  10.2577430   8.1613180  64.2281420   9.1274860
   9.0715820  62.9925370   8.2981460   9.7138050  62.2918530   8.4113630
   9.5965170  63.7723810   8.1178350  10.8453440  63.7920270  11.5017520
  11.1809680  64.3786960  12.1795440   9.9253780  63.6612980  11.7315310
   6.6742020  63.8411600  14.6705580   6.3538890  63.1220840  15.2151270
   6.0000380  64.5166670  14.7441640   9.8895620  54.0737760  10.0342380
  10.2576440  53.2532970  10.3621950   9.0293820  54.1339650  10.4498030
   5.2241680  55.3080650   2.2587820   4.5157830  55.7766990   2.7001430
   5.5086160  54.6502660   2.8933010   6.8497610  56.7277350  10.2580350
   7.3482860  57.2023170  10.9232200   6.9920560  55.8040870  10.4650380
   9.2557110  52.0331310   3.6983610   9.1324890  52.0517440   2.7493120
  10.2041670  52.0810250   3.8182010   6.3433900  67.2686610   2.9711590
   6.5975400  67.2308000   2.0490960   5.3946380  67.1419940   2.9639840
  14.0564470  52.9445310  11.1008740  13.5538070  53.6850710  11.4402550
  14.8721130  53.3329310  10.7845530  12.3486480  58.1878490   4.5470100
  11.4076620  58.2028720   4.7217790  12.6630550  57.4014450   4.9930400
  14.3512060  65.3587340   6.2224360  14.4759480  66.1818510   6.6948170
  15.2177620  65.1478070   5.8748510   1.8229590  67.4518550   5.8941490
   2.5592070  66.9034010   6.1650060   2.2070510  68.3174560   5.7547480
   9.6652500  62.7444490  15.0302480   9.0590660  62.7676090  14.2898230
   9.3606610  62.0127530  15.5669730  11.0952870  66.4724780  13.6411890
  12.0474620  66.3882800  13.5912130  10.9481090  67.1366490  14.3145680
   5.6023620  60.5309070  13.5598640   4.8369290  61.0994070  13.4753310
   5.7839580  60.2385280  12.6666870  12.7446970  62.2614400  14.1173660
  13.4856440  62.5990160  13.6141120  11.9819650  62.4306460  13.5643430
   2.5214570  55.8459770  12.8887680   1.9911030  55.3550720  12.2611020
   3.1902640  56.2743970  12.3545610  11.4192630  60.3129230  12.6528870
  11.8333650  60.4674310  13.5019290  10.4843630  60.4384450  12.8154650
  11.8914800  57.6525390  14.6568020  12.4735570  56.8977710  14.5688500
  12.0676570  58.1832830  13.8799500   3.0086870  52.8122140  12.9684970
   2.9143740  52.1942890  12.2435840   2.4284260  53.5388430  12.7414880
   5.7748310  51.3695380  10.0012360   5.3265610  51.3919640   9.1557910
   5.1413510  50.9714400  10.5982660   6.1807860  60.2649710  10.6224800
   6.5995970  61.1082440  10.4501040   5.2616490  60.4021750  10.3931580
   8.5171760  57.9965890  12.0062640   8.6367970  57.4007030  12.7457480
   9.3765760  58.0335580  11.5863940  10.8559660  58.5503080  10.5825150
  10.3294880  59.0745700   9.9790290  11.1991000  59.1830470  11.2134880
   4.0315280  66.5702720  11.7382530   3.4936370  67.2948780  11.4191230
   4.2849240  66.0933060  10.9479870   5.2840530  54.5387240  13.2638460
   5.8740220  54.2303090  13.9516280   4.4660770  54.0666990  13.4198360
  10.1033960  54.1553050  13.4971480   9.4149480  53.4934590  13.4321470
  10.8239980  53.7091320  13.9419940   6.8877490  67.8053930  11.9969180
   6.8136190  68.7089070  12.3041550   5.9856330  67.4865830  11.9691250
   2.8866700  63.4637530   2.9604770   2.5862240  63.3402500   3.8608680
   2.7804190  62.6046120   2.5520500  14.4157170  65.5016110  12.3261740
  13.8159160  65.5608670  11.5825660  14.5451070  64.5621090  12.4558590
  16.1175050  60.8431510   5.0107580  16.4883880  60.0598830   4.6043550
  16.7576980  61.5320610   4.8324880  13.1008810  62.2268090  10.4237900
  12.2868650  62.6565250  10.6863690  13.5083010  62.8386500   9.8106950
  15.0599590  58.2184770   2.3167600  14.6843190  57.4512700   1.8848890
  14.3302710  58.6007470   2.8042530  14.4499210  57.3656290  11.9507120
  14.2185300  57.1369040  11.0505070  14.7103760  58.2855840  11.9052010
  12.8887280  52.5912720  14.7286820  13.7657460  52.5996120  15.1120820
  12.9008120  51.8543560  14.1179170  14.3350550  56.4442260   5.6174840
  14.8588030  55.9504910   4.9865010  14.9209970  56.5792620   6.3622410
  14.5140270  56.5282130   9.1394390  13.5642980  56.4945670   9.2539380
  14.6953280  57.4382240   8.9044160  15.2537680  54.3376560   4.0904930
  15.1436960  54.1832600   5.0287200  16.0145270  53.8097500   3.8480340
  13.6003400  50.2770690  10.5487930  14.2375620  50.8904830  10.9147120
  13.7478290  50.3131350   9.6037160  13.1584860  66.9786690   3.9506170
  13.7543930  66.6571260   3.2740590  13.4163010  66.5058510   4.7419440
   4.7653460  64.9664190   9.7006520   4.5244820  65.2338750   8.8137040
   5.7056100  65.1369920   9.7557380   6.9707880  51.4296880  13.4563030
   6.9096770  52.0218710  14.2058440   7.9108260  51.3222840  13.3113290
   9.6082440  51.0866940  13.0955320  10.2222850  51.4046230  12.4336400
  10.1532000  50.6015530  13.7151180  16.0257620  66.9858570  10.5017160
  15.5315900  67.3827440   9.7844290  15.4170910  66.3607780  10.8954440
  10.3490480  49.6499080   9.4224610   9.4750320  49.9834190   9.2197540
  10.2401230  49.1772260  10.2476480  11.2562460  51.8569950  10.8066330
  10.9275820  51.0421710  10.4268060  12.2044760  51.8139760  10.6832020
  13.7097070  67.6281990   7.7803900  13.2500040  68.3797800   7.4061920
  13.0809530  66.9088460   7.7218700   4.1392790  65.9370230   6.9552030
   4.6557810  65.3257590   6.4300290   4.7890170  66.4399010   7.4463040
   6.8788290  66.8278720   7.7821010   7.1666100  66.5733020   6.9054020
   7.3911510  66.2756080   8.3726580   8.0965300  50.5668920   8.3617520
   7.3137090  51.0414420   8.6414280   7.8028230  49.6623750   8.2530700
  12.6486370  51.2692020   6.4066610  13.0894460  51.2137120   5.5588210
  12.3793960  52.1850030   6.4776790  14.5124940  50.9007260   4.4175430
  14.4513340  49.9568480   4.2706450  15.2916970  51.0087350   4.9628890
   5.9819520  52.9855670   3.8733550   5.1694030  52.6112560   3.5329430
   6.4861160  52.2300750   4.1754740  10.4844500  49.6498120   5.1116620
  11.0873870  50.2218330   5.5865140   9.7437490  50.2137560   4.8890520
   4.0068700  51.1355590   2.4778600   3.3771440  50.4342900   2.6448730
   3.4673840  51.8959720   2.2611760   6.9460650  67.7494820  15.1489210
   7.8727960  67.5139090  15.1925170   6.9311080  68.5766820  14.6675240
  15.1805710  67.2920390   2.1463460  15.3557900  66.6058130   1.5024380
  14.4827280  67.8167440   1.7540130   4.1324260  50.4139570  14.9131090
   3.8508530  50.9173170  14.1491910   4.5143960  49.6161320  14.5473220
  10.7339720  49.8293150  15.4911560  10.6205170  50.1487760  16.3863080
  11.5509460  50.2305660  15.1948840  13.5138210  66.9764680  14.9730250
  14.3063530  66.4813910  14.7656210  13.8071360  67.6554820  15.5805860
   9.6397870  39.0742130  98.5007240   9.5591920  38.1596740  98.2298950
   9.2262290  39.5709200  97.7946950   7.7715910  40.8521150 100.3816510
   6.9958010  40.3721590 100.6715080   8.4228840  40.1726800 100.2072670
  11.7923340  45.2581340  99.1615640  11.3304870  44.4868580  99.4902810
  12.6048890  45.2847410  99.6668090   1.7683000  45.1981050 101.4550290
   2.0711040  44.3078790 101.2760510   2.5126590  45.7551270 101.2272540
   8.0186650  47.5439350  98.7819630   7.3998090  47.9996850  98.2114070
   8.8738430  47.6990810  98.3809330   7.2124900  43.5278340 100.3886670
   7.1433180  42.5868280 100.2275800   7.9744760  43.6179750 100.9609240
   8.2430070  36.3348720 100.6155600   8.6194890  35.4620600 100.5029270
   8.1449580  36.6707420  99.7246040   2.3735080  34.7074350  96.0773040
   2.4801830  35.6078080  96.3841800   1.4627440  34.6592320  95.7867690
  12.0254190  33.8299160  97.5483940  12.8463810  33.3395730  97.5909420
  12.0588270  34.4196820  98.3015780   4.2142810  37.6760720 100.4098220
   4.7221030  38.1741690 101.0503240   4.7456050  36.8995920 100.2337580
  16.3153740  35.8465910 104.1127570  15.6105910  36.2347620 103.5942680
  16.5811660  36.5416200 104.7148500   2.4978910  32.3159280 104.6761640
   2.4997350  32.8331670 103.8707540   1.6683220  31.8389460 104.6531570
   8.8850000  42.4278590  96.1751540   8.2667270  42.8928040  95.6114260
   9.3973250  43.1206070  96.5921050   3.7481760  41.9554460 102.8535140
   3.4151140  42.5823380 103.4956210   3.9248440  42.4816340 102.0736810
  12.2615670  35.7699540 100.3211480  11.5571240  36.0584430 100.9014590
  12.6227830  36.5799650  99.9611040   2.1794240  34.0269240 102.6832090
   2.5211050  34.8711290 102.3885960   1.2410050  34.1752980 102.7997430
   2.9600860  43.9235260 104.6684320   3.5774860  44.5986340 104.3868770
   2.0993980  44.3323240 104.5771820  13.8778450  45.3874670 102.5838960
  13.1941970  46.0573780 102.5755630  14.4172740  45.5855320 101.8183820
  15.3302590  35.2154330 100.7120690  14.3827500  35.2493310 100.8436120
  15.6552580  36.0293280 101.0970050   5.8622130  31.5151510  99.0076680
   6.1697110  30.9598400  98.2912180   4.9322830  31.6495970  98.8249670
  11.4137190  47.2318800 101.2984140  11.4264350  46.8281090 100.4306400
  10.8612410  48.0066090 101.1945570  12.7082610  43.9535020  96.3874310
  12.5978940  43.0109350  96.5123730  12.7050860  44.3150660  97.2737070
  10.8122630  42.1348640 102.6266750  11.2291420  41.9208750 101.7920210
  11.5362450  42.3921430 103.1975370   8.2502890  39.5800340  95.7436800
   7.3232170  39.5137720  95.9725270   8.4027710  40.5180470  95.6292040
   8.2371970  35.8517340  92.7403960   7.2975640  36.0131300  92.8256420
   8.5555230  36.5703020  92.1939950  14.7584730  40.5335860 102.7182990
  13.9303360  40.6028950 102.2433120  15.3535210  41.1190170 102.2498820
  12.2800180  41.1420640  96.2472050  11.6612600  40.8040190  95.5998350
  12.2624630  40.4980400  96.9551240  11.7226740  37.3205180 103.6637860
  11.3097920  38.1458890 103.9177850  10.9902690  36.7350220 103.4714220
   3.8559530  40.1065080  98.5256530   3.4516530  39.3942330  98.0302430
   3.9422650  39.7618320  99.4144570   4.3241230  43.7932640 100.6895740
   4.0269520  43.1878110 100.0103520   5.2741050  43.8309950 100.5785100
   2.5688150  36.8808290 102.3055570   3.1202740  36.9903630 101.5308820
   3.0831660  37.2545890 103.0210800  12.4126840  47.3664510 104.3518840
  11.9357400  48.1736700 104.1591450  11.7288630  46.7142840 104.5045050
  10.4564880  40.3807450  93.2544800  10.8958160  39.5429880  93.1082620
  11.1693300  41.0136850  93.3408940   8.5660260  45.3203520  97.2226040
   9.0056170  46.0627850  96.8081430   8.5047150  45.5630090  98.1465000
  14.0382020  31.6350260  91.5685840  13.7254680  31.7277090  92.4684910
  14.7994490  32.2131290  91.5183270  11.2330440  48.3072640  94.5789050
  11.0731580  48.0175580  95.4770880  11.0677150  47.5312770  94.0434280
   3.7118820  48.0871170  96.3560670   3.5361300  47.1706710  96.1428470
   2.8574560  48.4458460  96.5958470  10.9356570  45.8160200  93.1387050
  10.2421730  45.8137490  92.4789330  11.6779430  45.3919520  92.7081220
  10.5006500  47.4422910  97.2135540  10.9563450  46.6612290  97.5274160
  10.8399020  48.1529730  97.7576720   3.0227820  32.3445130  99.4086850
   2.5795970  33.1254670  99.0771370   3.5812810  32.6675020 100.1157790
   6.1386640  31.9655830  94.2892680   5.5140820  31.9615700  95.0145990
   6.0516760  31.0986790  93.8928650   5.0603720  32.8892460 101.2676450
   5.3576050  33.7955290 101.1868470   5.6089280  32.4011240 100.6536020
   2.8142040  37.4678700  97.1368100   2.5882960  37.2515870  98.0414720
   2.0334570  37.9007160  96.7914070  10.0439800  37.4742070  95.7358750
   9.4448690  38.1977870  95.5522370  10.5919410  37.4118850  94.9535200
   8.6504670  36.1105610  97.7662030   9.0434240  36.4277810  96.9530720
   9.0121520  35.2317490  97.8806550   9.2359810  38.7011360 101.8612810
   8.5040930  39.2098170 102.2102910   8.8384150  37.8841340 101.5601590
   5.6737200  35.3765560 100.2665300   5.6773260  34.9355510  99.4169840
   6.5688320  35.6982890 100.3737120   5.7357350  36.3777640  93.2572060
   5.8570170  36.3364120  94.2057880   5.3505860  37.2401790  93.1018790
   9.6985720  34.1545040 101.2735750   9.7158460  34.6053690 102.1177600
   9.4501300  33.2550680 101.4869190   4.7478850  38.6878780  92.6555360
   4.1795750  38.2397030  92.0291270   5.4567850  39.0471560  92.1220510
   5.9745170  39.4367340 102.0130710   6.3415300  38.9625910 102.7592050
   5.7850230  40.3108910 102.3539050   3.7644540  38.4775980 104.3314920
   3.4601610  39.3567960 104.5565280   4.7191000  38.5375770 104.3672360
   2.2926330  42.6836970  94.9281770   1.5188590  42.1434590  94.7680490
   3.0220960  42.1643580  94.5899530  13.0514310  41.6802330 100.7208160
  13.7713430  42.1757620 100.3304270  12.8496130  41.0020220 100.0762030
   8.5124250  33.0740290  94.8637550   7.6988860  32.5753460  94.7882860
   8.3186200  33.9138540  94.4473900  11.2272640  37.4459940  93.1599710
  12.1152260  37.7577170  92.9851050  11.1977730  36.5732190  92.7680290
   2.3363730  42.3517350  98.5660580   2.8542400  41.5485610  98.5117470
   1.8847750  42.2896490  99.4077410   7.2233230  43.6183630  93.8387880
   7.5648930  44.3625860  93.3431200   6.3945940  43.9314750  94.2012710
  13.4986910  38.7571780  92.6279570  13.4150630  39.1886000  91.7776010
  14.2181100  39.2170130  93.0606390  14.5274160  45.6114040  95.3561700
  13.8850320  44.9569660  95.6305420  14.1404820  46.0169130  94.5802370
  10.1060640  42.9399470  99.2033390  10.4584460  42.3427600  98.5434760
   9.2222970  42.6143700  99.3741640   6.1923920  43.6997160  96.6103800
   6.8795050  44.2466370  96.9911390   5.4056340  44.2437890  96.6453410
   5.4951130  40.7043190  96.2229160   5.9513910  41.5148440  96.4489350
   5.1439340  40.3866330  97.0547650   7.7983740  46.2149530 103.4521460
   8.4425960  46.4208910 104.1294880   8.1613180  45.4537930 102.9992310
   9.0715820  44.2181880 102.1698910   9.7138050  43.5175040 102.2831080
   9.5965170  44.9980320 101.9895800  12.9171540  44.5030500  91.8938050
  12.6909120  43.7860940  92.4862690  12.5267740  44.2542940  91.0559800
  12.4987790  42.4202440  93.5552210  12.2109490  42.8815130  94.3430090
  13.2939960  41.9600210  93.8236430   4.7156190  45.9128560  93.4856180
   4.7066290  46.6458250  92.8700690   3.7954550  45.6660140  93.5783140
   9.8895620  35.2994270 103.9059830  10.2576440  34.4789480 104.2339400
   9.0293820  35.3596160 104.3215480  13.2557650  34.2551210  94.7147390
  12.6270810  34.3596880  94.0005620  12.7609570  34.4747990  95.5041270
   7.7015790  45.9756800  92.1481370   7.8027770  45.7720790  91.2183350
   6.8017530  45.7215080  92.3529150   5.2241680  36.5337160  96.1305270
   4.5157830  37.0023500  96.5718880   5.5086160  35.8759170  96.7650460
   6.8497610  37.9533860 104.1297800   7.3482860  38.4279680 104.7949650
   6.9920560  37.0297380 104.3367830   9.2557110  33.2587820  97.5701060
   9.1324890  33.2773950  96.6210570  10.2041670  33.3066760  97.6899460
   6.3433900  48.4943120  96.8429040   6.5975400  48.4564510  95.9208410
   5.3946380  48.3676450  96.8357290   3.4276700  34.8422240  93.5055980
   4.2767230  35.2792390  93.4396170   3.0607970  35.1542500  94.3328040
  12.3486480  39.4135000  98.4187550  11.4076620  39.4285230  98.5935240
  12.6630550  38.6270960  98.8647850   2.3268120  41.0954600  91.9791510
   3.0931390  40.9835960  92.5416940   2.4042810  40.3992570  91.3268280
  14.3512060  46.5843850 100.0941810  14.4759480  47.4075020 100.5665620
  15.2177620  46.3734580  99.7465960   1.8229590  48.6775060  99.7658940
   2.5592070  48.1290520 100.0367510   2.2070510  49.5431070  99.6264930
   4.9331900  47.8505370  91.5884510   5.7260510  48.1394200  91.1366300
   4.4136250  47.4197540  90.9096990  13.9862070  47.0775500  93.0121250
  13.7003580  46.6640640  92.1975430  13.7881620  48.0063210  92.8921770
   5.4509300  43.0708780  91.4526860   5.3459940  42.4561130  92.1788240
   5.2833520  42.5474670  90.6689870   8.6912030  42.1328810  92.0568850
   8.1422130  42.5798110  92.7011590   9.3131290  41.6278060  92.5806520
   4.3587150  41.0919730  93.9534150   4.7803570  40.9259600  94.7965540
   4.4837990  40.2819960  93.4589290   6.8714790  40.1157340  91.2011250
   7.3920450  39.4006360  90.8352400   7.5183190  40.7543210  91.5011760
   5.7748310  32.5951890 103.8729810   5.3265610  32.6176150 103.0275360
   5.1413510  32.1970910 104.4700110   6.1807860  41.4906220 104.4942250
   6.5995970  42.3338950 104.3218490   5.2616490  41.6278260 104.2649030
   3.2546050  37.1652960  90.8992310   3.0535110  36.3020320  91.2605650
   3.0838100  37.0786320  89.9613910  10.7334360  31.9761190  93.4279190
  11.0136650  31.1329090  93.7838610   9.9600090  32.2084300  93.9417940
   2.0528850  34.2653580  90.8870190   2.3554750  34.2721010  89.9789340
   2.7923440  33.9151440  91.3837850   5.2713780  33.2088200  91.8726390
   4.9235780  32.5312190  91.2928840   5.4726550  32.7477710  92.6869780
   7.4362820  48.1968950  93.4912990   8.3313610  48.5353920  93.5131750
   7.4680450  47.4748360  92.8637270   2.8866700  44.6894040  96.8322220
   2.5862240  44.5659010  97.7326130   2.7804190  43.8302630  96.4237950
  15.6558620  44.4690440  91.5348900  14.8251580  44.5367090  92.0056130
  15.8330450  45.3594560  91.2315760  15.1115080  41.2137920  94.0383100
  15.8733990  41.7834570  94.1442790  15.1269450  40.6465120  94.8091410
  16.1175050  42.0688020  98.8825030  16.4883880  41.2855340  98.4761000
  16.7576980  42.7577120  98.7042330  13.1008810  43.4524600 104.2955350
  12.2868650  43.8821760 104.5581140  13.5083010  44.0643010 103.6824400
  15.1634250  41.5072290  91.1955620  15.4383090  42.4151170  91.0674840
  14.9744990  41.4434820  92.1317610  11.5609860  34.5317140  92.4909250
  11.9794740  34.3448120  91.6505910  11.2545920  33.6796190  92.8012180
  15.0599590  39.4441280  96.1885050  14.6843190  38.6769210  95.7566340
  14.3302710  39.8263980  96.6759980  14.3350550  37.6698770  99.4892290
  14.8588030  37.1761420  98.8582460  14.9209970  37.8049130 100.2339860
  14.5140270  37.7538640 103.0111840  13.5642980  37.7202180 103.1256830
  14.6953280  38.6638750 102.7761610  13.8250520  36.9272120  95.4284700
  14.3209640  36.6942990  96.2133580  13.6266590  36.0883960  95.0122340
  15.2537680  35.5633070  97.9622380  15.1436960  35.4089110  98.9004650
  16.0145270  35.0354010  97.7197790  13.6003400  31.5027200 104.4205380
  14.2375620  32.1161340 104.7864570  13.7478290  31.5387860 103.4754610
  16.1427950  33.3940990  91.2028520  17.0677260  33.2622170  90.9946810
  16.1203740  33.4733810  92.1564970  16.2166440  34.1651650  93.8285230
  15.4217940  34.0996770  94.3578140  16.4209720  35.1002290  93.8170580
  13.1584860  48.2043200  97.8223620  13.7543930  47.8827770  97.1458040
  13.4163010  47.7315020  98.6136890   4.7653460  46.1920700 103.5723970
   4.5244820  46.4595260 102.6854490   5.7056100  46.3626430 103.6274830
  16.0257620  48.2115080 104.3734610  15.5315900  48.6083950 103.6561740
  15.4170910  47.5864290 104.7671890  10.3490480  30.8755590 103.2942060
   9.4750320  31.2090700 103.0914990  10.2401230  30.4028770 104.1193930
  11.2562460  33.0826460 104.6783780  10.9275820  32.2678220 104.2985510
  12.2044760  33.0396270 104.5549470  13.7097070  48.8538500 101.6521350
  13.2500040  49.6054310 101.2779370  13.0809530  48.1344970 101.5936150
   4.1392790  47.1626740 100.8269480   4.6557810  46.5514100 100.3017740
   4.7890170  47.6655520 101.3180490   6.8788290  48.0535230 101.6538460
   7.1666100  47.7989530 100.7771470   7.3911510  47.5012590 102.2444030
   8.0965300  31.7925430 102.2334970   7.3137090  32.2670930 102.5131730
   7.8028230  30.8880260 102.1248150  12.6486370  32.4948530 100.2784060
  13.0894460  32.4393630  99.4305660  12.3793960  33.4106540 100.3494240
  14.5124940  32.1263770  98.2892880  14.4513340  31.1824990  98.1423900
  15.2916970  32.2343860  98.8346340   5.9819520  34.2112180  97.7451000
   5.1694030  33.8369070  97.4046880   6.4861160  33.4557260  98.0472190
  10.4844500  30.8754630  98.9834070  11.0873870  31.4474840  99.4582590
   9.7437490  31.4394070  98.7607970  13.6279100  31.2776190  94.2574350
  13.8229730  32.1759640  94.5241780  12.8408970  31.0463270  94.7507300
   1.8130860  32.6236960  93.2950660   2.3423620  31.8366760  93.1658610
   2.4459180  33.3028150  93.5286190   4.0068700  32.3612100  96.3496050
   3.3771440  31.6599410  96.5166180   3.4673840  33.1216230  96.1329210
  15.1805710  48.5176900  96.0180910  15.3557900  47.8314640  95.3741830
  14.4827280  49.0423950  95.6257580   3.0233360  48.9071740  93.5716220
   3.7552180  48.6231020  93.0240110   3.2827030  48.6685020  94.4615600
   2.1848150  45.0236470  93.5762550   1.5557030  45.4921570  94.1248380
   2.2995980  44.1785690  94.0108740   9.6397870  39.0742130  79.7263750
   9.5591920  38.1596740  79.4555460   9.2262290  39.5709200  79.0203460
   7.7715910  40.8521150  81.6073020   6.9958010  40.3721590  81.8971590
   8.4228840  40.1726800  81.4329180  11.7923340  45.2581340  80.3872150
  11.3304870  44.4868580  80.7159320  12.6048890  45.2847410  80.8924600
   1.7683000  45.1981050  82.6806800   2.0711040  44.3078790  82.5017020
   2.5126590  45.7551270  82.4529050   8.0186650  47.5439350  80.0076140
   7.3998090  47.9996850  79.4370580   8.8738430  47.6990810  79.6065840
   7.2124900  43.5278340  81.6143180   7.1433180  42.5868280  81.4532310
   7.9744760  43.6179750  82.1865750   8.2430070  36.3348720  81.8412110
   8.6194890  35.4620600  81.7285780   8.1449580  36.6707420  80.9502550
   2.3735080  34.7074350  77.3029550   2.4801830  35.6078080  77.6098310
   1.4627440  34.6592320  77.0124200  12.0254190  33.8299160  78.7740450
  12.8463810  33.3395730  78.8165930  12.0588270  34.4196820  79.5272290
   4.2142810  37.6760720  81.6354730   4.7221030  38.1741690  82.2759750
   4.7456050  36.8995920  81.4594090  16.3153740  35.8465910  85.3384080
  15.6105910  36.2347620  84.8199190  16.5811660  36.5416200  85.9405010
   2.4978910  32.3159280  85.9018150   2.4997350  32.8331670  85.0964050
   1.6683220  31.8389460  85.8788080   8.8850000  42.4278590  77.4008050
   8.2667270  42.8928040  76.8370770   9.3973250  43.1206070  77.8177560
   3.7481760  41.9554460  84.0791650   3.4151140  42.5823380  84.7212720
   3.9248440  42.4816340  83.2993320  12.2615670  35.7699540  81.5467990
  11.5571240  36.0584430  82.1271100  12.6227830  36.5799650  81.1867550
   2.1794240  34.0269240  83.9088600   2.5211050  34.8711290  83.6142470
   1.2410050  34.1752980  84.0253940   2.9600860  43.9235260  85.8940830
   3.5774860  44.5986340  85.6125280   2.0993980  44.3323240  85.8028330
  13.8778450  45.3874670  83.8095470  13.1941970  46.0573780  83.8012140
  14.4172740  45.5855320  83.0440330  15.3302590  35.2154330  81.9377200
  14.3827500  35.2493310  82.0692630  15.6552580  36.0293280  82.3226560
   5.8622130  31.5151510  80.2333190   6.1697110  30.9598400  79.5168690
   4.9322830  31.6495970  80.0506180  11.4137190  47.2318800  82.5240650
  11.4264350  46.8281090  81.6562910  10.8612410  48.0066090  82.4202080
  12.7082610  43.9535020  77.6130820  12.5978940  43.0109350  77.7380240
  12.7050860  44.3150660  78.4993580  10.8122630  42.1348640  83.8523260
  11.2291420  41.9208750  83.0176720  11.5362450  42.3921430  84.4231880
   8.2502890  39.5800340  76.9693310   7.3232170  39.5137720  77.1981780
   8.4027710  40.5180470  76.8548550   8.2371970  35.8517340  73.9660470
   7.2975640  36.0131300  74.0512930   8.5555230  36.5703020  73.4196460
  14.7584730  40.5335860  83.9439500  13.9303360  40.6028950  83.4689630
  15.3535210  41.1190170  83.4755330  12.2800180  41.1420640  77.4728560
  11.6612600  40.8040190  76.8254860  12.2624630  40.4980400  78.1807750
  11.7226740  37.3205180  84.8894370  11.3097920  38.1458890  85.1434360
  10.9902690  36.7350220  84.6970730   3.8559530  40.1065080  79.7513040
   3.4516530  39.3942330  79.2558940   3.9422650  39.7618320  80.6401080
   4.3241230  43.7932640  81.9152250   4.0269520  43.1878110  81.2360030
   5.2741050  43.8309950  81.8041610   2.5688150  36.8808290  83.5312080
   3.1202740  36.9903630  82.7565330   3.0831660  37.2545890  84.2467310
  12.4126840  47.3664510  85.5775350  11.9357400  48.1736700  85.3847960
  11.7288630  46.7142840  85.7301560   3.4159660  43.5314330  88.5660050
   2.5188190  43.7554300  88.8133450   3.4412530  43.6549270  87.6171450
  10.4564880  40.3807450  74.4801310  10.8958160  39.5429880  74.3339130
  11.1693300  41.0136850  74.5665450   2.2430880  40.4027650  87.1417420
   2.1038650  41.2750450  87.5104820   1.3612240  40.0600460  86.9965360
   8.5660260  45.3203520  78.4482550   9.0056170  46.0627850  78.0337940
   8.5047150  45.5630090  79.3721510   4.0411230  46.3449350  89.3502570
   4.0126660  46.7492300  88.4831000   3.8776200  45.4159710  89.1874170
  14.0382020  31.6350260  72.7942350  13.7254680  31.7277090  73.6941420
  14.7994490  32.2131290  72.7439780  15.9926050  47.1276450  90.6466740
  16.4685770  47.6059340  91.3255820  16.6133210  47.0593940  89.9212240
  15.3959300  44.3189300  87.8066750  15.5222360  44.0801180  86.8883930
  15.4380680  43.4873840  88.2788830   9.2576040  48.0217300  86.3761560
   9.7720710  47.9325310  87.1783990   8.4145120  48.3677000  86.6689470
  11.2330440  48.3072640  75.8045560  11.0731580  48.0175580  76.7027390
  11.0677150  47.5312770  75.2690790   3.7118820  48.0871170  77.5817180
   3.5361300  47.1706710  77.3684980   2.8574560  48.4458460  77.8214980
  10.9356570  45.8160200  74.3643560  10.2421730  45.8137490  73.7045840
  11.6779430  45.3919520  73.9337730  10.5006500  47.4422910  78.4392050
  10.9563450  46.6612290  78.7530670  10.8399020  48.1529730  78.9833230
  15.2483310  36.3721760  88.7716490  14.6327580  36.8801430  88.2431950
  14.9279730  35.4720090  88.7142430   3.0227820  32.3445130  80.6343360
   2.5795970  33.1254670  80.3027880   3.5812810  32.6675020  81.3414300
   7.3097630  35.2113650  86.2378680   6.8477000  35.4196670  87.0498620
   6.9075740  34.3973000  85.9349350  12.3102140  36.4322600  87.3675340
  11.4595730  36.1328350  87.6884410  12.1503930  36.6764610  86.4559160
   9.4051850  37.9324350  89.4674130   9.7305260  37.0988100  89.1276360
  10.1932180  38.4552870  89.6152460   6.1386640  31.9655830  75.5149190
   5.5140820  31.9615700  76.2402500   6.0516760  31.0986790  75.1185160
   5.0603720  32.8892460  82.4932960   5.3576050  33.7955290  82.4124980
   5.6089280  32.4011240  81.8792530   2.8142040  37.4678700  78.3624610
   2.5882960  37.2515870  79.2671230   2.0334570  37.9007160  78.0170580
  10.0439800  37.4742070  76.9615260   9.4448690  38.1977870  76.7778880
  10.5919410  37.4118850  76.1791710   5.2541250  38.3664280  89.0284880
   5.1584850  37.4259010  88.8785280   6.0973230  38.5879350  88.6332950
   8.6504670  36.1105610  78.9918540   9.0434240  36.4277810  78.1787230
   9.0121520  35.2317490  79.1063060   6.9596840  34.8612920  90.2515400
   6.2695160  34.6685120  90.8861490   7.7029140  35.1447560  90.7839700
   9.2359810  38.7011360  83.0869320   8.5040930  39.2098170  83.4359420
   8.8384150  37.8841340  82.7858100   5.6737200  35.3765560  81.4921810
   5.6773260  34.9355510  80.6426350   6.5688320  35.6982890  81.5993630
   5.7357350  36.3777640  74.4828570   5.8570170  36.3364120  75.4314390
   5.3505860  37.2401790  74.3275300   9.6985720  34.1545040  82.4992260
   9.7158460  34.6053690  83.3434110   9.4501300  33.2550680  82.7125700
   4.7478850  38.6878780  73.8811870   4.1795750  38.2397030  73.2547780
   5.4567850  39.0471560  73.3477020  13.1256470  31.5677220  88.3378640
  13.4502240  30.8366880  88.8636620  13.1612980  31.2490860  87.4359630
   5.9745170  39.4367340  83.2387220   6.3415300  38.9625910  83.9848560
   5.7850230  40.3108910  83.5795560   3.7644540  38.4775980  85.5571430
   3.4601610  39.3567960  85.7821790   4.7191000  38.5375770  85.5928870
   2.2926330  42.6836970  76.1538280   1.5188590  42.1434590  75.9937000
   3.0220960  42.1643580  75.8156040  13.0514310  41.6802330  81.9464670
  13.7713430  42.1757620  81.5560780  12.8496130  41.0020220  81.3018540
   8.5124250  33.0740290  76.0894060   7.6988860  32.5753460  76.0139370
   8.3186200  33.9138540  75.6730410   8.4333110  41.7511390  87.8333670
   8.3670420  40.8307060  87.5791260   7.8038250  41.8486830  88.5478310
  11.2272640  37.4459940  74.3856220  12.1152260  37.7577170  74.2107560
  11.1977730  36.5732190  73.9936800   2.3363730  42.3517350  79.7917090
   2.8542400  41.5485610  79.7373980   1.8847750  42.2896490  80.6333920
   7.2233230  43.6183630  75.0644390   7.5648930  44.3625860  74.5687710
   6.3945940  43.9314750  75.4269220   3.0221390  39.7762960  89.5882340
   2.7221530  39.9220140  88.6910160   3.7932630  39.2168250  89.4955730
   8.3649840  44.5731960  87.5837470   8.3794380  43.6412920  87.3656380
   7.6574940  44.6591720  88.2227240  13.4986910  38.7571780  73.8536080
  13.4150630  39.1886000  73.0032520  14.2181100  39.2170130  74.2862900
  14.5761050  41.2139300  86.9306050  13.8509240  41.8068080  86.7335440
  15.1036510  41.2062840  86.1319420  14.5274160  45.6114040  76.5818210
  13.8850320  44.9569660  76.8561930  14.1404820  46.0169130  75.8058880
  10.1060640  42.9399470  80.4289900  10.4584460  42.3427600  79.7691270
   9.2222970  42.6143700  80.5998150   6.1923920  43.6997160  77.8360310
   6.8795050  44.2466370  78.2167900   5.4056340  44.2437890  77.8709920
   5.4951130  40.7043190  77.4485670   5.9513910  41.5148440  77.6745860
   5.1439340  40.3866330  78.2804160   7.7983740  46.2149530  84.6777970
   8.4425960  46.4208910  85.3551390   8.1613180  45.4537930  84.2248820
   9.0715820  44.2181880  83.3955420   9.7138050  43.5175040  83.5087590
   9.5965170  44.9980320  83.2152310  12.9171540  44.5030500  73.1194560
  12.6909120  43.7860940  73.7119200  12.5267740  44.2542940  72.2816310
  10.8453440  45.0176780  86.5991480  11.1809680  45.6043470  87.2769400
   9.9253780  44.8869490  86.8289270  12.4987790  42.4202440  74.7808720
  12.2109490  42.8815130  75.5686600  13.2939960  41.9600210  75.0492940
   6.6742020  45.0668110  89.7679540   6.3538890  44.3477350  90.3125230
   6.0000380  45.7423180  89.8415600   4.7156190  45.9128560  74.7112690
   4.7066290  46.6458250  74.0957200   3.7954550  45.6660140  74.8039650
   9.8895620  35.2994270  85.1316340  10.2576440  34.4789480  85.4595910
   9.0293820  35.3596160  85.5471990  13.2557650  34.2551210  75.9403900
  12.6270810  34.3596880  75.2262130  12.7609570  34.4747990  76.7297780
   7.7015790  45.9756800  73.3737880   7.8027770  45.7720790  72.4439860
   6.8017530  45.7215080  73.5785660   5.2241680  36.5337160  77.3561780
   4.5157830  37.0023500  77.7975390   5.5086160  35.8759170  77.9906970
   6.8497610  37.9533860  85.3554310   7.3482860  38.4279680  86.0206160
   6.9920560  37.0297380  85.5624340   9.2557110  33.2587820  78.7957570
   9.1324890  33.2773950  77.8467080  10.2041670  33.3066760  78.9155970
   6.3433900  48.4943120  78.0685550   6.5975400  48.4564510  77.1464920
   5.3946380  48.3676450  78.0613800   3.4276700  34.8422240  74.7312490
   4.2767230  35.2792390  74.6652680   3.0607970  35.1542500  75.5584550
  14.0564470  34.1701820  86.1982700  13.5538070  34.9107220  86.5376510
  14.8721130  34.5585820  85.8819490  12.3486480  39.4135000  79.6444060
  11.4076620  39.4285230  79.8191750  12.6630550  38.6270960  80.0904360
   2.3268120  41.0954600  73.2048020   3.0931390  40.9835960  73.7673450
   2.4042810  40.3992570  72.5524790  14.3512060  46.5843850  81.3198320
  14.4759480  47.4075020  81.7922130  15.2177620  46.3734580  80.9722470
   1.8229590  48.6775060  80.9915450   2.5592070  48.1290520  81.2624020
   2.2070510  49.5431070  80.8521440   4.9331900  47.8505370  72.8141020
   5.7260510  48.1394200  72.3622810   4.4136250  47.4197540  72.1353500
   9.6652500  43.9701000  90.1276440   9.0590660  43.9932600  89.3872190
   9.3606610  43.2384040  90.6643690  11.0952870  47.6981290  88.7385850
  12.0474620  47.6139310  88.6886090  10.9481090  48.3623000  89.4119640
  13.9862070  47.0775500  74.2377760  13.7003580  46.6640640  73.4231940
  13.7881620  48.0063210  74.1178280   5.4509300  43.0708780  72.6783370
   5.3459940  42.4561130  73.4044750   5.2833520  42.5474670  71.8946380
   5.6023620  41.7565580  88.6572600   4.8369290  42.3250580  88.5727270
   5.7839580  41.4641790  87.7640830   8.6912030  42.1328810  73.2825360
   8.1422130  42.5798110  73.9268100   9.3131290  41.6278060  73.8063030
  12.7446970  43.4870910  89.2147620  13.4856440  43.8246670  88.7115080
  11.9819650  43.6562970  88.6617390   4.3587150  41.0919730  75.1790660
   4.7803570  40.9259600  76.0222050   4.4837990  40.2819960  74.6845800
   2.5214570  37.0716280  87.9861640   1.9911030  36.5807230  87.3584980
   3.1902640  37.5000480  87.4519570   6.8714790  40.1157340  72.4267760
   7.3920450  39.4006360  72.0608910   7.5183190  40.7543210  72.7268270
  11.4192630  41.5385740  87.7502830  11.8333650  41.6930820  88.5993250
  10.4843630  41.6640960  87.9128610  11.8914800  38.8781900  89.7541980
  12.4735570  38.1234220  89.6662460  12.0676570  39.4089340  88.9773460
   3.0086870  34.0378650  88.0658930   2.9143740  33.4199400  87.3409800
   2.4284260  34.7644940  87.8388840   5.7748310  32.5951890  85.0986320
   5.3265610  32.6176150  84.2531870   5.1413510  32.1970910  85.6956620
   6.1807860  41.4906220  85.7198760   6.5995970  42.3338950  85.5475000
   5.2616490  41.6278260  85.4905540   8.5171760  39.2222400  87.1036600
   8.6367970  38.6263540  87.8431440   9.3765760  39.2592090  86.6837900
  10.8559660  39.7759590  85.6799110  10.3294880  40.3002210  85.0764250
  11.1991000  40.4086980  86.3108840   3.2546050  37.1652960  72.1248820
   3.0535110  36.3020320  72.4862160   3.0838100  37.0786320  71.1870420
   4.0315280  47.7959230  86.8356490   3.4936370  48.5205290  86.5165190
   4.2849240  47.3189570  86.0453830   5.2840530  35.7643750  88.3612420
   5.8740220  35.4559600  89.0490240   4.4660770  35.2923500  88.5172320
  10.1033960  35.3809560  88.5945440   9.4149480  34.7191100  88.5295430
  10.8239980  34.9347830  89.0393900  10.7334360  31.9761190  74.6535700
  11.0136650  31.1329090  75.0095120   9.9600090  32.2084300  75.1674450
   2.0528850  34.2653580  72.1126700   2.3554750  34.2721010  71.2045850
   2.7923440  33.9151440  72.6094360   6.8877490  49.0310440  87.0943140
   6.8136190  49.9345580  87.4015510   5.9856330  48.7122340  87.0665210
   5.2713780  33.2088200  73.0982900   4.9235780  32.5312190  72.5185350
   5.4726550  32.7477710  73.9126290   7.4362820  48.1968950  74.7169500
   8.3313610  48.5353920  74.7388260   7.4680450  47.4748360  74.0893780
   2.8866700  44.6894040  78.0578730   2.5862240  44.5659010  78.9582640
   2.7804190  43.8302630  77.6494460  14.4157170  46.7272620  87.4235700
  13.8159160  46.7865180  86.6799620  14.5451070  45.7877600  87.5532550
  15.6558620  44.4690440  72.7605410  14.8251580  44.5367090  73.2312640
  15.8330450  45.3594560  72.4572270  15.1115080  41.2137920  75.2639610
  15.8733990  41.7834570  75.3699300  15.1269450  40.6465120  76.0347920
  16.1175050  42.0688020  80.1081540  16.4883880  41.2855340  79.7017510
  16.7576980  42.7577120  79.9298840  13.1008810  43.4524600  85.5211860
  12.2868650  43.8821760  85.7837650  13.5083010  44.0643010  84.9080910
  15.1634250  41.5072290  72.4212130  15.4383090  42.4151170  72.2931350
  14.9744990  41.4434820  73.3574120  11.5609860  34.5317140  73.7165760
  11.9794740  34.3448120  72.8762420  11.2545920  33.6796190  74.0268690
  15.0599590  39.4441280  77.4141560  14.6843190  38.6769210  76.9822850
  14.3302710  39.8263980  77.9016490  14.4499210  38.5912800  87.0481080
  14.2185300  38.3625550  86.1479030  14.7103760  39.5112350  87.0025970
  12.8887280  33.8169230  89.8260780  13.7657460  33.8252630  90.2094780
  12.9008120  33.0800070  89.2153130  14.3350550  37.6698770  80.7148800
  14.8588030  37.1761420  80.0838970  14.9209970  37.8049130  81.4596370
  14.5140270  37.7538640  84.2368350  13.5642980  37.7202180  84.3513340
  14.6953280  38.6638750  84.0018120  13.8250520  36.9272120  76.6541210
  14.3209640  36.6942990  77.4390090  13.6266590  36.0883960  76.2378850
  15.2537680  35.5633070  79.1878890  15.1436960  35.4089110  80.1261160
  16.0145270  35.0354010  78.9454300  13.6003400  31.5027200  85.6461890
  14.2375620  32.1161340  86.0121080  13.7478290  31.5387860  84.7011120
  16.1427950  33.3940990  72.4285030  17.0677260  33.2622170  72.2203320
  16.1203740  33.4733810  73.3821480  16.2166440  34.1651650  75.0541740
  15.4217940  34.0996770  75.5834650  16.4209720  35.1002290  75.0427090
  13.1584860  48.2043200  79.0480130  13.7543930  47.8827770  78.3714550
  13.4163010  47.7315020  79.8393400   4.7653460  46.1920700  84.7980480
   4.5244820  46.4595260  83.9111000   5.7056100  46.3626430  84.8531340
   6.9707880  32.6553390  88.5536990   6.9096770  33.2475220  89.3032400
   7.9108260  32.5479350  88.4087250   9.6082440  32.3123450  88.1929280
  10.2222850  32.6302740  87.5310360  10.1532000  31.8272040  88.8125140
  16.0257620  48.2115080  85.5991120  15.5315900  48.6083950  84.8818250
  15.4170910  47.5864290  85.9928400  10.3490480  30.8755590  84.5198570
   9.4750320  31.2090700  84.3171500  10.2401230  30.4028770  85.3450440
  11.2562460  33.0826460  85.9040290  10.9275820  32.2678220  85.5242020
  12.2044760  33.0396270  85.7805980  13.7097070  48.8538500  82.8777860
  13.2500040  49.6054310  82.5035880  13.0809530  48.1344970  82.8192660
   4.1392790  47.1626740  82.0525990   4.6557810  46.5514100  81.5274250
   4.7890170  47.6655520  82.5437000   6.8788290  48.0535230  82.8794970
   7.1666100  47.7989530  82.0027980   7.3911510  47.5012590  83.4700540
   8.0965300  31.7925430  83.4591480   7.3137090  32.2670930  83.7388240
   7.8028230  30.8880260  83.3504660  12.6486370  32.4948530  81.5040570
  13.0894460  32.4393630  80.6562170  12.3793960  33.4106540  81.5750750
  14.5124940  32.1263770  79.5149390  14.4513340  31.1824990  79.3680410
  15.2916970  32.2343860  80.0602850   5.9819520  34.2112180  78.9707510
   5.1694030  33.8369070  78.6303390   6.4861160  33.4557260  79.2728700
  10.4844500  30.8754630  80.2090580  11.0873870  31.4474840  80.6839100
   9.7437490  31.4394070  79.9864480  13.6279100  31.2776190  75.4830860
  13.8229730  32.1759640  75.7498290  12.8408970  31.0463270  75.9763810
   1.8130860  32.6236960  74.5207170   2.3423620  31.8366760  74.3915120
   2.4459180  33.3028150  74.7542700   4.0068700  32.3612100  77.5752560
   3.3771440  31.6599410  77.7422690   3.4673840  33.1216230  77.3585720
   6.9460650  48.9751330  90.2463170   7.8727960  48.7395600  90.2899130
   6.9311080  49.8023330  89.7649200  15.1805710  48.5176900  77.2437420
  15.3557900  47.8314640  76.5998340  14.4827280  49.0423950  76.8514090
   4.1324260  31.6396080  90.0105050   3.8508530  32.1429680  89.2465870
   4.5143960  30.8417830  89.6447180   3.0233360  48.9071740  74.7972730
   3.7552180  48.6231020  74.2496620   3.2827030  48.6685020  75.6872110
   2.1848150  45.0236470  74.8019060   1.5557030  45.4921570  75.3504890
   2.2995980  44.1785690  75.2365250  10.7339720  31.0549660  90.5885520
  10.6205170  31.3744270  91.4837040  11.5509460  31.4562170  90.2922800
  13.5138210  48.2021190  90.0704210  14.3063530  47.7070420  89.8630170
  13.8071360  48.8811330  90.6779820   9.6397870  39.0742130  60.9520260
   9.5591920  38.1596740  60.6811970   9.2262290  39.5709200  60.2459970
   7.7715910  40.8521150  62.8329530   6.9958010  40.3721590  63.1228100
   8.4228840  40.1726800  62.6585690  11.7923340  45.2581340  61.6128660
  11.3304870  44.4868580  61.9415830  12.6048890  45.2847410  62.1181110
   1.7683000  45.1981050  63.9063310   2.0711040  44.3078790  63.7273530
   2.5126590  45.7551270  63.6785560   8.0186650  47.5439350  61.2332650
   7.3998090  47.9996850  60.6627090   8.8738430  47.6990810  60.8322350
   7.2124900  43.5278340  62.8399690   7.1433180  42.5868280  62.6788820
   7.9744760  43.6179750  63.4122260   8.2430070  36.3348720  63.0668620
   8.6194890  35.4620600  62.9542290   8.1449580  36.6707420  62.1759060
   2.3735080  34.7074350  58.5286060   2.4801830  35.6078080  58.8354820
   1.4627440  34.6592320  58.2380710  12.0254190  33.8299160  59.9996960
  12.8463810  33.3395730  60.0422440  12.0588270  34.4196820  60.7528800
   4.2142810  37.6760720  62.8611240   4.7221030  38.1741690  63.5016260
   4.7456050  36.8995920  62.6850600  16.3153740  35.8465910  66.5640590
  15.6105910  36.2347620  66.0455700  16.5811660  36.5416200  67.1661520
   2.4978910  32.3159280  67.1274660   2.4997350  32.8331670  66.3220560
   1.6683220  31.8389460  67.1044590   8.8850000  42.4278590  58.6264560
   8.2667270  42.8928040  58.0627280   9.3973250  43.1206070  59.0434070
   3.7481760  41.9554460  65.3048160   3.4151140  42.5823380  65.9469230
   3.9248440  42.4816340  64.5249830  12.2615670  35.7699540  62.7724500
  11.5571240  36.0584430  63.3527610  12.6227830  36.5799650  62.4124060
   2.1794240  34.0269240  65.1345110   2.5211050  34.8711290  64.8398980
   1.2410050  34.1752980  65.2510450   2.9600860  43.9235260  67.1197340
   3.5774860  44.5986340  66.8381790   2.0993980  44.3323240  67.0284840
  13.8778450  45.3874670  65.0351980  13.1941970  46.0573780  65.0268650
  14.4172740  45.5855320  64.2696840  15.3302590  35.2154330  63.1633710
  14.3827500  35.2493310  63.2949140  15.6552580  36.0293280  63.5483070
   5.8622130  31.5151510  61.4589700   6.1697110  30.9598400  60.7425200
   4.9322830  31.6495970  61.2762690  11.4137190  47.2318800  63.7497160
  11.4264350  46.8281090  62.8819420  10.8612410  48.0066090  63.6458590
  12.7082610  43.9535020  58.8387330  12.5978940  43.0109350  58.9636750
  12.7050860  44.3150660  59.7250090  10.8122630  42.1348640  65.0779770
  11.2291420  41.9208750  64.2433230  11.5362450  42.3921430  65.6488390
   8.2502890  39.5800340  58.1949820   7.3232170  39.5137720  58.4238290
   8.4027710  40.5180470  58.0805060   8.2371970  35.8517340  55.1916980
   7.2975640  36.0131300  55.2769440   8.5555230  36.5703020  54.6452970
  14.7584730  40.5335860  65.1696010  13.9303360  40.6028950  64.6946140
  15.3535210  41.1190170  64.7011840  12.2800180  41.1420640  58.6985070
  11.6612600  40.8040190  58.0511370  12.2624630  40.4980400  59.4064260
  11.7226740  37.3205180  66.1150880  11.3097920  38.1458890  66.3690870
  10.9902690  36.7350220  65.9227240   3.8559530  40.1065080  60.9769550
   3.4516530  39.3942330  60.4815450   3.9422650  39.7618320  61.8657590
   4.3241230  43.7932640  63.1408760   4.0269520  43.1878110  62.4616540
   5.2741050  43.8309950  63.0298120   2.5688150  36.8808290  64.7568590
   3.1202740  36.9903630  63.9821840   3.0831660  37.2545890  65.4723820
  12.4126840  47.3664510  66.8031860  11.9357400  48.1736700  66.6104470
  11.7288630  46.7142840  66.9558070   3.4159660  43.5314330  69.7916560
   2.5188190  43.7554300  70.0389960   3.4412530  43.6549270  68.8427960
  10.4564880  40.3807450  55.7057820  10.8958160  39.5429880  55.5595640
  11.1693300  41.0136850  55.7921960   2.2430880  40.4027650  68.3673930
   2.1038650  41.2750450  68.7361330   1.3612240  40.0600460  68.2221870
   8.5660260  45.3203520  59.6739060   9.0056170  46.0627850  59.2594450
   8.5047150  45.5630090  60.5978020   4.0411230  46.3449350  70.5759080
   4.0126660  46.7492300  69.7087510   3.8776200  45.4159710  70.4130680
  14.0382020  31.6350260  54.0198860  13.7254680  31.7277090  54.9197930
  14.7994490  32.2131290  53.9696290  15.9926050  47.1276450  71.8723250
  16.4685770  47.6059340  72.5512330  16.6133210  47.0593940  71.1468750
  15.3959300  44.3189300  69.0323260  15.5222360  44.0801180  68.1140440
  15.4380680  43.4873840  69.5045340   9.2576040  48.0217300  67.6018070
   9.7720710  47.9325310  68.4040500   8.4145120  48.3677000  67.8945980
  11.2330440  48.3072640  57.0302070  11.0731580  48.0175580  57.9283900
  11.0677150  47.5312770  56.4947300   3.7118820  48.0871170  58.8073690
   3.5361300  47.1706710  58.5941490   2.8574560  48.4458460  59.0471490
  10.9356570  45.8160200  55.5900070  10.2421730  45.8137490  54.9302350
  11.6779430  45.3919520  55.1594240  10.5006500  47.4422910  59.6648560
  10.9563450  46.6612290  59.9787180  10.8399020  48.1529730  60.2089740
  15.2483310  36.3721760  69.9973000  14.6327580  36.8801430  69.4688460
  14.9279730  35.4720090  69.9398940   3.0227820  32.3445130  61.8599870
   2.5795970  33.1254670  61.5284390   3.5812810  32.6675020  62.5670810
   7.3097630  35.2113650  67.4635190   6.8477000  35.4196670  68.2755130
   6.9075740  34.3973000  67.1605860  12.3102140  36.4322600  68.5931850
  11.4595730  36.1328350  68.9140920  12.1503930  36.6764610  67.6815670
   9.4051850  37.9324350  70.6930640   9.7305260  37.0988100  70.3532870
  10.1932180  38.4552870  70.8408970   6.1386640  31.9655830  56.7405700
   5.5140820  31.9615700  57.4659010   6.0516760  31.0986790  56.3441670
   5.0603720  32.8892460  63.7189470   5.3576050  33.7955290  63.6381490
   5.6089280  32.4011240  63.1049040   2.8142040  37.4678700  59.5881120
   2.5882960  37.2515870  60.4927740   2.0334570  37.9007160  59.2427090
  10.0439800  37.4742070  58.1871770   9.4448690  38.1977870  58.0035390
  10.5919410  37.4118850  57.4048220   5.2541250  38.3664280  70.2541390
   5.1584850  37.4259010  70.1041790   6.0973230  38.5879350  69.8589460
   8.6504670  36.1105610  60.2175050   9.0434240  36.4277810  59.4043740
   9.0121520  35.2317490  60.3319570   6.9596840  34.8612920  71.4771910
   6.2695160  34.6685120  72.1118000   7.7029140  35.1447560  72.0096210
   9.2359810  38.7011360  64.3125830   8.5040930  39.2098170  64.6615930
   8.8384150  37.8841340  64.0114610   5.6737200  35.3765560  62.7178320
   5.6773260  34.9355510  61.8682860   6.5688320  35.6982890  62.8250140
   5.7357350  36.3777640  55.7085080   5.8570170  36.3364120  56.6570900
   5.3505860  37.2401790  55.5531810   9.6985720  34.1545040  63.7248770
   9.7158460  34.6053690  64.5690620   9.4501300  33.2550680  63.9382210
   4.7478850  38.6878780  55.1068380   4.1795750  38.2397030  54.4804290
   5.4567850  39.0471560  54.5733530  13.1256470  31.5677220  69.5635150
  13.4502240  30.8366880  70.0893130  13.1612980  31.2490860  68.6616140
   5.9745170  39.4367340  64.4643730   6.3415300  38.9625910  65.2105070
   5.7850230  40.3108910  64.8052070   3.7644540  38.4775980  66.7827940
   3.4601610  39.3567960  67.0078300   4.7191000  38.5375770  66.8185380
   2.2926330  42.6836970  57.3794790   1.5188590  42.1434590  57.2193510
   3.0220960  42.1643580  57.0412550  13.0514310  41.6802330  63.1721180
  13.7713430  42.1757620  62.7817290  12.8496130  41.0020220  62.5275050
   8.5124250  33.0740290  57.3150570   7.6988860  32.5753460  57.2395880
   8.3186200  33.9138540  56.8986920   8.4333110  41.7511390  69.0590180
   8.3670420  40.8307060  68.8047770   7.8038250  41.8486830  69.7734820
  11.2272640  37.4459940  55.6112730  12.1152260  37.7577170  55.4364070
  11.1977730  36.5732190  55.2193310   2.3363730  42.3517350  61.0173600
   2.8542400  41.5485610  60.9630490   1.8847750  42.2896490  61.8590430
   7.2233230  43.6183630  56.2900900   7.5648930  44.3625860  55.7944220
   6.3945940  43.9314750  56.6525730   3.0221390  39.7762960  70.8138850
   2.7221530  39.9220140  69.9166670   3.7932630  39.2168250  70.7212240
   8.3649840  44.5731960  68.8093980   8.3794380  43.6412920  68.5912890
   7.6574940  44.6591720  69.4483750  13.4986910  38.7571780  55.0792590
  13.4150630  39.1886000  54.2289030  14.2181100  39.2170130  55.5119410
  14.5761050  41.2139300  68.1562560  13.8509240  41.8068080  67.9591950
  15.1036510  41.2062840  67.3575930  14.5274160  45.6114040  57.8074720
  13.8850320  44.9569660  58.0818440  14.1404820  46.0169130  57.0315390
  10.1060640  42.9399470  61.6546410  10.4584460  42.3427600  60.9947780
   9.2222970  42.6143700  61.8254660   6.1923920  43.6997160  59.0616820
   6.8795050  44.2466370  59.4424410   5.4056340  44.2437890  59.0966430
   5.4951130  40.7043190  58.6742180   5.9513910  41.5148440  58.9002370
   5.1439340  40.3866330  59.5060670   7.7983740  46.2149530  65.9034480
   8.4425960  46.4208910  66.5807900   8.1613180  45.4537930  65.4505330
   9.0715820  44.2181880  64.6211930   9.7138050  43.5175040  64.7344100
   9.5965170  44.9980320  64.4408820  12.9171540  44.5030500  54.3451070
  12.6909120  43.7860940  54.9375710  12.5267740  44.2542940  53.5072820
  10.8453440  45.0176780  67.8247990  11.1809680  45.6043470  68.5025910
   9.9253780  44.8869490  68.0545780  12.4987790  42.4202440  56.0065230
  12.2109490  42.8815130  56.7943110  13.2939960  41.9600210  56.2749450
   6.6742020  45.0668110  70.9936050   6.3538890  44.3477350  71.5381740
   6.0000380  45.7423180  71.0672110   4.7156190  45.9128560  55.9369200
   4.7066290  46.6458250  55.3213710   3.7954550  45.6660140  56.0296160
   9.8895620  35.2994270  66.3572850  10.2576440  34.4789480  66.6852420
   9.0293820  35.3596160  66.7728500  13.2557650  34.2551210  57.1660410
  12.6270810  34.3596880  56.4518640  12.7609570  34.4747990  57.9554290
   7.7015790  45.9756800  54.5994390   7.8027770  45.7720790  53.6696370
   6.8017530  45.7215080  54.8042170   5.2241680  36.5337160  58.5818290
   4.5157830  37.0023500  59.0231900   5.5086160  35.8759170  59.2163480
   6.8497610  37.9533860  66.5810820   7.3482860  38.4279680  67.2462670
   6.9920560  37.0297380  66.7880850   9.2557110  33.2587820  60.0214080
   9.1324890  33.2773950  59.0723590  10.2041670  33.3066760  60.1412480
   6.3433900  48.4943120  59.2942060   6.5975400  48.4564510  58.3721430
   5.3946380  48.3676450  59.2870310   3.4276700  34.8422240  55.9569000
   4.2767230  35.2792390  55.8909190   3.0607970  35.1542500  56.7841060
  14.0564470  34.1701820  67.4239210  13.5538070  34.9107220  67.7633020
  14.8721130  34.5585820  67.1076000  12.3486480  39.4135000  60.8700570
  11.4076620  39.4285230  61.0448260  12.6630550  38.6270960  61.3160870
   2.3268120  41.0954600  54.4304530   3.0931390  40.9835960  54.9929960
   2.4042810  40.3992570  53.7781300  14.3512060  46.5843850  62.5454830
  14.4759480  47.4075020  63.0178640  15.2177620  46.3734580  62.1978980
   1.8229590  48.6775060  62.2171960   2.5592070  48.1290520  62.4880530
   2.2070510  49.5431070  62.0777950   4.9331900  47.8505370  54.0397530
   5.7260510  48.1394200  53.5879320   4.4136250  47.4197540  53.3610010
   9.6652500  43.9701000  71.3532950   9.0590660  43.9932600  70.6128700
   9.3606610  43.2384040  71.8900200  11.0952870  47.6981290  69.9642360
  12.0474620  47.6139310  69.9142600  10.9481090  48.3623000  70.6376150
  13.9862070  47.0775500  55.4634270  13.7003580  46.6640640  54.6488450
  13.7881620  48.0063210  55.3434790   5.4509300  43.0708780  53.9039880
   5.3459940  42.4561130  54.6301260   5.2833520  42.5474670  53.1202890
   5.6023620  41.7565580  69.8829110   4.8369290  42.3250580  69.7983780
   5.7839580  41.4641790  68.9897340   8.6912030  42.1328810  54.5081870
   8.1422130  42.5798110  55.1524610   9.3131290  41.6278060  55.0319540
  12.7446970  43.4870910  70.4404130  13.4856440  43.8246670  69.9371590
  11.9819650  43.6562970  69.8873900   4.3587150  41.0919730  56.4047170
   4.7803570  40.9259600  57.2478560   4.4837990  40.2819960  55.9102310
   2.5214570  37.0716280  69.2118150   1.9911030  36.5807230  68.5841490
   3.1902640  37.5000480  68.6776080   6.8714790  40.1157340  53.6524270
   7.3920450  39.4006360  53.2865420   7.5183190  40.7543210  53.9524780
  11.4192630  41.5385740  68.9759340  11.8333650  41.6930820  69.8249760
  10.4843630  41.6640960  69.1385120  11.8914800  38.8781900  70.9798490
  12.4735570  38.1234220  70.8918970  12.0676570  39.4089340  70.2029970
   3.0086870  34.0378650  69.2915440   2.9143740  33.4199400  68.5666310
   2.4284260  34.7644940  69.0645350   5.7748310  32.5951890  66.3242830
   5.3265610  32.6176150  65.4788380   5.1413510  32.1970910  66.9213130
   6.1807860  41.4906220  66.9455270   6.5995970  42.3338950  66.7731510
   5.2616490  41.6278260  66.7162050   8.5171760  39.2222400  68.3293110
   8.6367970  38.6263540  69.0687950   9.3765760  39.2592090  67.9094410
  10.8559660  39.7759590  66.9055620  10.3294880  40.3002210  66.3020760
  11.1991000  40.4086980  67.5365350   3.2546050  37.1652960  53.3505330
   3.0535110  36.3020320  53.7118670   3.0838100  37.0786320  52.4126930
   4.0315280  47.7959230  68.0613000   3.4936370  48.5205290  67.7421700
   4.2849240  47.3189570  67.2710340   5.2840530  35.7643750  69.5868930
   5.8740220  35.4559600  70.2746750   4.4660770  35.2923500  69.7428830
  10.1033960  35.3809560  69.8201950   9.4149480  34.7191100  69.7551940
  10.8239980  34.9347830  70.2650410  10.7334360  31.9761190  55.8792210
  11.0136650  31.1329090  56.2351630   9.9600090  32.2084300  56.3930960
   2.0528850  34.2653580  53.3383210   2.3554750  34.2721010  52.4302360
   2.7923440  33.9151440  53.8350870   6.8877490  49.0310440  68.3199650
   6.8136190  49.9345580  68.6272020   5.9856330  48.7122340  68.2921720
   5.2713780  33.2088200  54.3239410   4.9235780  32.5312190  53.7441860
   5.4726550  32.7477710  55.1382800   7.4362820  48.1968950  55.9426010
   8.3313610  48.5353920  55.9644770   7.4680450  47.4748360  55.3150290
   2.8866700  44.6894040  59.2835240   2.5862240  44.5659010  60.1839150
   2.7804190  43.8302630  58.8750970  14.4157170  46.7272620  68.6492210
  13.8159160  46.7865180  67.9056130  14.5451070  45.7877600  68.7789060
  15.6558620  44.4690440  53.9861920  14.8251580  44.5367090  54.4569150
  15.8330450  45.3594560  53.6828780  15.1115080  41.2137920  56.4896120
  15.8733990  41.7834570  56.5955810  15.1269450  40.6465120  57.2604430
  16.1175050  42.0688020  61.3338050  16.4883880  41.2855340  60.9274020
  16.7576980  42.7577120  61.1555350  13.1008810  43.4524600  66.7468370
  12.2868650  43.8821760  67.0094160  13.5083010  44.0643010  66.1337420
  15.1634250  41.5072290  53.6468640  15.4383090  42.4151170  53.5187860
  14.9744990  41.4434820  54.5830630  11.5609860  34.5317140  54.9422270
  11.9794740  34.3448120  54.1018930  11.2545920  33.6796190  55.2525200
  15.0599590  39.4441280  58.6398070  14.6843190  38.6769210  58.2079360
  14.3302710  39.8263980  59.1273000  14.4499210  38.5912800  68.2737590
  14.2185300  38.3625550  67.3735540  14.7103760  39.5112350  68.2282480
  12.8887280  33.8169230  71.0517290  13.7657460  33.8252630  71.4351290
  12.9008120  33.0800070  70.4409640  14.3350550  37.6698770  61.9405310
  14.8588030  37.1761420  61.3095480  14.9209970  37.8049130  62.6852880
  14.5140270  37.7538640  65.4624860  13.5642980  37.7202180  65.5769850
  14.6953280  38.6638750  65.2274630  13.8250520  36.9272120  57.8797720
  14.3209640  36.6942990  58.6646600  13.6266590  36.0883960  57.4635360
  15.2537680  35.5633070  60.4135400  15.1436960  35.4089110  61.3517670
  16.0145270  35.0354010  60.1710810  13.6003400  31.5027200  66.8718400
  14.2375620  32.1161340  67.2377590  13.7478290  31.5387860  65.9267630
  16.1427950  33.3940990  53.6541540  17.0677260  33.2622170  53.4459830
  16.1203740  33.4733810  54.6077990  16.2166440  34.1651650  56.2798250
  15.4217940  34.0996770  56.8091160  16.4209720  35.1002290  56.2683600
  13.1584860  48.2043200  60.2736640  13.7543930  47.8827770  59.5971060
  13.4163010  47.7315020  61.0649910   4.7653460  46.1920700  66.0236990
   4.5244820  46.4595260  65.1367510   5.7056100  46.3626430  66.0787850
   6.9707880  32.6553390  69.7793500   6.9096770  33.2475220  70.5288910
   7.9108260  32.5479350  69.6343760   9.6082440  32.3123450  69.4185790
  10.2222850  32.6302740  68.7566870  10.1532000  31.8272040  70.0381650
  16.0257620  48.2115080  66.8247630  15.5315900  48.6083950  66.1074760
  15.4170910  47.5864290  67.2184910  10.3490480  30.8755590  65.7455080
   9.4750320  31.2090700  65.5428010  10.2401230  30.4028770  66.5706950
  11.2562460  33.0826460  67.1296800  10.9275820  32.2678220  66.7498530
  12.2044760  33.0396270  67.0062490  13.7097070  48.8538500  64.1034370
  13.2500040  49.6054310  63.7292390  13.0809530  48.1344970  64.0449170
   4.1392790  47.1626740  63.2782500   4.6557810  46.5514100  62.7530760
   4.7890170  47.6655520  63.7693510   6.8788290  48.0535230  64.1051480
   7.1666100  47.7989530  63.2284490   7.3911510  47.5012590  64.6957050
   8.0965300  31.7925430  64.6847990   7.3137090  32.2670930  64.9644750
   7.8028230  30.8880260  64.5761170  12.6486370  32.4948530  62.7297080
  13.0894460  32.4393630  61.8818680  12.3793960  33.4106540  62.8007260
  14.5124940  32.1263770  60.7405900  14.4513340  31.1824990  60.5936920
  15.2916970  32.2343860  61.2859360   5.9819520  34.2112180  60.1964020
   5.1694030  33.8369070  59.8559900   6.4861160  33.4557260  60.4985210
  10.4844500  30.8754630  61.4347090  11.0873870  31.4474840  61.9095610
   9.7437490  31.4394070  61.2120990  13.6279100  31.2776190  56.7087370
  13.8229730  32.1759640  56.9754800  12.8408970  31.0463270  57.2020320
   1.8130860  32.6236960  55.7463680   2.3423620  31.8366760  55.6171630
   2.4459180  33.3028150  55.9799210   4.0068700  32.3612100  58.8009070
   3.3771440  31.6599410  58.9679200   3.4673840  33.1216230  58.5842230
   6.9460650  48.9751330  71.4719680   7.8727960  48.7395600  71.5155640
   6.9311080  49.8023330  70.9905710  15.1805710  48.5176900  58.4693930
  15.3557900  47.8314640  57.8254850  14.4827280  49.0423950  58.0770600
   4.1324260  31.6396080  71.2361560   3.8508530  32.1429680  70.4722380
   4.5143960  30.8417830  70.8703690   3.0233360  48.9071740  56.0229240
   3.7552180  48.6231020  55.4753130   3.2827030  48.6685020  56.9128620
   2.1848150  45.0236470  56.0275570   1.5557030  45.4921570  56.5761400
   2.2995980  44.1785690  56.4621760  10.7339720  31.0549660  71.8142030
  10.6205170  31.3744270  72.7093550  11.5509460  31.4562170  71.5179310
  13.5138210  48.2021190  71.2960720  14.3063530  47.7070420  71.0886680
  13.8071360  48.8811330  71.9036330   9.6397870  39.0742130  42.1776770
   9.5591920  38.1596740  41.9068480   9.2262290  39.5709200  41.4716480
   7.7715910  40.8521150  44.0586040   6.9958010  40.3721590  44.3484610
   8.4228840  40.1726800  43.8842200  11.7923340  45.2581340  42.8385170
  11.3304870  44.4868580  43.1672340  12.6048890  45.2847410  43.3437620
   1.7683000  45.1981050  45.1319820   2.0711040  44.3078790  44.9530040
   2.5126590  45.7551270  44.9042070   8.0186650  47.5439350  42.4589160
   7.3998090  47.9996850  41.8883600   8.8738430  47.6990810  42.0578860
   7.2124900  43.5278340  44.0656200   7.1433180  42.5868280  43.9045330
   7.9744760  43.6179750  44.6378770   8.2430070  36.3348720  44.2925130
   8.6194890  35.4620600  44.1798800   8.1449580  36.6707420  43.4015570
   2.3735080  34.7074350  39.7542570   2.4801830  35.6078080  40.0611330
   1.4627440  34.6592320  39.4637220  12.0254190  33.8299160  41.2253470
  12.8463810  33.3395730  41.2678950  12.0588270  34.4196820  41.9785310
   4.2142810  37.6760720  44.0867750   4.7221030  38.1741690  44.7272770
   4.7456050  36.8995920  43.9107110  16.3153740  35.8465910  47.7897100
  15.6105910  36.2347620  47.2712210  16.5811660  36.5416200  48.3918030
   2.4978910  32.3159280  48.3531170   2.4997350  32.8331670  47.5477070
   1.6683220  31.8389460  48.3301100   8.8850000  42.4278590  39.8521070
   8.2667270  42.8928040  39.2883790   9.3973250  43.1206070  40.2690580
   3.7481760  41.9554460  46.5304670   3.4151140  42.5823380  47.1725740
   3.9248440  42.4816340  45.7506340  12.2615670  35.7699540  43.9981010
  11.5571240  36.0584430  44.5784120  12.6227830  36.5799650  43.6380570
   2.1794240  34.0269240  46.3601620   2.5211050  34.8711290  46.0655490
   1.2410050  34.1752980  46.4766960   2.9600860  43.9235260  48.3453850
   3.5774860  44.5986340  48.0638300   2.0993980  44.3323240  48.2541350
  13.8778450  45.3874670  46.2608490  13.1941970  46.0573780  46.2525160
  14.4172740  45.5855320  45.4953350  15.3302590  35.2154330  44.3890220
  14.3827500  35.2493310  44.5205650  15.6552580  36.0293280  44.7739580
   5.8622130  31.5151510  42.6846210   6.1697110  30.9598400  41.9681710
   4.9322830  31.6495970  42.5019200  11.4137190  47.2318800  44.9753670
  11.4264350  46.8281090  44.1075930  10.8612410  48.0066090  44.8715100
  12.7082610  43.9535020  40.0643840  12.5978940  43.0109350  40.1893260
  12.7050860  44.3150660  40.9506600  10.8122630  42.1348640  46.3036280
  11.2291420  41.9208750  45.4689740  11.5362450  42.3921430  46.8744900
   8.2502890  39.5800340  39.4206330   7.3232170  39.5137720  39.6494800
   8.4027710  40.5180470  39.3061570   8.2371970  35.8517340  36.4173490
   7.2975640  36.0131300  36.5025950   8.5555230  36.5703020  35.8709480
  14.7584730  40.5335860  46.3952520  13.9303360  40.6028950  45.9202650
  15.3535210  41.1190170  45.9268350  12.2800180  41.1420640  39.9241580
  11.6612600  40.8040190  39.2767880  12.2624630  40.4980400  40.6320770
  11.7226740  37.3205180  47.3407390  11.3097920  38.1458890  47.5947380
  10.9902690  36.7350220  47.1483750   3.8559530  40.1065080  42.2026060
   3.4516530  39.3942330  41.7071960   3.9422650  39.7618320  43.0914100
   4.3241230  43.7932640  44.3665270   4.0269520  43.1878110  43.6873050
   5.2741050  43.8309950  44.2554630   2.5688150  36.8808290  45.9825100
   3.1202740  36.9903630  45.2078350   3.0831660  37.2545890  46.6980330
  12.4126840  47.3664510  48.0288370  11.9357400  48.1736700  47.8360980
  11.7288630  46.7142840  48.1814580   3.4159660  43.5314330  51.0173070
   2.5188190  43.7554300  51.2646470   3.4412530  43.6549270  50.0684470
  10.4564880  40.3807450  36.9314330  10.8958160  39.5429880  36.7852150
  11.1693300  41.0136850  37.0178470   2.2430880  40.4027650  49.5930440
   2.1038650  41.2750450  49.9617840   1.3612240  40.0600460  49.4478380
   8.5660260  45.3203520  40.8995570   9.0056170  46.0627850  40.4850960
   8.5047150  45.5630090  41.8234530   4.0411230  46.3449350  51.8015590
   4.0126660  46.7492300  50.9344020   3.8776200  45.4159710  51.6387190
  14.0382020  31.6350260  35.2455370  13.7254680  31.7277090  36.1454440
  14.7994490  32.2131290  35.1952800  15.9926050  47.1276450  53.0979760
  16.4685770  47.6059340  53.7768840  16.6133210  47.0593940  52.3725260
  15.3959300  44.3189300  50.2579770  15.5222360  44.0801180  49.3396950
  15.4380680  43.4873840  50.7301850   9.2576040  48.0217300  48.8274580
   9.7720710  47.9325310  49.6297010   8.4145120  48.3677000  49.1202490
  11.2330440  48.3072640  38.2558580  11.0731580  48.0175580  39.1540410
  11.0677150  47.5312770  37.7203810   3.7118820  48.0871170  40.0330200
   3.5361300  47.1706710  39.8198000   2.8574560  48.4458460  40.2728000
  10.9356570  45.8160200  36.8156580  10.2421730  45.8137490  36.1558860
  11.6779430  45.3919520  36.3850750  10.5006500  47.4422910  40.8905070
  10.9563450  46.6612290  41.2043690  10.8399020  48.1529730  41.4346250
  15.2483310  36.3721760  51.2229510  14.6327580  36.8801430  50.6944970
  14.9279730  35.4720090  51.1655450   3.0227820  32.3445130  43.0856380
   2.5795970  33.1254670  42.7540900   3.5812810  32.6675020  43.7927320
   7.3097630  35.2113650  48.6891700   6.8477000  35.4196670  49.5011640
   6.9075740  34.3973000  48.3862370  12.3102140  36.4322600  49.8188360
  11.4595730  36.1328350  50.1397430  12.1503930  36.6764610  48.9072180
   9.4051850  37.9324350  51.9187150   9.7305260  37.0988100  51.5789380
  10.1932180  38.4552870  52.0665480   6.1386640  31.9655830  37.9662210
   5.5140820  31.9615700  38.6915520   6.0516760  31.0986790  37.5698180
   5.0603720  32.8892460  44.9445980   5.3576050  33.7955290  44.8638000
   5.6089280  32.4011240  44.3305550   2.8142040  37.4678700  40.8137630
   2.5882960  37.2515870  41.7184250   2.0334570  37.9007160  40.4683600
  10.0439800  37.4742070  39.4128280   9.4448690  38.1977870  39.2291900
  10.5919410  37.4118850  38.6304730   5.2541250  38.3664280  51.4797900
   5.1584850  37.4259010  51.3298300   6.0973230  38.5879350  51.0845970
   8.6504670  36.1105610  41.4431560   9.0434240  36.4277810  40.6300250
   9.0121520  35.2317490  41.5576080   6.9596840  34.8612920  52.7028420
   6.2695160  34.6685120  53.3374510   7.7029140  35.1447560  53.2352720
   9.2359810  38.7011360  45.5382340   8.5040930  39.2098170  45.8872440
   8.8384150  37.8841340  45.2371120   5.6737200  35.3765560  43.9434830
   5.6773260  34.9355510  43.0939370   6.5688320  35.6982890  44.0506650
   5.7357350  36.3777640  36.9341590   5.8570170  36.3364120  37.8827410
   5.3505860  37.2401790  36.7788320   9.6985720  34.1545040  44.9505280
   9.7158460  34.6053690  45.7947130   9.4501300  33.2550680  45.1638720
   4.7478850  38.6878780  36.3324890   4.1795750  38.2397030  35.7060800
   5.4567850  39.0471560  35.7990040  13.1256470  31.5677220  50.7891660
  13.4502240  30.8366880  51.3149640  13.1612980  31.2490860  49.8872650
   5.9745170  39.4367340  45.6900240   6.3415300  38.9625910  46.4361580
   5.7850230  40.3108910  46.0308580   3.7644540  38.4775980  48.0084450
   3.4601610  39.3567960  48.2334810   4.7191000  38.5375770  48.0441890
   2.2926330  42.6836970  38.6051300   1.5188590  42.1434590  38.4450020
   3.0220960  42.1643580  38.2669060  13.0514310  41.6802330  44.3977690
  13.7713430  42.1757620  44.0073800  12.8496130  41.0020220  43.7531560
   8.5124250  33.0740290  38.5407080   7.6988860  32.5753460  38.4652390
   8.3186200  33.9138540  38.1243430   8.4333110  41.7511390  50.2846690
   8.3670420  40.8307060  50.0304280   7.8038250  41.8486830  50.9991330
  11.2272640  37.4459940  36.8369240  12.1152260  37.7577170  36.6620580
  11.1977730  36.5732190  36.4449820   2.3363730  42.3517350  42.2430110
   2.8542400  41.5485610  42.1887000   1.8847750  42.2896490  43.0846940
   7.2233230  43.6183630  37.5157410   7.5648930  44.3625860  37.0200730
   6.3945940  43.9314750  37.8782240   3.0221390  39.7762960  52.0395360
   2.7221530  39.9220140  51.1423180   3.7932630  39.2168250  51.9468750
   8.3649840  44.5731960  50.0350490   8.3794380  43.6412920  49.8169400
   7.6574940  44.6591720  50.6740260  13.4986910  38.7571780  36.3049100
  13.4150630  39.1886000  35.4545540  14.2181100  39.2170130  36.7375920
  14.5761050  41.2139300  49.3819070  13.8509240  41.8068080  49.1848460
  15.1036510  41.2062840  48.5832440  14.5274160  45.6114040  39.0331230
  13.8850320  44.9569660  39.3074950  14.1404820  46.0169130  38.2571900
  10.1060640  42.9399470  42.8802920  10.4584460  42.3427600  42.2204290
   9.2222970  42.6143700  43.0511170   6.1923920  43.6997160  40.2873330
   6.8795050  44.2466370  40.6680920   5.4056340  44.2437890  40.3222940
   5.4951130  40.7043190  39.8998690   5.9513910  41.5148440  40.1258880
   5.1439340  40.3866330  40.7317180   7.7983740  46.2149530  47.1290990
   8.4425960  46.4208910  47.8064410   8.1613180  45.4537930  46.6761840
   9.0715820  44.2181880  45.8468440   9.7138050  43.5175040  45.9600610
   9.5965170  44.9980320  45.6665330  12.9171540  44.5030500  35.5707580
  12.6909120  43.7860940  36.1632220  12.5267740  44.2542940  34.7329330
  10.8453440  45.0176780  49.0504500  11.1809680  45.6043470  49.7282420
   9.9253780  44.8869490  49.2802290  12.4987790  42.4202440  37.2321740
  12.2109490  42.8815130  38.0199620  13.2939960  41.9600210  37.5005960
   6.6742020  45.0668110  52.2192560   6.3538890  44.3477350  52.7638250
   6.0000380  45.7423180  52.2928620   4.7156190  45.9128560  37.1625710
   4.7066290  46.6458250  36.5470220   3.7954550  45.6660140  37.2552670
   9.8895620  35.2994270  47.5829360  10.2576440  34.4789480  47.9108930
   9.0293820  35.3596160  47.9985010  13.2557650  34.2551210  38.3916920
  12.6270810  34.3596880  37.6775150  12.7609570  34.4747990  39.1810800
   7.7015790  45.9756800  35.8250900   7.8027770  45.7720790  34.8952880
   6.8017530  45.7215080  36.0298680   5.2241680  36.5337160  39.8074800
   4.5157830  37.0023500  40.2488410   5.5086160  35.8759170  40.4419990
   6.8497610  37.9533860  47.8067330   7.3482860  38.4279680  48.4719180
   6.9920560  37.0297380  48.0137360   9.2557110  33.2587820  41.2470590
   9.1324890  33.2773950  40.2980100  10.2041670  33.3066760  41.3668990
   6.3433900  48.4943120  40.5198570   6.5975400  48.4564510  39.5977940
   5.3946380  48.3676450  40.5126820   3.4276700  34.8422240  37.1825510
   4.2767230  35.2792390  37.1165700   3.0607970  35.1542500  38.0097570
  14.0564470  34.1701820  48.6495720  13.5538070  34.9107220  48.9889530
  14.8721130  34.5585820  48.3332510  12.3486480  39.4135000  42.0957080
  11.4076620  39.4285230  42.2704770  12.6630550  38.6270960  42.5417380
   2.3268120  41.0954600  35.6561040   3.0931390  40.9835960  36.2186470
   2.4042810  40.3992570  35.0037810  14.3512060  46.5843850  43.7711340
  14.4759480  47.4075020  44.2435150  15.2177620  46.3734580  43.4235490
   1.8229590  48.6775060  43.4428470   2.5592070  48.1290520  43.7137040
   2.2070510  49.5431070  43.3034460   4.9331900  47.8505370  35.2654040
   5.7260510  48.1394200  34.8135830   4.4136250  47.4197540  34.5866520
   9.6652500  43.9701000  52.5789460   9.0590660  43.9932600  51.8385210
   9.3606610  43.2384040  53.1156710  11.0952870  47.6981290  51.1898870
  12.0474620  47.6139310  51.1399110  10.9481090  48.3623000  51.8632660
  13.9862070  47.0775500  36.6890780  13.7003580  46.6640640  35.8744960
  13.7881620  48.0063210  36.5691300   5.4509300  43.0708780  35.1296390
   5.3459940  42.4561130  35.8557770   5.2833520  42.5474670  34.3459400
   5.6023620  41.7565580  51.1085620   4.8369290  42.3250580  51.0240290
   5.7839580  41.4641790  50.2153850   8.6912030  42.1328810  35.7338380
   8.1422130  42.5798110  36.3781120   9.3131290  41.6278060  36.2576050
  12.7446970  43.4870910  51.6660640  13.4856440  43.8246670  51.1628100
  11.9819650  43.6562970  51.1130410   4.3587150  41.0919730  37.6303680
   4.7803570  40.9259600  38.4735070   4.4837990  40.2819960  37.1358820
   2.5214570  37.0716280  50.4374660   1.9911030  36.5807230  49.8098000
   3.1902640  37.5000480  49.9032590   6.8714790  40.1157340  34.8780780
   7.3920450  39.4006360  34.5121930   7.5183190  40.7543210  35.1781290
  11.4192630  41.5385740  50.2015850  11.8333650  41.6930820  51.0506270
  10.4843630  41.6640960  50.3641630  11.8914800  38.8781900  52.2055000
  12.4735570  38.1234220  52.1175480  12.0676570  39.4089340  51.4286480
   3.0086870  34.0378650  50.5171950   2.9143740  33.4199400  49.7922820
   2.4284260  34.7644940  50.2901860   5.7748310  32.5951890  47.5499340
   5.3265610  32.6176150  46.7044890   5.1413510  32.1970910  48.1469640
   6.1807860  41.4906220  48.1711780   6.5995970  42.3338950  47.9988020
   5.2616490  41.6278260  47.9418560   8.5171760  39.2222400  49.5549620
   8.6367970  38.6263540  50.2944460   9.3765760  39.2592090  49.1350920
  10.8559660  39.7759590  48.1312130  10.3294880  40.3002210  47.5277270
  11.1991000  40.4086980  48.7621860   3.2546050  37.1652960  34.5761840
   3.0535110  36.3020320  34.9375180   3.0838100  37.0786320  33.6383440
   4.0315280  47.7959230  49.2869510   3.4936370  48.5205290  48.9678210
   4.2849240  47.3189570  48.4966850   5.2840530  35.7643750  50.8125440
   5.8740220  35.4559600  51.5003260   4.4660770  35.2923500  50.9685340
  10.1033960  35.3809560  51.0458460   9.4149480  34.7191100  50.9808450
  10.8239980  34.9347830  51.4906920  10.7334360  31.9761190  37.1048720
  11.0136650  31.1329090  37.4608140   9.9600090  32.2084300  37.6187470
   2.0528850  34.2653580  34.5639720   2.3554750  34.2721010  33.6558870
   2.7923440  33.9151440  35.0607380   6.8877490  49.0310440  49.5456160
   6.8136190  49.9345580  49.8528530   5.9856330  48.7122340  49.5178230
   5.2713780  33.2088200  35.5495920   4.9235780  32.5312190  34.9698370
   5.4726550  32.7477710  36.3639310   7.4362820  48.1968950  37.1682520
   8.3313610  48.5353920  37.1901280   7.4680450  47.4748360  36.5406800
   2.8866700  44.6894040  40.5091750   2.5862240  44.5659010  41.4095660
   2.7804190  43.8302630  40.1007480  14.4157170  46.7272620  49.8748720
  13.8159160  46.7865180  49.1312640  14.5451070  45.7877600  50.0045570
  16.1175050  42.0688020  42.5594560  16.4883880  41.2855340  42.1530530
  16.7576980  42.7577120  42.3811860  13.1008810  43.4524600  47.9724880
  12.2868650  43.8821760  48.2350670  13.5083010  44.0643010  47.3593930
  11.5609860  34.5317140  36.1678780  11.9794740  34.3448120  35.3275440
  11.2545920  33.6796190  36.4781710  15.0599590  39.4441280  39.8654580
  14.6843190  38.6769210  39.4335870  14.3302710  39.8263980  40.3529510
  14.4499210  38.5912800  49.4994100  14.2185300  38.3625550  48.5992050
  14.7103760  39.5112350  49.4538990  12.8887280  33.8169230  52.2773800
  13.7657460  33.8252630  52.6607800  12.9008120  33.0800070  51.6666150
  14.3350550  37.6698770  43.1661820  14.8588030  37.1761420  42.5351990
  14.9209970  37.8049130  43.9109390  14.5140270  37.7538640  46.6881370
  13.5642980  37.7202180  46.8026360  14.6953280  38.6638750  46.4531140
  13.8250520  36.9272120  39.1054230  14.3209640  36.6942990  39.8903110
  13.6266590  36.0883960  38.6891870  15.2537680  35.5633070  41.6391910
  15.1436960  35.4089110  42.5774180  16.0145270  35.0354010  41.3967320
  13.6003400  31.5027200  48.0974910  14.2375620  32.1161340  48.4634100
  13.7478290  31.5387860  47.1524140  13.1584860  48.2043200  41.4993150
  13.7543930  47.8827770  40.8227570  13.4163010  47.7315020  42.2906420
   4.7653460  46.1920700  47.2493500   4.5244820  46.4595260  46.3624020
   5.7056100  46.3626430  47.3044360   6.9707880  32.6553390  51.0050010
   6.9096770  33.2475220  51.7545420   7.9108260  32.5479350  50.8600270
   9.6082440  32.3123450  50.6442300  10.2222850  32.6302740  49.9823380
  10.1532000  31.8272040  51.2638160  16.0257620  48.2115080  48.0504140
  15.5315900  48.6083950  47.3331270  15.4170910  47.5864290  48.4441420
  10.3490480  30.8755590  46.9711590   9.4750320  31.2090700  46.7684520
  10.2401230  30.4028770  47.7963460  11.2562460  33.0826460  48.3553310
  10.9275820  32.2678220  47.9755040  12.2044760  33.0396270  48.2319000
  13.7097070  48.8538500  45.3290880  13.2500040  49.6054310  44.9548900
  13.0809530  48.1344970  45.2705680   4.1392790  47.1626740  44.5039010
   4.6557810  46.5514100  43.9787270   4.7890170  47.6655520  44.9950020
   6.8788290  48.0535230  45.3307990   7.1666100  47.7989530  44.4541000
   7.3911510  47.5012590  45.9213560   8.0965300  31.7925430  45.9104500
   7.3137090  32.2670930  46.1901260   7.8028230  30.8880260  45.8017680
  12.6486370  32.4948530  43.9553590  13.0894460  32.4393630  43.1075190
  12.3793960  33.4106540  44.0263770  14.5124940  32.1263770  41.9662410
  14.4513340  31.1824990  41.8193430  15.2916970  32.2343860  42.5115870
   5.9819520  34.2112180  41.4220530   5.1694030  33.8369070  41.0816410
   6.4861160  33.4557260  41.7241720  10.4844500  30.8754630  42.6603600
  11.0873870  31.4474840  43.1352120   9.7437490  31.4394070  42.4377500
  13.6279100  31.2776190  37.9343880  13.8229730  32.1759640  38.2011310
  12.8408970  31.0463270  38.4276830   1.8130860  32.6236960  36.9720190
   2.3423620  31.8366760  36.8428140   2.4459180  33.3028150  37.2055720
   4.0068700  32.3612100  40.0265580   3.3771440  31.6599410  40.1935710
   3.4673840  33.1216230  39.8098740   6.9460650  48.9751330  52.6976190
   7.8727960  48.7395600  52.7412150   6.9311080  49.8023330  52.2162220
  15.1805710  48.5176900  39.6950440  15.3557900  47.8314640  39.0511360
  14.4827280  49.0423950  39.3027110   4.1324260  31.6396080  52.4618070
   3.8508530  32.1429680  51.6978890   4.5143960  30.8417830  52.0960200
   3.0233360  48.9071740  37.2485750   3.7552180  48.6231020  36.7009640
   3.2827030  48.6685020  38.1385130   2.1848150  45.0236470  37.2532080
   1.5557030  45.4921570  37.8017910   2.2995980  44.1785690  37.6878270
  10.7339720  31.0549660  53.0398540  10.6205170  31.3744270  53.9350060
  11.5509460  31.4562170  52.7435820  13.5138210  48.2021190  52.5217230
  14.3063530  47.7070420  52.3143190  13.8071360  48.8811330  53.1292840
   9.6397870  39.0742130  23.4033280   9.5591920  38.1596740  23.1324990
   9.2262290  39.5709200  22.6972990   7.7715910  40.8521150  25.2842550
   6.9958010  40.3721590  25.5741120   8.4228840  40.1726800  25.1098710
  11.7923340  45.2581340  24.0641680  11.3304870  44.4868580  24.3928850
  12.6048890  45.2847410  24.5694130   1.7683000  45.1981050  26.3576330
   2.0711040  44.3078790  26.1786550   2.5126590  45.7551270  26.1298580
   8.0186650  47.5439350  23.6845670   7.3998090  47.9996850  23.1140110
   8.8738430  47.6990810  23.2835370   7.2124900  43.5278340  25.2912710
   7.1433180  42.5868280  25.1301840   7.9744760  43.6179750  25.8635280
   8.2430070  36.3348720  25.5181640   8.6194890  35.4620600  25.4055310
   8.1449580  36.6707420  24.6272080   2.3735080  34.7074350  20.9799080
   2.4801830  35.6078080  21.2867840   1.4627440  34.6592320  20.6893730
  12.0254190  33.8299160  22.4509980  12.8463810  33.3395730  22.4935460
  12.0588270  34.4196820  23.2041820   4.2142810  37.6760720  25.3124260
   4.7221030  38.1741690  25.9529280   4.7456050  36.8995920  25.1363620
   2.4978910  32.3159280  29.5787680   2.4997350  32.8331670  28.7733580
   1.6683220  31.8389460  29.5557610   8.8850000  42.4278590  21.0777580
   8.2667270  42.8928040  20.5140300   9.3973250  43.1206070  21.4947090
   3.7481760  41.9554460  27.7561180   3.4151140  42.5823380  28.3982250
   3.9248440  42.4816340  26.9762850  12.2615670  35.7699540  25.2237520
  11.5571240  36.0584430  25.8040630  12.6227830  36.5799650  24.8637080
   2.1794240  34.0269240  27.5858130   2.5211050  34.8711290  27.2912000
   1.2410050  34.1752980  27.7023470   2.9600860  43.9235260  29.5710360
   3.5774860  44.5986340  29.2894810   2.0993980  44.3323240  29.4797860
   5.8622130  31.5151510  23.9102720   6.1697110  30.9598400  23.1938220
   4.9322830  31.6495970  23.7275710  11.4137190  47.2318800  26.2010180
  11.4264350  46.8281090  25.3332440  10.8612410  48.0066090  26.0971610
  10.8122630  42.1348640  27.5292790  11.2291420  41.9208750  26.6946250
  11.5362450  42.3921430  28.1001410   8.2502890  39.5800340  20.6462840
   7.3232170  39.5137720  20.8751310   8.4027710  40.5180470  20.5318080
   8.2371970  35.8517340  17.6430000   7.2975640  36.0131300  17.7282460
   8.5555230  36.5703020  17.0965990  11.7226740  37.3205180  28.5663900
  11.3097920  38.1458890  28.8203890  10.9902690  36.7350220  28.3740260
   3.8559530  40.1065080  23.4282570   3.4516530  39.3942330  22.9328470
   3.9422650  39.7618320  24.3170610   4.3241230  43.7932640  25.5921780
   4.0269520  43.1878110  24.9129560   5.2741050  43.8309950  25.4811140
   2.5688150  36.8808290  27.2081610   3.1202740  36.9903630  26.4334860
   3.0831660  37.2545890  27.9236840  12.4126840  47.3664510  29.2544880
  11.9357400  48.1736700  29.0617490  11.7288630  46.7142840  29.4071090
   3.4159660  43.5314330  32.2429580   2.5188190  43.7554300  32.4902980
   3.4412530  43.6549270  31.2940980   2.2430880  40.4027650  30.8186950
   2.1038650  41.2750450  31.1874350   1.3612240  40.0600460  30.6734890
   8.5660260  45.3203520  22.1252080   9.0056170  46.0627850  21.7107470
   8.5047150  45.5630090  23.0491040   4.0411230  46.3449350  33.0272100
   4.0126660  46.7492300  32.1600530   3.8776200  45.4159710  32.8643700
  14.0382020  31.6350260  16.4711880  13.7254680  31.7277090  17.3710950
  14.7994490  32.2131290  16.4209310   9.2576040  48.0217300  30.0531090
   9.7720710  47.9325310  30.8553520   8.4145120  48.3677000  30.3459000
  11.2330440  48.3072640  19.4815090  11.0731580  48.0175580  20.3796920
  11.0677150  47.5312770  18.9460320   3.7118820  48.0871170  21.2586710
   3.5361300  47.1706710  21.0454510   2.8574560  48.4458460  21.4984510
  10.5006500  47.4422910  22.1161580  10.9563450  46.6612290  22.4300200
  10.8399020  48.1529730  22.6602760   3.0227820  32.3445130  24.3112890
   2.5795970  33.1254670  23.9797410   3.5812810  32.6675020  25.0183830
   7.3097630  35.2113650  29.9148210   6.8477000  35.4196670  30.7268150
   6.9075740  34.3973000  29.6118880  12.3102140  36.4322600  31.0444870
  11.4595730  36.1328350  31.3653940  12.1503930  36.6764610  30.1328690
   9.4051850  37.9324350  33.1443660   9.7305260  37.0988100  32.8045890
  10.1932180  38.4552870  33.2921990   6.1386640  31.9655830  19.1918720
   5.5140820  31.9615700  19.9172030   6.0516760  31.0986790  18.7954690
   5.0603720  32.8892460  26.1702490   5.3576050  33.7955290  26.0894510
   5.6089280  32.4011240  25.5562060   2.8142040  37.4678700  22.0394140
   2.5882960  37.2515870  22.9440760   2.0334570  37.9007160  21.6940110
  10.0439800  37.4742070  20.6384790   9.4448690  38.1977870  20.4548410
  10.5919410  37.4118850  19.8561240   5.2541250  38.3664280  32.7054410
   5.1584850  37.4259010  32.5554810   6.0973230  38.5879350  32.3102480
   8.6504670  36.1105610  22.6688070   9.0434240  36.4277810  21.8556760
   9.0121520  35.2317490  22.7832590   6.9596840  34.8612920  33.9284930
   6.2695160  34.6685120  34.5631020   7.7029140  35.1447560  34.4609230
   9.2359810  38.7011360  26.7638850   8.5040930  39.2098170  27.1128950
   8.8384150  37.8841340  26.4627630   5.6737200  35.3765560  25.1691340
   5.6773260  34.9355510  24.3195880   6.5688320  35.6982890  25.2763160
   5.7357350  36.3777640  18.1598100   5.8570170  36.3364120  19.1083920
   5.3505860  37.2401790  18.0044830   9.6985720  34.1545040  26.1761790
   9.7158460  34.6053690  27.0203640   9.4501300  33.2550680  26.3895230
   4.7478850  38.6878780  17.5581400   4.1795750  38.2397030  16.9317310
   5.4567850  39.0471560  17.0246550  13.1256470  31.5677220  32.0148170
  13.4502240  30.8366880  32.5406150  13.1612980  31.2490860  31.1129160
   5.9745170  39.4367340  26.9156750   6.3415300  38.9625910  27.6618090
   5.7850230  40.3108910  27.2565090   3.7644540  38.4775980  29.2340960
   3.4601610  39.3567960  29.4591320   4.7191000  38.5375770  29.2698400
   2.2926330  42.6836970  19.8307810   1.5188590  42.1434590  19.6706530
   3.0220960  42.1643580  19.4925570  13.0514310  41.6802330  25.6234200
  13.7713430  42.1757620  25.2330310  12.8496130  41.0020220  24.9788070
   8.5124250  33.0740290  19.7663590   7.6988860  32.5753460  19.6908900
   8.3186200  33.9138540  19.3499940   8.4333110  41.7511390  31.5103200
   8.3670420  40.8307060  31.2560790   7.8038250  41.8486830  32.2247840
  11.2272640  37.4459940  18.0625750  12.1152260  37.7577170  17.8877090
  11.1977730  36.5732190  17.6706330   2.3363730  42.3517350  23.4686620
   2.8542400  41.5485610  23.4143510   1.8847750  42.2896490  24.3103450
   7.2233230  43.6183630  18.7413920   7.5648930  44.3625860  18.2457240
   6.3945940  43.9314750  19.1038750   3.0221390  39.7762960  33.2651870
   2.7221530  39.9220140  32.3679690   3.7932630  39.2168250  33.1725260
   8.3649840  44.5731960  31.2607000   8.3794380  43.6412920  31.0425910
   7.6574940  44.6591720  31.8996770  10.1060640  42.9399470  24.1059430
  10.4584460  42.3427600  23.4460800   9.2222970  42.6143700  24.2767680
   6.1923920  43.6997160  21.5129840   6.8795050  44.2466370  21.8937430
   5.4056340  44.2437890  21.5479450   5.4951130  40.7043190  21.1255200
   5.9513910  41.5148440  21.3515390   5.1439340  40.3866330  21.9573690
   7.7983740  46.2149530  28.3547500   8.4425960  46.4208910  29.0320920
   8.1613180  45.4537930  27.9018350   9.0715820  44.2181880  27.0724950
   9.7138050  43.5175040  27.1857120   9.5965170  44.9980320  26.8921840
  10.8453440  45.0176780  30.2761010  11.1809680  45.6043470  30.9538930
   9.9253780  44.8869490  30.5058800   6.6742020  45.0668110  33.4449070
   6.3538890  44.3477350  33.9894760   6.0000380  45.7423180  33.5185130
   4.7156190  45.9128560  18.3882220   4.7066290  46.6458250  17.7726730
   3.7954550  45.6660140  18.4809180   9.8895620  35.2994270  28.8085870
  10.2576440  34.4789480  29.1365440   9.0293820  35.3596160  29.2241520
  13.2557650  34.2551210  19.6173430  12.6270810  34.3596880  18.9031660
  12.7609570  34.4747990  20.4067310   7.7015790  45.9756800  17.0507410
   7.8027770  45.7720790  16.1209390   6.8017530  45.7215080  17.2555190
   5.2241680  36.5337160  21.0331310   4.5157830  37.0023500  21.4744920
   5.5086160  35.8759170  21.6676500   6.8497610  37.9533860  29.0323840
   7.3482860  38.4279680  29.6975690   6.9920560  37.0297380  29.2393870
   9.2557110  33.2587820  22.4727100   9.1324890  33.2773950  21.5236610
  10.2041670  33.3066760  22.5925500   6.3433900  48.4943120  21.7455080
   6.5975400  48.4564510  20.8234450   5.3946380  48.3676450  21.7383330
   3.4276700  34.8422240  18.4082020   4.2767230  35.2792390  18.3422210
   3.0607970  35.1542500  19.2354080  14.0564470  34.1701820  29.8752230
  13.5538070  34.9107220  30.2146040  14.8721130  34.5585820  29.5589020
  12.3486480  39.4135000  23.3213590  11.4076620  39.4285230  23.4961280
  12.6630550  38.6270960  23.7673890   2.3268120  41.0954600  16.8817550
   3.0931390  40.9835960  17.4442980   2.4042810  40.3992570  16.2294320
   1.8229590  48.6775060  24.6684980   2.5592070  48.1290520  24.9393550
   2.2070510  49.5431070  24.5290970   4.9331900  47.8505370  16.4910550
   5.7260510  48.1394200  16.0392340   4.4136250  47.4197540  15.8123030
   9.6652500  43.9701000  33.8045970   9.0590660  43.9932600  33.0641720
   9.3606610  43.2384040  34.3413220  11.0952870  47.6981290  32.4155380
  12.0474620  47.6139310  32.3655620  10.9481090  48.3623000  33.0889170
   5.4509300  43.0708780  16.3552900   5.3459940  42.4561130  17.0814280
   5.2833520  42.5474670  15.5715910   5.6023620  41.7565580  32.3342130
   4.8369290  42.3250580  32.2496800   5.7839580  41.4641790  31.4410360
   8.6912030  42.1328810  16.9594890   8.1422130  42.5798110  17.6037630
   9.3131290  41.6278060  17.4832560   4.3587150  41.0919730  18.8560190
   4.7803570  40.9259600  19.6991580   4.4837990  40.2819960  18.3615330
   2.5214570  37.0716280  31.6631170   1.9911030  36.5807230  31.0354510
   3.1902640  37.5000480  31.1289100   6.8714790  40.1157340  16.1037290
   7.3920450  39.4006360  15.7378440   7.5183190  40.7543210  16.4037800
  11.4192630  41.5385740  31.4272360  11.8333650  41.6930820  32.2762780
  10.4843630  41.6640960  31.5898140  11.8914800  38.8781900  33.4311510
  12.4735570  38.1234220  33.3431990  12.0676570  39.4089340  32.6542990
   3.0086870  34.0378650  31.7428460   2.9143740  33.4199400  31.0179330
   2.4284260  34.7644940  31.5158370   5.7748310  32.5951890  28.7755850
   5.3265610  32.6176150  27.9301400   5.1413510  32.1970910  29.3726150
   6.1807860  41.4906220  29.3968290   6.5995970  42.3338950  29.2244530
   5.2616490  41.6278260  29.1675070   8.5171760  39.2222400  30.7806130
   8.6367970  38.6263540  31.5200970   9.3765760  39.2592090  30.3607430
  10.8559660  39.7759590  29.3568640  10.3294880  40.3002210  28.7533780
  11.1991000  40.4086980  29.9878370   3.2546050  37.1652960  15.8018350
   3.0535110  36.3020320  16.1631690   3.0838100  37.0786320  14.8639950
   4.0315280  47.7959230  30.5126020   3.4936370  48.5205290  30.1934720
   4.2849240  47.3189570  29.7223360   5.2840530  35.7643750  32.0381950
   5.8740220  35.4559600  32.7259770   4.4660770  35.2923500  32.1941850
  10.1033960  35.3809560  32.2714970   9.4149480  34.7191100  32.2064960
  10.8239980  34.9347830  32.7163430  10.7334360  31.9761190  18.3305230
  11.0136650  31.1329090  18.6864650   9.9600090  32.2084300  18.8443980
   2.0528850  34.2653580  15.7896230   2.3554750  34.2721010  14.8815380
   2.7923440  33.9151440  16.2863890   6.8877490  49.0310440  30.7712670
   6.8136190  49.9345580  31.0785040   5.9856330  48.7122340  30.7434740
   5.2713780  33.2088200  16.7752430   4.9235780  32.5312190  16.1954880
   5.4726550  32.7477710  17.5895820   7.4362820  48.1968950  18.3939030
   8.3313610  48.5353920  18.4157790   7.4680450  47.4748360  17.7663310
   2.8866700  44.6894040  21.7348260   2.5862240  44.5659010  22.6352170
   2.7804190  43.8302630  21.3263990  11.5609860  34.5317140  17.3935290
  11.9794740  34.3448120  16.5531950  11.2545920  33.6796190  17.7038220
  12.8887280  33.8169230  33.5030310  13.7657460  33.8252630  33.8864310
  12.9008120  33.0800070  32.8922660  13.6003400  31.5027200  29.3231420
  14.2375620  32.1161340  29.6890610  13.7478290  31.5387860  28.3780650
  16.1427950  33.3940990  16.1054560  17.0677260  33.2622170  15.8972850
  16.1203740  33.4733810  17.0591010  13.1584860  48.2043200  22.7249660
  13.7543930  47.8827770  22.0484080  13.4163010  47.7315020  23.5162930
   4.7653460  46.1920700  28.4750010   4.5244820  46.4595260  27.5880530
   5.7056100  46.3626430  28.5300870   6.9707880  32.6553390  32.2306520
   6.9096770  33.2475220  32.9801930   7.9108260  32.5479350  32.0856780
   9.6082440  32.3123450  31.8698810  10.2222850  32.6302740  31.2079890
  10.1532000  31.8272040  32.4894670  10.3490480  30.8755590  28.1968100
   9.4750320  31.2090700  27.9941030  10.2401230  30.4028770  29.0219970
  11.2562460  33.0826460  29.5809820  10.9275820  32.2678220  29.2011550
  12.2044760  33.0396270  29.4575510   4.1392790  47.1626740  25.7295520
   4.6557810  46.5514100  25.2043780   4.7890170  47.6655520  26.2206530
   6.8788290  48.0535230  26.5564500   7.1666100  47.7989530  25.6797510
   7.3911510  47.5012590  27.1470070   8.0965300  31.7925430  27.1361010
   7.3137090  32.2670930  27.4157770   7.8028230  30.8880260  27.0274190
  12.6486370  32.4948530  25.1810100  13.0894460  32.4393630  24.3331700
  12.3793960  33.4106540  25.2520280   5.9819520  34.2112180  22.6477040
   5.1694030  33.8369070  22.3072920   6.4861160  33.4557260  22.9498230
  10.4844500  30.8754630  23.8860110  11.0873870  31.4474840  24.3608630
   9.7437490  31.4394070  23.6634010  13.6279100  31.2776190  19.1600390
  13.8229730  32.1759640  19.4267820  12.8408970  31.0463270  19.6533340
   1.8130860  32.6236960  18.1976700   2.3423620  31.8366760  18.0684650
   2.4459180  33.3028150  18.4312230   4.0068700  32.3612100  21.2522090
   3.3771440  31.6599410  21.4192220   3.4673840  33.1216230  21.0355250
   6.9460650  48.9751330  33.9232700   7.8727960  48.7395600  33.9668660
   6.9311080  49.8023330  33.4418730  15.1805710  48.5176900  20.9206950
  15.3557900  47.8314640  20.2767870  14.4827280  49.0423950  20.5283620
   4.1324260  31.6396080  33.6874580   3.8508530  32.1429680  32.9235400
   4.5143960  30.8417830  33.3216710   3.0233360  48.9071740  18.4742260
   3.7552180  48.6231020  17.9266150   3.2827030  48.6685020  19.3641640
   2.1848150  45.0236470  18.4788590   1.5557030  45.4921570  19.0274420
   2.2995980  44.1785690  18.9134780  10.7339720  31.0549660  34.2655050
  10.6205170  31.3744270  35.1606570  11.5509460  31.4562170  33.9692330
  13.5138210  48.2021190  33.7473740  14.3063530  47.7070420  33.5399700
  13.8071360  48.8811330  34.3549350   9.6397870  39.0742130   4.6289790
   9.5591920  38.1596740   4.3581500   9.2262290  39.5709200   3.9229500
   7.7715910  40.8521150   6.5099060   6.9958010  40.3721590   6.7997630
   8.4228840  40.1726800   6.3355220  11.7923340  45.2581340   5.2898190
  11.3304870  44.4868580   5.6185360  12.6048890  45.2847410   5.7950640
   1.7683000  45.1981050   7.5832840   2.0711040  44.3078790   7.4043060
   2.5126590  45.7551270   7.3555090   8.0186650  47.5439350   4.9102180
   7.3998090  47.9996850   4.3396620   8.8738430  47.6990810   4.5091880
   7.2124900  43.5278340   6.5169220   7.1433180  42.5868280   6.3558350
   7.9744760  43.6179750   7.0891790   8.2430070  36.3348720   6.7438150
   8.6194890  35.4620600   6.6311820   8.1449580  36.6707420   5.8528590
   2.3735080  34.7074350   2.2055590   2.4801830  35.6078080   2.5124350
   1.4627440  34.6592320   1.9150240  12.0254190  33.8299160   3.6766490
  12.8463810  33.3395730   3.7191970  12.0588270  34.4196820   4.4298330
   4.2142810  37.6760720   6.5380770   4.7221030  38.1741690   7.1785790
   4.7456050  36.8995920   6.3620130  16.3153740  35.8465910  10.2410120
  15.6105910  36.2347620   9.7225230  16.5811660  36.5416200  10.8431050
   2.4978910  32.3159280  10.8044190   2.4997350  32.8331670   9.9990090
   1.6683220  31.8389460  10.7814120   8.8850000  42.4278590   2.3034090
   8.2667270  42.8928040   1.7396810   9.3973250  43.1206070   2.7203600
   3.7481760  41.9554460   8.9817690   3.4151140  42.5823380   9.6238760
   3.9248440  42.4816340   8.2019360  12.2615670  35.7699540   6.4494030
  11.5571240  36.0584430   7.0297140  12.6227830  36.5799650   6.0893590
   2.1794240  34.0269240   8.8114640   2.5211050  34.8711290   8.5168510
   1.2410050  34.1752980   8.9279980   2.9600860  43.9235260  10.7966870
   3.5774860  44.5986340  10.5151320   2.0993980  44.3323240  10.7054370
  13.8778450  45.3874670   8.7121510  13.1941970  46.0573780   8.7038180
  14.4172740  45.5855320   7.9466370  15.3302590  35.2154330   6.8403240
  14.3827500  35.2493310   6.9718670  15.6552580  36.0293280   7.2252600
   5.8622130  31.5151510   5.1359230   6.1697110  30.9598400   4.4194730
   4.9322830  31.6495970   4.9532220  11.4137190  47.2318800   7.4266690
  11.4264350  46.8281090   6.5588950  10.8612410  48.0066090   7.3228120
  12.7082610  43.9535020   2.5156860  12.5978940  43.0109350   2.6406280
  12.7050860  44.3150660   3.4019620  10.8122630  42.1348640   8.7549300
  11.2291420  41.9208750   7.9202760  11.5362450  42.3921430   9.3257920
   8.2502890  39.5800340   1.8719350   7.3232170  39.5137720   2.1007820
   8.4027710  40.5180470   1.7574590  14.7584730  40.5335860   8.8465540
  13.9303360  40.6028950   8.3715670  15.3535210  41.1190170   8.3781370
  12.2800180  41.1420640   2.3754600  11.6612600  40.8040190   1.7280900
  12.2624630  40.4980400   3.0833790  11.7226740  37.3205180   9.7920410
  11.3097920  38.1458890  10.0460400  10.9902690  36.7350220   9.5996770
   3.8559530  40.1065080   4.6539080   3.4516530  39.3942330   4.1584980
   3.9422650  39.7618320   5.5427120   4.3241230  43.7932640   6.8178290
   4.0269520  43.1878110   6.1386070   5.2741050  43.8309950   6.7067650
   2.5688150  36.8808290   8.4338120   3.1202740  36.9903630   7.6591370
   3.0831660  37.2545890   9.1493350  12.4126840  47.3664510  10.4801390
  11.9357400  48.1736700  10.2874000  11.7288630  46.7142840  10.6327600
   3.4159660  43.5314330  13.4686090   2.5188190  43.7554300  13.7159490
   3.4412530  43.6549270  12.5197490   2.2430880  40.4027650  12.0443460
   2.1038650  41.2750450  12.4130860   1.3612240  40.0600460  11.8991400
   8.5660260  45.3203520   3.3508590   9.0056170  46.0627850   2.9363980
   8.5047150  45.5630090   4.2747550   4.0411230  46.3449350  14.2528610
   4.0126660  46.7492300  13.3857040   3.8776200  45.4159710  14.0900210
  15.3959300  44.3189300  12.7092790  15.5222360  44.0801180  11.7909970
  15.4380680  43.4873840  13.1814870   9.2576040  48.0217300  11.2787600
   9.7720710  47.9325310  12.0810030   8.4145120  48.3677000  11.5715510
   3.7118820  48.0871170   2.4843220   3.5361300  47.1706710   2.2711020
   2.8574560  48.4458460   2.7241020  10.5006500  47.4422910   3.3418090
  10.9563450  46.6612290   3.6556710  10.8399020  48.1529730   3.8859270
   3.0227820  32.3445130   5.5369400   2.5795970  33.1254670   5.2053920
   3.5812810  32.6675020   6.2440340   7.3097630  35.2113650  11.1404720
   6.8477000  35.4196670  11.9524660   6.9075740  34.3973000  10.8375390
  12.3102140  36.4322600  12.2701380  11.4595730  36.1328350  12.5910450
  12.1503930  36.6764610  11.3585200   9.4051850  37.9324350  14.3700170
   9.7305260  37.0988100  14.0302400  10.1932180  38.4552870  14.5178500
   5.0603720  32.8892460   7.3959000   5.3576050  33.7955290   7.3151020
   5.6089280  32.4011240   6.7818570   2.8142040  37.4678700   3.2650650
   2.5882960  37.2515870   4.1697270   2.0334570  37.9007160   2.9196620
   5.2541250  38.3664280  13.9310920   5.1584850  37.4259010  13.7811320
   6.0973230  38.5879350  13.5358990   8.6504670  36.1105610   3.8944580
   9.0434240  36.4277810   3.0813270   9.0121520  35.2317490   4.0089100
   6.9596840  34.8612920  15.1541440   6.2695160  34.6685120  15.7887530
   7.7029140  35.1447560  15.6865740   9.2359810  38.7011360   7.9895360
   8.5040930  39.2098170   8.3385460   8.8384150  37.8841340   7.6884140
   5.6737200  35.3765560   6.3947850   5.6773260  34.9355510   5.5452390
   6.5688320  35.6982890   6.5019670   9.6985720  34.1545040   7.4018300
   9.7158460  34.6053690   8.2460150   9.4501300  33.2550680   7.6151740
  13.1256470  31.5677220  13.2404680  13.4502240  30.8366880  13.7662660
  13.1612980  31.2490860  12.3385670   5.9745170  39.4367340   8.1413260
   6.3415300  38.9625910   8.8874600   5.7850230  40.3108910   8.4821600
   3.7644540  38.4775980  10.4597470   3.4601610  39.3567960  10.6847830
   4.7191000  38.5375770  10.4954910  13.0514310  41.6802330   6.8490710
  13.7713430  42.1757620   6.4586820  12.8496130  41.0020220   6.2044580
   8.4333110  41.7511390  12.7359710   8.3670420  40.8307060  12.4817300
   7.8038250  41.8486830  13.4504350   2.3363730  42.3517350   4.6943130
   2.8542400  41.5485610   4.6400020   1.8847750  42.2896490   5.5359960
   3.0221390  39.7762960  14.4908380   2.7221530  39.9220140  13.5936200
   3.7932630  39.2168250  14.3981770   8.3649840  44.5731960  12.4863510
   8.3794380  43.6412920  12.2682420   7.6574940  44.6591720  13.1253280
  14.5761050  41.2139300  11.8332090  13.8509240  41.8068080  11.6361480
  15.1036510  41.2062840  11.0345460  10.1060640  42.9399470   5.3315940
  10.4584460  42.3427600   4.6717310   9.2222970  42.6143700   5.5024190
   6.1923920  43.6997160   2.7386350   6.8795050  44.2466370   3.1193940
   5.4056340  44.2437890   2.7735960   5.4951130  40.7043190   2.3511710
   5.9513910  41.5148440   2.5771900   5.1439340  40.3866330   3.1830200
   7.7983740  46.2149530   9.5804010   8.4425960  46.4208910  10.2577430
   8.1613180  45.4537930   9.1274860   9.0715820  44.2181880   8.2981460
   9.7138050  43.5175040   8.4113630   9.5965170  44.9980320   8.1178350
  10.8453440  45.0176780  11.5017520  11.1809680  45.6043470  12.1795440
   9.9253780  44.8869490  11.7315310   6.6742020  45.0668110  14.6705580
   6.3538890  44.3477350  15.2151270   6.0000380  45.7423180  14.7441640
   9.8895620  35.2994270  10.0342380  10.2576440  34.4789480  10.3621950
   9.0293820  35.3596160  10.4498030   5.2241680  36.5337160   2.2587820
   4.5157830  37.0023500   2.7001430   5.5086160  35.8759170   2.8933010
   6.8497610  37.9533860  10.2580350   7.3482860  38.4279680  10.9232200
   6.9920560  37.0297380  10.4650380   9.2557110  33.2587820   3.6983610
   9.1324890  33.2773950   2.7493120  10.2041670  33.3066760   3.8182010
   6.3433900  48.4943120   2.9711590   6.5975400  48.4564510   2.0490960
   5.3946380  48.3676450   2.9639840  14.0564470  34.1701820  11.1008740
  13.5538070  34.9107220  11.4402550  14.8721130  34.5585820  10.7845530
  12.3486480  39.4135000   4.5470100  11.4076620  39.4285230   4.7217790
  12.6630550  38.6270960   4.9930400  14.3512060  46.5843850   6.2224360
  14.4759480  47.4075020   6.6948170  15.2177620  46.3734580   5.8748510
   1.8229590  48.6775060   5.8941490   2.5592070  48.1290520   6.1650060
   2.2070510  49.5431070   5.7547480   9.6652500  43.9701000  15.0302480
   9.0590660  43.9932600  14.2898230   9.3606610  43.2384040  15.5669730
  11.0952870  47.6981290  13.6411890  12.0474620  47.6139310  13.5912130
  10.9481090  48.3623000  14.3145680   5.6023620  41.7565580  13.5598640
   4.8369290  42.3250580  13.4753310   5.7839580  41.4641790  12.6666870
   2.5214570  37.0716280  12.8887680   1.9911030  36.5807230  12.2611020
   3.1902640  37.5000480  12.3545610  11.4192630  41.5385740  12.6528870
  11.8333650  41.6930820  13.5019290  10.4843630  41.6640960  12.8154650
  11.8914800  38.8781900  14.6568020  12.4735570  38.1234220  14.5688500
  12.0676570  39.4089340  13.8799500   3.0086870  34.0378650  12.9684970
   2.9143740  33.4199400  12.2435840   2.4284260  34.7644940  12.7414880
   5.7748310  32.5951890  10.0012360   5.3265610  32.6176150   9.1557910
   5.1413510  32.1970910  10.5982660   6.1807860  41.4906220  10.6224800
   6.5995970  42.3338950  10.4501040   5.2616490  41.6278260  10.3931580
   8.5171760  39.2222400  12.0062640   8.6367970  38.6263540  12.7457480
   9.3765760  39.2592090  11.5863940  10.8559660  39.7759590  10.5825150
  10.3294880  40.3002210   9.9790290  11.1991000  40.4086980  11.2134880
   4.0315280  47.7959230  11.7382530   3.4936370  48.5205290  11.4191230
   4.2849240  47.3189570  10.9479870   5.2840530  35.7643750  13.2638460
   5.8740220  35.4559600  13.9516280   4.4660770  35.2923500  13.4198360
  10.1033960  35.3809560  13.4971480   9.4149480  34.7191100  13.4321470
  10.8239980  34.9347830  13.9419940   6.8877490  49.0310440  11.9969180
   6.8136190  49.9345580  12.3041550   5.9856330  48.7122340  11.9691250
   2.8866700  44.6894040   2.9604770   2.5862240  44.5659010   3.8608680
   2.7804190  43.8302630   2.5520500  14.4157170  46.7272620  12.3261740
  13.8159160  46.7865180  11.5825660  14.5451070  45.7877600  12.4558590
  16.1175050  42.0688020   5.0107580  16.4883880  41.2855340   4.6043550
  16.7576980  42.7577120   4.8324880  13.1008810  43.4524600  10.4237900
  12.2868650  43.8821760  10.6863690  13.5083010  44.0643010   9.8106950
  15.0599590  39.4441280   2.3167600  14.6843190  38.6769210   1.8848890
  14.3302710  39.8263980   2.8042530  14.4499210  38.5912800  11.9507120
  14.2185300  38.3625550  11.0505070  14.7103760  39.5112350  11.9052010
  12.8887280  33.8169230  14.7286820  13.7657460  33.8252630  15.1120820
  12.9008120  33.0800070  14.1179170  14.3350550  37.6698770   5.6174840
  14.8588030  37.1761420   4.9865010  14.9209970  37.8049130   6.3622410
  14.5140270  37.7538640   9.1394390  13.5642980  37.7202180   9.2539380
  14.6953280  38.6638750   8.9044160  15.2537680  35.5633070   4.0904930
  15.1436960  35.4089110   5.0287200  16.0145270  35.0354010   3.8480340
  13.6003400  31.5027200  10.5487930  14.2375620  32.1161340  10.9147120
  13.7478290  31.5387860   9.6037160  13.1584860  48.2043200   3.9506170
  13.7543930  47.8827770   3.2740590  13.4163010  47.7315020   4.7419440
   4.7653460  46.1920700   9.7006520   4.5244820  46.4595260   8.8137040
   5.7056100  46.3626430   9.7557380   6.9707880  32.6553390  13.4563030
   6.9096770  33.2475220  14.2058440   7.9108260  32.5479350  13.3113290
   9.6082440  32.3123450  13.0955320  10.2222850  32.6302740  12.4336400
  10.1532000  31.8272040  13.7151180  16.0257620  48.2115080  10.5017160
  15.5315900  48.6083950   9.7844290  15.4170910  47.5864290  10.8954440
  10.3490480  30.8755590   9.4224610   9.4750320  31.2090700   9.2197540
  10.2401230  30.4028770  10.2476480  11.2562460  33.0826460  10.8066330
  10.9275820  32.2678220  10.4268060  12.2044760  33.0396270  10.6832020
  13.7097070  48.8538500   7.7803900  13.2500040  49.6054310   7.4061920
  13.0809530  48.1344970   7.7218700   4.1392790  47.1626740   6.9552030
   4.6557810  46.5514100   6.4300290   4.7890170  47.6655520   7.4463040
   6.8788290  48.0535230   7.7821010   7.1666100  47.7989530   6.9054020
   7.3911510  47.5012590   8.3726580   8.0965300  31.7925430   8.3617520
   7.3137090  32.2670930   8.6414280   7.8028230  30.8880260   8.2530700
  12.6486370  32.4948530   6.4066610  13.0894460  32.4393630   5.5588210
  12.3793960  33.4106540   6.4776790  14.5124940  32.1263770   4.4175430
  14.4513340  31.1824990   4.2706450  15.2916970  32.2343860   4.9628890
   5.9819520  34.2112180   3.8733550   5.1694030  33.8369070   3.5329430
   6.4861160  33.4557260   4.1754740  10.4844500  30.8754630   5.1116620
  11.0873870  31.4474840   5.5865140   9.7437490  31.4394070   4.8890520
   4.0068700  32.3612100   2.4778600   3.3771440  31.6599410   2.6448730
   3.4673840  33.1216230   2.2611760   6.9460650  48.9751330  15.1489210
   7.8727960  48.7395600  15.1925170   6.9311080  49.8023330  14.6675240
  15.1805710  48.5176900   2.1463460  15.3557900  47.8314640   1.5024380
  14.4827280  49.0423950   1.7540130   4.1324260  31.6396080  14.9131090
   3.8508530  32.1429680  14.1491910   4.5143960  30.8417830  14.5473220
  10.7339720  31.0549660  15.4911560  10.6205170  31.3744270  16.3863080
  11.5509460  31.4562170  15.1948840  13.5138210  48.2021190  14.9730250
  14.3063530  47.7070420  14.7656210  13.8071360  48.8811330  15.5805860
   9.6397870  20.2998640  98.5007240   9.5591920  19.3853250  98.2298950
   9.2262290  20.7965710  97.7946950   7.7715910  22.0777660 100.3816510
   6.9958010  21.5978100 100.6715080   8.4228840  21.3983310 100.2072670
  11.7923340  26.4837850  99.1615640  11.3304870  25.7125090  99.4902810
  12.6048890  26.5103920  99.6668090   1.7683000  26.4237560 101.4550290
   2.0711040  25.5335300 101.2760510   2.5126590  26.9807780 101.2272540
   8.0186650  28.7695860  98.7819630   7.3998090  29.2253360  98.2114070
   8.8738430  28.9247320  98.3809330   7.2124900  24.7534850 100.3886670
   7.1433180  23.8124790 100.2275800   7.9744760  24.8436260 100.9609240
   8.2430070  17.5605230 100.6155600   8.6194890  16.6877110 100.5029270
   8.1449580  17.8963930  99.7246040   2.3735080  15.9330860  96.0773040
   2.4801830  16.8334590  96.3841800   1.4627440  15.8848830  95.7867690
  12.0254190  15.0555670  97.5483940  12.8463810  14.5652240  97.5909420
  12.0588270  15.6453330  98.3015780   4.2142810  18.9017230 100.4098220
   4.7221030  19.3998200 101.0503240   4.7456050  18.1252430 100.2337580
  16.3153740  17.0722420 104.1127570  15.6105910  17.4604130 103.5942680
  16.5811660  17.7672710 104.7148500   2.4978910  13.5415790 104.6761640
   2.4997350  14.0588180 103.8707540   1.6683220  13.0645970 104.6531570
   8.8850000  23.6535100  96.1751540   8.2667270  24.1184550  95.6114260
   9.3973250  24.3462580  96.5921050   3.7481760  23.1810970 102.8535140
   3.4151140  23.8079890 103.4956210   3.9248440  23.7072850 102.0736810
  12.2615670  16.9956050 100.3211480  11.5571240  17.2840940 100.9014590
  12.6227830  17.8056160  99.9611040   2.1794240  15.2525750 102.6832090
   2.5211050  16.0967800 102.3885960   1.2410050  15.4009490 102.7997430
   2.9600860  25.1491770 104.6684320   3.5774860  25.8242850 104.3868770
   2.0993980  25.5579750 104.5771820  13.8778450  26.6131180 102.5838960
  13.1941970  27.2830290 102.5755630  14.4172740  26.8111830 101.8183820
  15.3302590  16.4410840 100.7120690  14.3827500  16.4749820 100.8436120
  15.6552580  17.2549790 101.0970050   5.8622130  12.7408020  99.0076680
   6.1697110  12.1854910  98.2912180   4.9322830  12.8752480  98.8249670
  11.4137190  28.4575310 101.2984140  11.4264350  28.0537600 100.4306400
  10.8612410  29.2322600 101.1945570  12.7082610  25.1791530  96.3874310
  12.5978940  24.2365860  96.5123730  12.7050860  25.5407170  97.2737070
  10.8122630  23.3605150 102.6266750  11.2291420  23.1465260 101.7920210
  11.5362450  23.6177940 103.1975370   8.2502890  20.8056850  95.7436800
   7.3232170  20.7394230  95.9725270   8.4027710  21.7436980  95.6292040
   8.2371970  17.0773850  92.7403960   7.2975640  17.2387810  92.8256420
   8.5555230  17.7959530  92.1939950  14.7584730  21.7592370 102.7182990
  13.9303360  21.8285460 102.2433120  15.3535210  22.3446680 102.2498820
  12.2800180  22.3677150  96.2472050  11.6612600  22.0296700  95.5998350
  12.2624630  21.7236910  96.9551240  11.7226740  18.5461690 103.6637860
  11.3097920  19.3715400 103.9177850  10.9902690  17.9606730 103.4714220
   3.8559530  21.3321590  98.5256530   3.4516530  20.6198840  98.0302430
   3.9422650  20.9874830  99.4144570   4.3241230  25.0189150 100.6895740
   4.0269520  24.4134620 100.0103520   5.2741050  25.0566460 100.5785100
   2.5688150  18.1064800 102.3055570   3.1202740  18.2160140 101.5308820
   3.0831660  18.4802400 103.0210800  12.4126840  28.5921020 104.3518840
  11.9357400  29.3993210 104.1591450  11.7288630  27.9399350 104.5045050
  10.4564880  21.6063960  93.2544800  10.8958160  20.7686390  93.1082620
  11.1693300  22.2393360  93.3408940   8.5660260  26.5460030  97.2226040
   9.0056170  27.2884360  96.8081430   8.5047150  26.7886600  98.1465000
  14.0382020  12.8606770  91.5685840  13.7254680  12.9533600  92.4684910
  14.7994490  13.4387800  91.5183270  11.2330440  29.5329150  94.5789050
  11.0731580  29.2432090  95.4770880  11.0677150  28.7569280  94.0434280
   3.7118820  29.3127680  96.3560670   3.5361300  28.3963220  96.1428470
   2.8574560  29.6714970  96.5958470  10.9356570  27.0416710  93.1387050
  10.2421730  27.0394000  92.4789330  11.6779430  26.6176030  92.7081220
  10.5006500  28.6679420  97.2135540  10.9563450  27.8868800  97.5274160
  10.8399020  29.3786240  97.7576720   3.0227820  13.5701640  99.4086850
   2.5795970  14.3511180  99.0771370   3.5812810  13.8931530 100.1157790
   6.1386640  13.1912340  94.2892680   5.5140820  13.1872210  95.0145990
   6.0516760  12.3243300  93.8928650   5.0603720  14.1148970 101.2676450
   5.3576050  15.0211800 101.1868470   5.6089280  13.6267750 100.6536020
   2.8142040  18.6935210  97.1368100   2.5882960  18.4772380  98.0414720
   2.0334570  19.1263670  96.7914070  10.0439800  18.6998580  95.7358750
   9.4448690  19.4234380  95.5522370  10.5919410  18.6375360  94.9535200
   8.6504670  17.3362120  97.7662030   9.0434240  17.6534320  96.9530720
   9.0121520  16.4574000  97.8806550   9.2359810  19.9267870 101.8612810
   8.5040930  20.4354680 102.2102910   8.8384150  19.1097850 101.5601590
   5.6737200  16.6022070 100.2665300   5.6773260  16.1612020  99.4169840
   6.5688320  16.9239400 100.3737120   5.7357350  17.6034150  93.2572060
   5.8570170  17.5620630  94.2057880   5.3505860  18.4658300  93.1018790
   9.6985720  15.3801550 101.2735750   9.7158460  15.8310200 102.1177600
   9.4501300  14.4807190 101.4869190   4.7478850  19.9135290  92.6555360
   4.1795750  19.4653540  92.0291270   5.4567850  20.2728070  92.1220510
   5.9745170  20.6623850 102.0130710   6.3415300  20.1882420 102.7592050
   5.7850230  21.5365420 102.3539050   3.7644540  19.7032490 104.3314920
   3.4601610  20.5824470 104.5565280   4.7191000  19.7632280 104.3672360
   2.2926330  23.9093480  94.9281770   1.5188590  23.3691100  94.7680490
   3.0220960  23.3900090  94.5899530  13.0514310  22.9058840 100.7208160
  13.7713430  23.4014130 100.3304270  12.8496130  22.2276730 100.0762030
   8.5124250  14.2996800  94.8637550   7.6988860  13.8009970  94.7882860
   8.3186200  15.1395050  94.4473900  11.2272640  18.6716450  93.1599710
  12.1152260  18.9833680  92.9851050  11.1977730  17.7988700  92.7680290
   2.3363730  23.5773860  98.5660580   2.8542400  22.7742120  98.5117470
   1.8847750  23.5153000  99.4077410   7.2233230  24.8440140  93.8387880
   7.5648930  25.5882370  93.3431200   6.3945940  25.1571260  94.2012710
  13.4986910  19.9828290  92.6279570  13.4150630  20.4142510  91.7776010
  14.2181100  20.4426640  93.0606390  14.5274160  26.8370550  95.3561700
  13.8850320  26.1826170  95.6305420  14.1404820  27.2425640  94.5802370
  10.1060640  24.1655980  99.2033390  10.4584460  23.5684110  98.5434760
   9.2222970  23.8400210  99.3741640   6.1923920  24.9253670  96.6103800
   6.8795050  25.4722880  96.9911390   5.4056340  25.4694400  96.6453410
   5.4951130  21.9299700  96.2229160   5.9513910  22.7404950  96.4489350
   5.1439340  21.6122840  97.0547650   7.7983740  27.4406040 103.4521460
   8.4425960  27.6465420 104.1294880   8.1613180  26.6794440 102.9992310
   9.0715820  25.4438390 102.1698910   9.7138050  24.7431550 102.2831080
   9.5965170  26.2236830 101.9895800  12.9171540  25.7287010  91.8938050
  12.6909120  25.0117450  92.4862690  12.5267740  25.4799450  91.0559800
  12.4987790  23.6458950  93.5552210  12.2109490  24.1071640  94.3430090
  13.2939960  23.1856720  93.8236430   4.7156190  27.1385070  93.4856180
   4.7066290  27.8714760  92.8700690   3.7954550  26.8916650  93.5783140
   9.8895620  16.5250780 103.9059830  10.2576440  15.7045990 104.2339400
   9.0293820  16.5852670 104.3215480  13.2557650  15.4807720  94.7147390
  12.6270810  15.5853390  94.0005620  12.7609570  15.7004500  95.5041270
   7.7015790  27.2013310  92.1481370   7.8027770  26.9977300  91.2183350
   6.8017530  26.9471590  92.3529150   5.2241680  17.7593670  96.1305270
   4.5157830  18.2280010  96.5718880   5.5086160  17.1015680  96.7650460
   6.8497610  19.1790370 104.1297800   7.3482860  19.6536190 104.7949650
   6.9920560  18.2553890 104.3367830   9.2557110  14.4844330  97.5701060
   9.1324890  14.5030460  96.6210570  10.2041670  14.5323270  97.6899460
   6.3433900  29.7199630  96.8429040   6.5975400  29.6821020  95.9208410
   5.3946380  29.5932960  96.8357290   3.4276700  16.0678750  93.5055980
   4.2767230  16.5048900  93.4396170   3.0607970  16.3799010  94.3328040
  12.3486480  20.6391510  98.4187550  11.4076620  20.6541740  98.5935240
  12.6630550  19.8527470  98.8647850   2.3268120  22.3211110  91.9791510
   3.0931390  22.2092470  92.5416940   2.4042810  21.6249080  91.3268280
  14.3512060  27.8100360 100.0941810  14.4759480  28.6331530 100.5665620
  15.2177620  27.5991090  99.7465960   1.8229590  29.9031570  99.7658940
   2.5592070  29.3547030 100.0367510   2.2070510  30.7687580  99.6264930
   4.9331900  29.0761880  91.5884510   5.7260510  29.3650710  91.1366300
   4.4136250  28.6454050  90.9096990  13.9862070  28.3032010  93.0121250
  13.7003580  27.8897150  92.1975430  13.7881620  29.2319720  92.8921770
   5.4509300  24.2965290  91.4526860   5.3459940  23.6817640  92.1788240
   5.2833520  23.7731180  90.6689870   8.6912030  23.3585320  92.0568850
   8.1422130  23.8054620  92.7011590   9.3131290  22.8534570  92.5806520
   4.3587150  22.3176240  93.9534150   4.7803570  22.1516110  94.7965540
   4.4837990  21.5076470  93.4589290   6.8714790  21.3413850  91.2011250
   7.3920450  20.6262870  90.8352400   7.5183190  21.9799720  91.5011760
   5.7748310  13.8208400 103.8729810   5.3265610  13.8432660 103.0275360
   5.1413510  13.4227420 104.4700110   6.1807860  22.7162730 104.4942250
   6.5995970  23.5595460 104.3218490   5.2616490  22.8534770 104.2649030
   3.2546050  18.3909470  90.8992310   3.0535110  17.5276830  91.2605650
   3.0838100  18.3042830  89.9613910  10.7334360  13.2017700  93.4279190
  11.0136650  12.3585600  93.7838610   9.9600090  13.4340810  93.9417940
   2.0528850  15.4910090  90.8870190   2.3554750  15.4977520  89.9789340
   2.7923440  15.1407950  91.3837850   5.2713780  14.4344710  91.8726390
   4.9235780  13.7568700  91.2928840   5.4726550  13.9734220  92.6869780
   7.4362820  29.4225460  93.4912990   8.3313610  29.7610430  93.5131750
   7.4680450  28.7004870  92.8637270   2.8866700  25.9150550  96.8322220
   2.5862240  25.7915520  97.7326130   2.7804190  25.0559140  96.4237950
  15.6558620  25.6946950  91.5348900  14.8251580  25.7623600  92.0056130
  15.8330450  26.5851070  91.2315760  15.1115080  22.4394430  94.0383100
  15.8733990  23.0091080  94.1442790  15.1269450  21.8721630  94.8091410
  16.1175050  23.2944530  98.8825030  16.4883880  22.5111850  98.4761000
  16.7576980  23.9833630  98.7042330  13.1008810  24.6781110 104.2955350
  12.2868650  25.1078270 104.5581140  13.5083010  25.2899520 103.6824400
  15.1634250  22.7328800  91.1955620  15.4383090  23.6407680  91.0674840
  14.9744990  22.6691330  92.1317610  11.5609860  15.7573650  92.4909250
  11.9794740  15.5704630  91.6505910  11.2545920  14.9052700  92.8012180
  15.0599590  20.6697790  96.1885050  14.6843190  19.9025720  95.7566340
  14.3302710  21.0520490  96.6759980  14.3350550  18.8955280  99.4892290
  14.8588030  18.4017930  98.8582460  14.9209970  19.0305640 100.2339860
  14.5140270  18.9795150 103.0111840  13.5642980  18.9458690 103.1256830
  14.6953280  19.8895260 102.7761610  13.8250520  18.1528630  95.4284700
  14.3209640  17.9199500  96.2133580  13.6266590  17.3140470  95.0122340
  15.2537680  16.7889580  97.9622380  15.1436960  16.6345620  98.9004650
  16.0145270  16.2610520  97.7197790  13.6003400  12.7283710 104.4205380
  14.2375620  13.3417850 104.7864570  13.7478290  12.7644370 103.4754610
  16.1427950  14.6197500  91.2028520  17.0677260  14.4878680  90.9946810
  16.1203740  14.6990320  92.1564970  16.2166440  15.3908160  93.8285230
  15.4217940  15.3253280  94.3578140  16.4209720  16.3258800  93.8170580
  13.1584860  29.4299710  97.8223620  13.7543930  29.1084280  97.1458040
  13.4163010  28.9571530  98.6136890   4.7653460  27.4177210 103.5723970
   4.5244820  27.6851770 102.6854490   5.7056100  27.5882940 103.6274830
  16.0257620  29.4371590 104.3734610  15.5315900  29.8340460 103.6561740
  15.4170910  28.8120800 104.7671890  10.3490480  12.1012100 103.2942060
   9.4750320  12.4347210 103.0914990  10.2401230  11.6285280 104.1193930
  11.2562460  14.3082970 104.6783780  10.9275820  13.4934730 104.2985510
  12.2044760  14.2652780 104.5549470  13.7097070  30.0795010 101.6521350
  13.2500040  30.8310820 101.2779370  13.0809530  29.3601480 101.5936150
   4.1392790  28.3883250 100.8269480   4.6557810  27.7770610 100.3017740
   4.7890170  28.8912030 101.3180490   6.8788290  29.2791740 101.6538460
   7.1666100  29.0246040 100.7771470   7.3911510  28.7269100 102.2444030
   8.0965300  13.0181940 102.2334970   7.3137090  13.4927440 102.5131730
   7.8028230  12.1136770 102.1248150  12.6486370  13.7205040 100.2784060
  13.0894460  13.6650140  99.4305660  12.3793960  14.6363050 100.3494240
  14.5124940  13.3520280  98.2892880  14.4513340  12.4081500  98.1423900
  15.2916970  13.4600370  98.8346340   5.9819520  15.4368690  97.7451000
   5.1694030  15.0625580  97.4046880   6.4861160  14.6813770  98.0472190
  10.4844500  12.1011140  98.9834070  11.0873870  12.6731350  99.4582590
   9.7437490  12.6650580  98.7607970  13.6279100  12.5032700  94.2574350
  13.8229730  13.4016150  94.5241780  12.8408970  12.2719780  94.7507300
   1.8130860  13.8493470  93.2950660   2.3423620  13.0623270  93.1658610
   2.4459180  14.5284660  93.5286190   4.0068700  13.5868610  96.3496050
   3.3771440  12.8855920  96.5166180   3.4673840  14.3472740  96.1329210
  15.1805710  29.7433410  96.0180910  15.3557900  29.0571150  95.3741830
  14.4827280  30.2680460  95.6257580   3.0233360  30.1328250  93.5716220
   3.7552180  29.8487530  93.0240110   3.2827030  29.8941530  94.4615600
   2.1848150  26.2492980  93.5762550   1.5557030  26.7178080  94.1248380
   2.2995980  25.4042200  94.0108740   9.6397870  20.2998640  79.7263750
   9.5591920  19.3853250  79.4555460   9.2262290  20.7965710  79.0203460
   7.7715910  22.0777660  81.6073020   6.9958010  21.5978100  81.8971590
   8.4228840  21.3983310  81.4329180  11.7923340  26.4837850  80.3872150
  11.3304870  25.7125090  80.7159320  12.6048890  26.5103920  80.8924600
   1.7683000  26.4237560  82.6806800   2.0711040  25.5335300  82.5017020
   2.5126590  26.9807780  82.4529050   8.0186650  28.7695860  80.0076140
   7.3998090  29.2253360  79.4370580   8.8738430  28.9247320  79.6065840
   7.2124900  24.7534850  81.6143180   7.1433180  23.8124790  81.4532310
   7.9744760  24.8436260  82.1865750   8.2430070  17.5605230  81.8412110
   8.6194890  16.6877110  81.7285780   8.1449580  17.8963930  80.9502550
   2.3735080  15.9330860  77.3029550   2.4801830  16.8334590  77.6098310
   1.4627440  15.8848830  77.0124200  12.0254190  15.0555670  78.7740450
  12.8463810  14.5652240  78.8165930  12.0588270  15.6453330  79.5272290
   4.2142810  18.9017230  81.6354730   4.7221030  19.3998200  82.2759750
   4.7456050  18.1252430  81.4594090  16.3153740  17.0722420  85.3384080
  15.6105910  17.4604130  84.8199190  16.5811660  17.7672710  85.9405010
   2.4978910  13.5415790  85.9018150   2.4997350  14.0588180  85.0964050
   1.6683220  13.0645970  85.8788080   8.8850000  23.6535100  77.4008050
   8.2667270  24.1184550  76.8370770   9.3973250  24.3462580  77.8177560
   3.7481760  23.1810970  84.0791650   3.4151140  23.8079890  84.7212720
   3.9248440  23.7072850  83.2993320  12.2615670  16.9956050  81.5467990
  11.5571240  17.2840940  82.1271100  12.6227830  17.8056160  81.1867550
   2.1794240  15.2525750  83.9088600   2.5211050  16.0967800  83.6142470
   1.2410050  15.4009490  84.0253940   2.9600860  25.1491770  85.8940830
   3.5774860  25.8242850  85.6125280   2.0993980  25.5579750  85.8028330
  13.8778450  26.6131180  83.8095470  13.1941970  27.2830290  83.8012140
  14.4172740  26.8111830  83.0440330  15.3302590  16.4410840  81.9377200
  14.3827500  16.4749820  82.0692630  15.6552580  17.2549790  82.3226560
   5.8622130  12.7408020  80.2333190   6.1697110  12.1854910  79.5168690
   4.9322830  12.8752480  80.0506180  11.4137190  28.4575310  82.5240650
  11.4264350  28.0537600  81.6562910  10.8612410  29.2322600  82.4202080
  12.7082610  25.1791530  77.6130820  12.5978940  24.2365860  77.7380240
  12.7050860  25.5407170  78.4993580  10.8122630  23.3605150  83.8523260
  11.2291420  23.1465260  83.0176720  11.5362450  23.6177940  84.4231880
   8.2502890  20.8056850  76.9693310   7.3232170  20.7394230  77.1981780
   8.4027710  21.7436980  76.8548550   8.2371970  17.0773850  73.9660470
   7.2975640  17.2387810  74.0512930   8.5555230  17.7959530  73.4196460
  14.7584730  21.7592370  83.9439500  13.9303360  21.8285460  83.4689630
  15.3535210  22.3446680  83.4755330  12.2800180  22.3677150  77.4728560
  11.6612600  22.0296700  76.8254860  12.2624630  21.7236910  78.1807750
  11.7226740  18.5461690  84.8894370  11.3097920  19.3715400  85.1434360
  10.9902690  17.9606730  84.6970730   3.8559530  21.3321590  79.7513040
   3.4516530  20.6198840  79.2558940   3.9422650  20.9874830  80.6401080
   4.3241230  25.0189150  81.9152250   4.0269520  24.4134620  81.2360030
   5.2741050  25.0566460  81.8041610   2.5688150  18.1064800  83.5312080
   3.1202740  18.2160140  82.7565330   3.0831660  18.4802400  84.2467310
  12.4126840  28.5921020  85.5775350  11.9357400  29.3993210  85.3847960
  11.7288630  27.9399350  85.7301560   3.4159660  24.7570840  88.5660050
   2.5188190  24.9810810  88.8133450   3.4412530  24.8805780  87.6171450
  10.4564880  21.6063960  74.4801310  10.8958160  20.7686390  74.3339130
  11.1693300  22.2393360  74.5665450   2.2430880  21.6284160  87.1417420
   2.1038650  22.5006960  87.5104820   1.3612240  21.2856970  86.9965360
   8.5660260  26.5460030  78.4482550   9.0056170  27.2884360  78.0337940
   8.5047150  26.7886600  79.3721510   4.0411230  27.5705860  89.3502570
   4.0126660  27.9748810  88.4831000   3.8776200  26.6416220  89.1874170
  14.0382020  12.8606770  72.7942350  13.7254680  12.9533600  73.6941420
  14.7994490  13.4387800  72.7439780  15.9926050  28.3532960  90.6466740
  16.4685770  28.8315850  91.3255820  16.6133210  28.2850450  89.9212240
  15.3959300  25.5445810  87.8066750  15.5222360  25.3057690  86.8883930
  15.4380680  24.7130350  88.2788830   9.2576040  29.2473810  86.3761560
   9.7720710  29.1581820  87.1783990   8.4145120  29.5933510  86.6689470
  11.2330440  29.5329150  75.8045560  11.0731580  29.2432090  76.7027390
  11.0677150  28.7569280  75.2690790   3.7118820  29.3127680  77.5817180
   3.5361300  28.3963220  77.3684980   2.8574560  29.6714970  77.8214980
  10.9356570  27.0416710  74.3643560  10.2421730  27.0394000  73.7045840
  11.6779430  26.6176030  73.9337730  10.5006500  28.6679420  78.4392050
  10.9563450  27.8868800  78.7530670  10.8399020  29.3786240  78.9833230
  15.2483310  17.5978270  88.7716490  14.6327580  18.1057940  88.2431950
  14.9279730  16.6976600  88.7142430   3.0227820  13.5701640  80.6343360
   2.5795970  14.3511180  80.3027880   3.5812810  13.8931530  81.3414300
   7.3097630  16.4370160  86.2378680   6.8477000  16.6453180  87.0498620
   6.9075740  15.6229510  85.9349350  12.3102140  17.6579110  87.3675340
  11.4595730  17.3584860  87.6884410  12.1503930  17.9021120  86.4559160
   9.4051850  19.1580860  89.4674130   9.7305260  18.3244610  89.1276360
  10.1932180  19.6809380  89.6152460   6.1386640  13.1912340  75.5149190
   5.5140820  13.1872210  76.2402500   6.0516760  12.3243300  75.1185160
   5.0603720  14.1148970  82.4932960   5.3576050  15.0211800  82.4124980
   5.6089280  13.6267750  81.8792530   2.8142040  18.6935210  78.3624610
   2.5882960  18.4772380  79.2671230   2.0334570  19.1263670  78.0170580
  10.0439800  18.6998580  76.9615260   9.4448690  19.4234380  76.7778880
  10.5919410  18.6375360  76.1791710   5.2541250  19.5920790  89.0284880
   5.1584850  18.6515520  88.8785280   6.0973230  19.8135860  88.6332950
   8.6504670  17.3362120  78.9918540   9.0434240  17.6534320  78.1787230
   9.0121520  16.4574000  79.1063060   6.9596840  16.0869430  90.2515400
   6.2695160  15.8941630  90.8861490   7.7029140  16.3704070  90.7839700
   9.2359810  19.9267870  83.0869320   8.5040930  20.4354680  83.4359420
   8.8384150  19.1097850  82.7858100   5.6737200  16.6022070  81.4921810
   5.6773260  16.1612020  80.6426350   6.5688320  16.9239400  81.5993630
   5.7357350  17.6034150  74.4828570   5.8570170  17.5620630  75.4314390
   5.3505860  18.4658300  74.3275300   9.6985720  15.3801550  82.4992260
   9.7158460  15.8310200  83.3434110   9.4501300  14.4807190  82.7125700
   4.7478850  19.9135290  73.8811870   4.1795750  19.4653540  73.2547780
   5.4567850  20.2728070  73.3477020  13.1256470  12.7933730  88.3378640
  13.4502240  12.0623390  88.8636620  13.1612980  12.4747370  87.4359630
   5.9745170  20.6623850  83.2387220   6.3415300  20.1882420  83.9848560
   5.7850230  21.5365420  83.5795560   3.7644540  19.7032490  85.5571430
   3.4601610  20.5824470  85.7821790   4.7191000  19.7632280  85.5928870
   2.2926330  23.9093480  76.1538280   1.5188590  23.3691100  75.9937000
   3.0220960  23.3900090  75.8156040  13.0514310  22.9058840  81.9464670
  13.7713430  23.4014130  81.5560780  12.8496130  22.2276730  81.3018540
   8.5124250  14.2996800  76.0894060   7.6988860  13.8009970  76.0139370
   8.3186200  15.1395050  75.6730410   8.4333110  22.9767900  87.8333670
   8.3670420  22.0563570  87.5791260   7.8038250  23.0743340  88.5478310
  11.2272640  18.6716450  74.3856220  12.1152260  18.9833680  74.2107560
  11.1977730  17.7988700  73.9936800   2.3363730  23.5773860  79.7917090
   2.8542400  22.7742120  79.7373980   1.8847750  23.5153000  80.6333920
   7.2233230  24.8440140  75.0644390   7.5648930  25.5882370  74.5687710
   6.3945940  25.1571260  75.4269220   3.0221390  21.0019470  89.5882340
   2.7221530  21.1476650  88.6910160   3.7932630  20.4424760  89.4955730
   8.3649840  25.7988470  87.5837470   8.3794380  24.8669430  87.3656380
   7.6574940  25.8848230  88.2227240  13.4986910  19.9828290  73.8536080
  13.4150630  20.4142510  73.0032520  14.2181100  20.4426640  74.2862900
  14.5761050  22.4395810  86.9306050  13.8509240  23.0324590  86.7335440
  15.1036510  22.4319350  86.1319420  14.5274160  26.8370550  76.5818210
  13.8850320  26.1826170  76.8561930  14.1404820  27.2425640  75.8058880
  10.1060640  24.1655980  80.4289900  10.4584460  23.5684110  79.7691270
   9.2222970  23.8400210  80.5998150   6.1923920  24.9253670  77.8360310
   6.8795050  25.4722880  78.2167900   5.4056340  25.4694400  77.8709920
   5.4951130  21.9299700  77.4485670   5.9513910  22.7404950  77.6745860
   5.1439340  21.6122840  78.2804160   7.7983740  27.4406040  84.6777970
   8.4425960  27.6465420  85.3551390   8.1613180  26.6794440  84.2248820
   9.0715820  25.4438390  83.3955420   9.7138050  24.7431550  83.5087590
   9.5965170  26.2236830  83.2152310  12.9171540  25.7287010  73.1194560
  12.6909120  25.0117450  73.7119200  12.5267740  25.4799450  72.2816310
  10.8453440  26.2433290  86.5991480  11.1809680  26.8299980  87.2769400
   9.9253780  26.1126000  86.8289270  12.4987790  23.6458950  74.7808720
  12.2109490  24.1071640  75.5686600  13.2939960  23.1856720  75.0492940
   6.6742020  26.2924620  89.7679540   6.3538890  25.5733860  90.3125230
   6.0000380  26.9679690  89.8415600   4.7156190  27.1385070  74.7112690
   4.7066290  27.8714760  74.0957200   3.7954550  26.8916650  74.8039650
   9.8895620  16.5250780  85.1316340  10.2576440  15.7045990  85.4595910
   9.0293820  16.5852670  85.5471990  13.2557650  15.4807720  75.9403900
  12.6270810  15.5853390  75.2262130  12.7609570  15.7004500  76.7297780
   7.7015790  27.2013310  73.3737880   7.8027770  26.9977300  72.4439860
   6.8017530  26.9471590  73.5785660   5.2241680  17.7593670  77.3561780
   4.5157830  18.2280010  77.7975390   5.5086160  17.1015680  77.9906970
   6.8497610  19.1790370  85.3554310   7.3482860  19.6536190  86.0206160
   6.9920560  18.2553890  85.5624340   9.2557110  14.4844330  78.7957570
   9.1324890  14.5030460  77.8467080  10.2041670  14.5323270  78.9155970
   6.3433900  29.7199630  78.0685550   6.5975400  29.6821020  77.1464920
   5.3946380  29.5932960  78.0613800   3.4276700  16.0678750  74.7312490
   4.2767230  16.5048900  74.6652680   3.0607970  16.3799010  75.5584550
  14.0564470  15.3958330  86.1982700  13.5538070  16.1363730  86.5376510
  14.8721130  15.7842330  85.8819490  12.3486480  20.6391510  79.6444060
  11.4076620  20.6541740  79.8191750  12.6630550  19.8527470  80.0904360
   2.3268120  22.3211110  73.2048020   3.0931390  22.2092470  73.7673450
   2.4042810  21.6249080  72.5524790  14.3512060  27.8100360  81.3198320
  14.4759480  28.6331530  81.7922130  15.2177620  27.5991090  80.9722470
   1.8229590  29.9031570  80.9915450   2.5592070  29.3547030  81.2624020
   2.2070510  30.7687580  80.8521440   4.9331900  29.0761880  72.8141020
   5.7260510  29.3650710  72.3622810   4.4136250  28.6454050  72.1353500
   9.6652500  25.1957510  90.1276440   9.0590660  25.2189110  89.3872190
   9.3606610  24.4640550  90.6643690  11.0952870  28.9237800  88.7385850
  12.0474620  28.8395820  88.6886090  10.9481090  29.5879510  89.4119640
  13.9862070  28.3032010  74.2377760  13.7003580  27.8897150  73.4231940
  13.7881620  29.2319720  74.1178280   5.4509300  24.2965290  72.6783370
   5.3459940  23.6817640  73.4044750   5.2833520  23.7731180  71.8946380
   5.6023620  22.9822090  88.6572600   4.8369290  23.5507090  88.5727270
   5.7839580  22.6898300  87.7640830   8.6912030  23.3585320  73.2825360
   8.1422130  23.8054620  73.9268100   9.3131290  22.8534570  73.8063030
  12.7446970  24.7127420  89.2147620  13.4856440  25.0503180  88.7115080
  11.9819650  24.8819480  88.6617390   4.3587150  22.3176240  75.1790660
   4.7803570  22.1516110  76.0222050   4.4837990  21.5076470  74.6845800
   2.5214570  18.2972790  87.9861640   1.9911030  17.8063740  87.3584980
   3.1902640  18.7256990  87.4519570   6.8714790  21.3413850  72.4267760
   7.3920450  20.6262870  72.0608910   7.5183190  21.9799720  72.7268270
  11.4192630  22.7642250  87.7502830  11.8333650  22.9187330  88.5993250
  10.4843630  22.8897470  87.9128610  11.8914800  20.1038410  89.7541980
  12.4735570  19.3490730  89.6662460  12.0676570  20.6345850  88.9773460
   3.0086870  15.2635160  88.0658930   2.9143740  14.6455910  87.3409800
   2.4284260  15.9901450  87.8388840   5.7748310  13.8208400  85.0986320
   5.3265610  13.8432660  84.2531870   5.1413510  13.4227420  85.6956620
   6.1807860  22.7162730  85.7198760   6.5995970  23.5595460  85.5475000
   5.2616490  22.8534770  85.4905540   8.5171760  20.4478910  87.1036600
   8.6367970  19.8520050  87.8431440   9.3765760  20.4848600  86.6837900
  10.8559660  21.0016100  85.6799110  10.3294880  21.5258720  85.0764250
  11.1991000  21.6343490  86.3108840   3.2546050  18.3909470  72.1248820
   3.0535110  17.5276830  72.4862160   3.0838100  18.3042830  71.1870420
   4.0315280  29.0215740  86.8356490   3.4936370  29.7461800  86.5165190
   4.2849240  28.5446080  86.0453830   5.2840530  16.9900260  88.3612420
   5.8740220  16.6816110  89.0490240   4.4660770  16.5180010  88.5172320
  10.1033960  16.6066070  88.5945440   9.4149480  15.9447610  88.5295430
  10.8239980  16.1604340  89.0393900  10.7334360  13.2017700  74.6535700
  11.0136650  12.3585600  75.0095120   9.9600090  13.4340810  75.1674450
   2.0528850  15.4910090  72.1126700   2.3554750  15.4977520  71.2045850
   2.7923440  15.1407950  72.6094360   6.8877490  30.2566950  87.0943140
   6.8136190  31.1602090  87.4015510   5.9856330  29.9378850  87.0665210
   5.2713780  14.4344710  73.0982900   4.9235780  13.7568700  72.5185350
   5.4726550  13.9734220  73.9126290   7.4362820  29.4225460  74.7169500
   8.3313610  29.7610430  74.7388260   7.4680450  28.7004870  74.0893780
   2.8866700  25.9150550  78.0578730   2.5862240  25.7915520  78.9582640
   2.7804190  25.0559140  77.6494460  14.4157170  27.9529130  87.4235700
  13.8159160  28.0121690  86.6799620  14.5451070  27.0134110  87.5532550
  15.6558620  25.6946950  72.7605410  14.8251580  25.7623600  73.2312640
  15.8330450  26.5851070  72.4572270  15.1115080  22.4394430  75.2639610
  15.8733990  23.0091080  75.3699300  15.1269450  21.8721630  76.0347920
  16.1175050  23.2944530  80.1081540  16.4883880  22.5111850  79.7017510
  16.7576980  23.9833630  79.9298840  13.1008810  24.6781110  85.5211860
  12.2868650  25.1078270  85.7837650  13.5083010  25.2899520  84.9080910
  15.1634250  22.7328800  72.4212130  15.4383090  23.6407680  72.2931350
  14.9744990  22.6691330  73.3574120  11.5609860  15.7573650  73.7165760
  11.9794740  15.5704630  72.8762420  11.2545920  14.9052700  74.0268690
  15.0599590  20.6697790  77.4141560  14.6843190  19.9025720  76.9822850
  14.3302710  21.0520490  77.9016490  14.4499210  19.8169310  87.0481080
  14.2185300  19.5882060  86.1479030  14.7103760  20.7368860  87.0025970
  12.8887280  15.0425740  89.8260780  13.7657460  15.0509140  90.2094780
  12.9008120  14.3056580  89.2153130  14.3350550  18.8955280  80.7148800
  14.8588030  18.4017930  80.0838970  14.9209970  19.0305640  81.4596370
  14.5140270  18.9795150  84.2368350  13.5642980  18.9458690  84.3513340
  14.6953280  19.8895260  84.0018120  13.8250520  18.1528630  76.6541210
  14.3209640  17.9199500  77.4390090  13.6266590  17.3140470  76.2378850
  15.2537680  16.7889580  79.1878890  15.1436960  16.6345620  80.1261160
  16.0145270  16.2610520  78.9454300  13.6003400  12.7283710  85.6461890
  14.2375620  13.3417850  86.0121080  13.7478290  12.7644370  84.7011120
  16.1427950  14.6197500  72.4285030  17.0677260  14.4878680  72.2203320
  16.1203740  14.6990320  73.3821480  16.2166440  15.3908160  75.0541740
  15.4217940  15.3253280  75.5834650  16.4209720  16.3258800  75.0427090
  13.1584860  29.4299710  79.0480130  13.7543930  29.1084280  78.3714550
  13.4163010  28.9571530  79.8393400   4.7653460  27.4177210  84.7980480
   4.5244820  27.6851770  83.9111000   5.7056100  27.5882940  84.8531340
   6.9707880  13.8809900  88.5536990   6.9096770  14.4731730  89.3032400
   7.9108260  13.7735860  88.4087250   9.6082440  13.5379960  88.1929280
  10.2222850  13.8559250  87.5310360  10.1532000  13.0528550  88.8125140
  16.0257620  29.4371590  85.5991120  15.5315900  29.8340460  84.8818250
  15.4170910  28.8120800  85.9928400  10.3490480  12.1012100  84.5198570
   9.4750320  12.4347210  84.3171500  10.2401230  11.6285280  85.3450440
  11.2562460  14.3082970  85.9040290  10.9275820  13.4934730  85.5242020
  12.2044760  14.2652780  85.7805980  13.7097070  30.0795010  82.8777860
  13.2500040  30.8310820  82.5035880  13.0809530  29.3601480  82.8192660
   4.1392790  28.3883250  82.0525990   4.6557810  27.7770610  81.5274250
   4.7890170  28.8912030  82.5437000   6.8788290  29.2791740  82.8794970
   7.1666100  29.0246040  82.0027980   7.3911510  28.7269100  83.4700540
   8.0965300  13.0181940  83.4591480   7.3137090  13.4927440  83.7388240
   7.8028230  12.1136770  83.3504660  12.6486370  13.7205040  81.5040570
  13.0894460  13.6650140  80.6562170  12.3793960  14.6363050  81.5750750
  14.5124940  13.3520280  79.5149390  14.4513340  12.4081500  79.3680410
  15.2916970  13.4600370  80.0602850   5.9819520  15.4368690  78.9707510
   5.1694030  15.0625580  78.6303390   6.4861160  14.6813770  79.2728700
  10.4844500  12.1011140  80.2090580  11.0873870  12.6731350  80.6839100
   9.7437490  12.6650580  79.9864480  13.6279100  12.5032700  75.4830860
  13.8229730  13.4016150  75.7498290  12.8408970  12.2719780  75.9763810
   1.8130860  13.8493470  74.5207170   2.3423620  13.0623270  74.3915120
   2.4459180  14.5284660  74.7542700   4.0068700  13.5868610  77.5752560
   3.3771440  12.8855920  77.7422690   3.4673840  14.3472740  77.3585720
   6.9460650  30.2007840  90.2463170   7.8727960  29.9652110  90.2899130
   6.9311080  31.0279840  89.7649200  15.1805710  29.7433410  77.2437420
  15.3557900  29.0571150  76.5998340  14.4827280  30.2680460  76.8514090
   4.1324260  12.8652590  90.0105050   3.8508530  13.3686190  89.2465870
   4.5143960  12.0674340  89.6447180   3.0233360  30.1328250  74.7972730
   3.7552180  29.8487530  74.2496620   3.2827030  29.8941530  75.6872110
   2.1848150  26.2492980  74.8019060   1.5557030  26.7178080  75.3504890
   2.2995980  25.4042200  75.2365250  10.7339720  12.2806170  90.5885520
  10.6205170  12.6000780  91.4837040  11.5509460  12.6818680  90.2922800
  13.5138210  29.4277700  90.0704210  14.3063530  28.9326930  89.8630170
  13.8071360  30.1067840  90.6779820   9.6397870  20.2998640  60.9520260
   9.5591920  19.3853250  60.6811970   9.2262290  20.7965710  60.2459970
   7.7715910  22.0777660  62.8329530   6.9958010  21.5978100  63.1228100
   8.4228840  21.3983310  62.6585690  11.7923340  26.4837850  61.6128660
  11.3304870  25.7125090  61.9415830  12.6048890  26.5103920  62.1181110
   1.7683000  26.4237560  63.9063310   2.0711040  25.5335300  63.7273530
   2.5126590  26.9807780  63.6785560   8.0186650  28.7695860  61.2332650
   7.3998090  29.2253360  60.6627090   8.8738430  28.9247320  60.8322350
   7.2124900  24.7534850  62.8399690   7.1433180  23.8124790  62.6788820
   7.9744760  24.8436260  63.4122260   8.2430070  17.5605230  63.0668620
   8.6194890  16.6877110  62.9542290   8.1449580  17.8963930  62.1759060
   2.3735080  15.9330860  58.5286060   2.4801830  16.8334590  58.8354820
   1.4627440  15.8848830  58.2380710  12.0254190  15.0555670  59.9996960
  12.8463810  14.5652240  60.0422440  12.0588270  15.6453330  60.7528800
   4.2142810  18.9017230  62.8611240   4.7221030  19.3998200  63.5016260
   4.7456050  18.1252430  62.6850600  16.3153740  17.0722420  66.5640590
  15.6105910  17.4604130  66.0455700  16.5811660  17.7672710  67.1661520
   2.4978910  13.5415790  67.1274660   2.4997350  14.0588180  66.3220560
   1.6683220  13.0645970  67.1044590   8.8850000  23.6535100  58.6264560
   8.2667270  24.1184550  58.0627280   9.3973250  24.3462580  59.0434070
   3.7481760  23.1810970  65.3048160   3.4151140  23.8079890  65.9469230
   3.9248440  23.7072850  64.5249830  12.2615670  16.9956050  62.7724500
  11.5571240  17.2840940  63.3527610  12.6227830  17.8056160  62.4124060
   2.1794240  15.2525750  65.1345110   2.5211050  16.0967800  64.8398980
   1.2410050  15.4009490  65.2510450   2.9600860  25.1491770  67.1197340
   3.5774860  25.8242850  66.8381790   2.0993980  25.5579750  67.0284840
  13.8778450  26.6131180  65.0351980  13.1941970  27.2830290  65.0268650
  14.4172740  26.8111830  64.2696840  15.3302590  16.4410840  63.1633710
  14.3827500  16.4749820  63.2949140  15.6552580  17.2549790  63.5483070
   5.8622130  12.7408020  61.4589700   6.1697110  12.1854910  60.7425200
   4.9322830  12.8752480  61.2762690  11.4137190  28.4575310  63.7497160
  11.4264350  28.0537600  62.8819420  10.8612410  29.2322600  63.6458590
  12.7082610  25.1791530  58.8387330  12.5978940  24.2365860  58.9636750
  12.7050860  25.5407170  59.7250090  10.8122630  23.3605150  65.0779770
  11.2291420  23.1465260  64.2433230  11.5362450  23.6177940  65.6488390
   8.2502890  20.8056850  58.1949820   7.3232170  20.7394230  58.4238290
   8.4027710  21.7436980  58.0805060   8.2371970  17.0773850  55.1916980
   7.2975640  17.2387810  55.2769440   8.5555230  17.7959530  54.6452970
  14.7584730  21.7592370  65.1696010  13.9303360  21.8285460  64.6946140
  15.3535210  22.3446680  64.7011840  12.2800180  22.3677150  58.6985070
  11.6612600  22.0296700  58.0511370  12.2624630  21.7236910  59.4064260
  11.7226740  18.5461690  66.1150880  11.3097920  19.3715400  66.3690870
  10.9902690  17.9606730  65.9227240   3.8559530  21.3321590  60.9769550
   3.4516530  20.6198840  60.4815450   3.9422650  20.9874830  61.8657590
   4.3241230  25.0189150  63.1408760   4.0269520  24.4134620  62.4616540
   5.2741050  25.0566460  63.0298120   2.5688150  18.1064800  64.7568590
   3.1202740  18.2160140  63.9821840   3.0831660  18.4802400  65.4723820
  12.4126840  28.5921020  66.8031860  11.9357400  29.3993210  66.6104470
  11.7288630  27.9399350  66.9558070   3.4159660  24.7570840  69.7916560
   2.5188190  24.9810810  70.0389960   3.4412530  24.8805780  68.8427960
  10.4564880  21.6063960  55.7057820  10.8958160  20.7686390  55.5595640
  11.1693300  22.2393360  55.7921960   2.2430880  21.6284160  68.3673930
   2.1038650  22.5006960  68.7361330   1.3612240  21.2856970  68.2221870
   8.5660260  26.5460030  59.6739060   9.0056170  27.2884360  59.2594450
   8.5047150  26.7886600  60.5978020   4.0411230  27.5705860  70.5759080
   4.0126660  27.9748810  69.7087510   3.8776200  26.6416220  70.4130680
  14.0382020  12.8606770  54.0198860  13.7254680  12.9533600  54.9197930
  14.7994490  13.4387800  53.9696290  15.9926050  28.3532960  71.8723250
  16.4685770  28.8315850  72.5512330  16.6133210  28.2850450  71.1468750
  15.3959300  25.5445810  69.0323260  15.5222360  25.3057690  68.1140440
  15.4380680  24.7130350  69.5045340   9.2576040  29.2473810  67.6018070
   9.7720710  29.1581820  68.4040500   8.4145120  29.5933510  67.8945980
  11.2330440  29.5329150  57.0302070  11.0731580  29.2432090  57.9283900
  11.0677150  28.7569280  56.4947300   3.7118820  29.3127680  58.8073690
   3.5361300  28.3963220  58.5941490   2.8574560  29.6714970  59.0471490
  10.9356570  27.0416710  55.5900070  10.2421730  27.0394000  54.9302350
  11.6779430  26.6176030  55.1594240  10.5006500  28.6679420  59.6648560
  10.9563450  27.8868800  59.9787180  10.8399020  29.3786240  60.2089740
  15.2483310  17.5978270  69.9973000  14.6327580  18.1057940  69.4688460
  14.9279730  16.6976600  69.9398940   3.0227820  13.5701640  61.8599870
   2.5795970  14.3511180  61.5284390   3.5812810  13.8931530  62.5670810
   7.3097630  16.4370160  67.4635190   6.8477000  16.6453180  68.2755130
   6.9075740  15.6229510  67.1605860  12.3102140  17.6579110  68.5931850
  11.4595730  17.3584860  68.9140920  12.1503930  17.9021120  67.6815670
   9.4051850  19.1580860  70.6930640   9.7305260  18.3244610  70.3532870
  10.1932180  19.6809380  70.8408970   6.1386640  13.1912340  56.7405700
   5.5140820  13.1872210  57.4659010   6.0516760  12.3243300  56.3441670
   5.0603720  14.1148970  63.7189470   5.3576050  15.0211800  63.6381490
   5.6089280  13.6267750  63.1049040   2.8142040  18.6935210  59.5881120
   2.5882960  18.4772380  60.4927740   2.0334570  19.1263670  59.2427090
  10.0439800  18.6998580  58.1871770   9.4448690  19.4234380  58.0035390
  10.5919410  18.6375360  57.4048220   5.2541250  19.5920790  70.2541390
   5.1584850  18.6515520  70.1041790   6.0973230  19.8135860  69.8589460
   8.6504670  17.3362120  60.2175050   9.0434240  17.6534320  59.4043740
   9.0121520  16.4574000  60.3319570   6.9596840  16.0869430  71.4771910
   6.2695160  15.8941630  72.1118000   7.7029140  16.3704070  72.0096210
   9.2359810  19.9267870  64.3125830   8.5040930  20.4354680  64.6615930
   8.8384150  19.1097850  64.0114610   5.6737200  16.6022070  62.7178320
   5.6773260  16.1612020  61.8682860   6.5688320  16.9239400  62.8250140
   5.7357350  17.6034150  55.7085080   5.8570170  17.5620630  56.6570900
   5.3505860  18.4658300  55.5531810   9.6985720  15.3801550  63.7248770
   9.7158460  15.8310200  64.5690620   9.4501300  14.4807190  63.9382210
   4.7478850  19.9135290  55.1068380   4.1795750  19.4653540  54.4804290
   5.4567850  20.2728070  54.5733530  13.1256470  12.7933730  69.5635150
  13.4502240  12.0623390  70.0893130  13.1612980  12.4747370  68.6616140
   5.9745170  20.6623850  64.4643730   6.3415300  20.1882420  65.2105070
   5.7850230  21.5365420  64.8052070   3.7644540  19.7032490  66.7827940
   3.4601610  20.5824470  67.0078300   4.7191000  19.7632280  66.8185380
   2.2926330  23.9093480  57.3794790   1.5188590  23.3691100  57.2193510
   3.0220960  23.3900090  57.0412550  13.0514310  22.9058840  63.1721180
  13.7713430  23.4014130  62.7817290  12.8496130  22.2276730  62.5275050
   8.5124250  14.2996800  57.3150570   7.6988860  13.8009970  57.2395880
   8.3186200  15.1395050  56.8986920   8.4333110  22.9767900  69.0590180
   8.3670420  22.0563570  68.8047770   7.8038250  23.0743340  69.7734820
  11.2272640  18.6716450  55.6112730  12.1152260  18.9833680  55.4364070
  11.1977730  17.7988700  55.2193310   2.3363730  23.5773860  61.0173600
   2.8542400  22.7742120  60.9630490   1.8847750  23.5153000  61.8590430
   7.2233230  24.8440140  56.2900900   7.5648930  25.5882370  55.7944220
   6.3945940  25.1571260  56.6525730   3.0221390  21.0019470  70.8138850
   2.7221530  21.1476650  69.9166670   3.7932630  20.4424760  70.7212240
   8.3649840  25.7988470  68.8093980   8.3794380  24.8669430  68.5912890
   7.6574940  25.8848230  69.4483750  13.4986910  19.9828290  55.0792590
  13.4150630  20.4142510  54.2289030  14.2181100  20.4426640  55.5119410
  14.5761050  22.4395810  68.1562560  13.8509240  23.0324590  67.9591950
  15.1036510  22.4319350  67.3575930  14.5274160  26.8370550  57.8074720
  13.8850320  26.1826170  58.0818440  14.1404820  27.2425640  57.0315390
  10.1060640  24.1655980  61.6546410  10.4584460  23.5684110  60.9947780
   9.2222970  23.8400210  61.8254660   6.1923920  24.9253670  59.0616820
   6.8795050  25.4722880  59.4424410   5.4056340  25.4694400  59.0966430
   5.4951130  21.9299700  58.6742180   5.9513910  22.7404950  58.9002370
   5.1439340  21.6122840  59.5060670   7.7983740  27.4406040  65.9034480
   8.4425960  27.6465420  66.5807900   8.1613180  26.6794440  65.4505330
   9.0715820  25.4438390  64.6211930   9.7138050  24.7431550  64.7344100
   9.5965170  26.2236830  64.4408820  12.9171540  25.7287010  54.3451070
  12.6909120  25.0117450  54.9375710  12.5267740  25.4799450  53.5072820
  10.8453440  26.2433290  67.8247990  11.1809680  26.8299980  68.5025910
   9.9253780  26.1126000  68.0545780  12.4987790  23.6458950  56.0065230
  12.2109490  24.1071640  56.7943110  13.2939960  23.1856720  56.2749450
   6.6742020  26.2924620  70.9936050   6.3538890  25.5733860  71.5381740
   6.0000380  26.9679690  71.0672110   4.7156190  27.1385070  55.9369200
   4.7066290  27.8714760  55.3213710   3.7954550  26.8916650  56.0296160
   9.8895620  16.5250780  66.3572850  10.2576440  15.7045990  66.6852420
   9.0293820  16.5852670  66.7728500  13.2557650  15.4807720  57.1660410
  12.6270810  15.5853390  56.4518640  12.7609570  15.7004500  57.9554290
   7.7015790  27.2013310  54.5994390   7.8027770  26.9977300  53.6696370
   6.8017530  26.9471590  54.8042170   5.2241680  17.7593670  58.5818290
   4.5157830  18.2280010  59.0231900   5.5086160  17.1015680  59.2163480
   6.8497610  19.1790370  66.5810820   7.3482860  19.6536190  67.2462670
   6.9920560  18.2553890  66.7880850   9.2557110  14.4844330  60.0214080
   9.1324890  14.5030460  59.0723590  10.2041670  14.5323270  60.1412480
   6.3433900  29.7199630  59.2942060   6.5975400  29.6821020  58.3721430
   5.3946380  29.5932960  59.2870310   3.4276700  16.0678750  55.9569000
   4.2767230  16.5048900  55.8909190   3.0607970  16.3799010  56.7841060
  14.0564470  15.3958330  67.4239210  13.5538070  16.1363730  67.7633020
  14.8721130  15.7842330  67.1076000  12.3486480  20.6391510  60.8700570
  11.4076620  20.6541740  61.0448260  12.6630550  19.8527470  61.3160870
   2.3268120  22.3211110  54.4304530   3.0931390  22.2092470  54.9929960
   2.4042810  21.6249080  53.7781300  14.3512060  27.8100360  62.5454830
  14.4759480  28.6331530  63.0178640  15.2177620  27.5991090  62.1978980
   1.8229590  29.9031570  62.2171960   2.5592070  29.3547030  62.4880530
   2.2070510  30.7687580  62.0777950   4.9331900  29.0761880  54.0397530
   5.7260510  29.3650710  53.5879320   4.4136250  28.6454050  53.3610010
   9.6652500  25.1957510  71.3532950   9.0590660  25.2189110  70.6128700
   9.3606610  24.4640550  71.8900200  11.0952870  28.9237800  69.9642360
  12.0474620  28.8395820  69.9142600  10.9481090  29.5879510  70.6376150
  13.9862070  28.3032010  55.4634270  13.7003580  27.8897150  54.6488450
  13.7881620  29.2319720  55.3434790   5.4509300  24.2965290  53.9039880
   5.3459940  23.6817640  54.6301260   5.2833520  23.7731180  53.1202890
   5.6023620  22.9822090  69.8829110   4.8369290  23.5507090  69.7983780
   5.7839580  22.6898300  68.9897340   8.6912030  23.3585320  54.5081870
   8.1422130  23.8054620  55.1524610   9.3131290  22.8534570  55.0319540
  12.7446970  24.7127420  70.4404130  13.4856440  25.0503180  69.9371590
  11.9819650  24.8819480  69.8873900   4.3587150  22.3176240  56.4047170
   4.7803570  22.1516110  57.2478560   4.4837990  21.5076470  55.9102310
   2.5214570  18.2972790  69.2118150   1.9911030  17.8063740  68.5841490
   3.1902640  18.7256990  68.6776080   6.8714790  21.3413850  53.6524270
   7.3920450  20.6262870  53.2865420   7.5183190  21.9799720  53.9524780
  11.4192630  22.7642250  68.9759340  11.8333650  22.9187330  69.8249760
  10.4843630  22.8897470  69.1385120  11.8914800  20.1038410  70.9798490
  12.4735570  19.3490730  70.8918970  12.0676570  20.6345850  70.2029970
   3.0086870  15.2635160  69.2915440   2.9143740  14.6455910  68.5666310
   2.4284260  15.9901450  69.0645350   5.7748310  13.8208400  66.3242830
   5.3265610  13.8432660  65.4788380   5.1413510  13.4227420  66.9213130
   6.1807860  22.7162730  66.9455270   6.5995970  23.5595460  66.7731510
   5.2616490  22.8534770  66.7162050   8.5171760  20.4478910  68.3293110
   8.6367970  19.8520050  69.0687950   9.3765760  20.4848600  67.9094410
  10.8559660  21.0016100  66.9055620  10.3294880  21.5258720  66.3020760
  11.1991000  21.6343490  67.5365350   3.2546050  18.3909470  53.3505330
   3.0535110  17.5276830  53.7118670   3.0838100  18.3042830  52.4126930
   4.0315280  29.0215740  68.0613000   3.4936370  29.7461800  67.7421700
   4.2849240  28.5446080  67.2710340   5.2840530  16.9900260  69.5868930
   5.8740220  16.6816110  70.2746750   4.4660770  16.5180010  69.7428830
  10.1033960  16.6066070  69.8201950   9.4149480  15.9447610  69.7551940
  10.8239980  16.1604340  70.2650410  10.7334360  13.2017700  55.8792210
  11.0136650  12.3585600  56.2351630   9.9600090  13.4340810  56.3930960
   2.0528850  15.4910090  53.3383210   2.3554750  15.4977520  52.4302360
   2.7923440  15.1407950  53.8350870   6.8877490  30.2566950  68.3199650
   6.8136190  31.1602090  68.6272020   5.9856330  29.9378850  68.2921720
   5.2713780  14.4344710  54.3239410   4.9235780  13.7568700  53.7441860
   5.4726550  13.9734220  55.1382800   7.4362820  29.4225460  55.9426010
   8.3313610  29.7610430  55.9644770   7.4680450  28.7004870  55.3150290
   2.8866700  25.9150550  59.2835240   2.5862240  25.7915520  60.1839150
   2.7804190  25.0559140  58.8750970  14.4157170  27.9529130  68.6492210
  13.8159160  28.0121690  67.9056130  14.5451070  27.0134110  68.7789060
  15.6558620  25.6946950  53.9861920  14.8251580  25.7623600  54.4569150
  15.8330450  26.5851070  53.6828780  15.1115080  22.4394430  56.4896120
  15.8733990  23.0091080  56.5955810  15.1269450  21.8721630  57.2604430
  16.1175050  23.2944530  61.3338050  16.4883880  22.5111850  60.9274020
  16.7576980  23.9833630  61.1555350  13.1008810  24.6781110  66.7468370
  12.2868650  25.1078270  67.0094160  13.5083010  25.2899520  66.1337420
  15.1634250  22.7328800  53.6468640  15.4383090  23.6407680  53.5187860
  14.9744990  22.6691330  54.5830630  11.5609860  15.7573650  54.9422270
  11.9794740  15.5704630  54.1018930  11.2545920  14.9052700  55.2525200
  15.0599590  20.6697790  58.6398070  14.6843190  19.9025720  58.2079360
  14.3302710  21.0520490  59.1273000  14.4499210  19.8169310  68.2737590
  14.2185300  19.5882060  67.3735540  14.7103760  20.7368860  68.2282480
  12.8887280  15.0425740  71.0517290  13.7657460  15.0509140  71.4351290
  12.9008120  14.3056580  70.4409640  14.3350550  18.8955280  61.9405310
  14.8588030  18.4017930  61.3095480  14.9209970  19.0305640  62.6852880
  14.5140270  18.9795150  65.4624860  13.5642980  18.9458690  65.5769850
  14.6953280  19.8895260  65.2274630  13.8250520  18.1528630  57.8797720
  14.3209640  17.9199500  58.6646600  13.6266590  17.3140470  57.4635360
  15.2537680  16.7889580  60.4135400  15.1436960  16.6345620  61.3517670
  16.0145270  16.2610520  60.1710810  13.6003400  12.7283710  66.8718400
  14.2375620  13.3417850  67.2377590  13.7478290  12.7644370  65.9267630
  16.1427950  14.6197500  53.6541540  17.0677260  14.4878680  53.4459830
  16.1203740  14.6990320  54.6077990  16.2166440  15.3908160  56.2798250
  15.4217940  15.3253280  56.8091160  16.4209720  16.3258800  56.2683600
  13.1584860  29.4299710  60.2736640  13.7543930  29.1084280  59.5971060
  13.4163010  28.9571530  61.0649910   4.7653460  27.4177210  66.0236990
   4.5244820  27.6851770  65.1367510   5.7056100  27.5882940  66.0787850
   6.9707880  13.8809900  69.7793500   6.9096770  14.4731730  70.5288910
   7.9108260  13.7735860  69.6343760   9.6082440  13.5379960  69.4185790
  10.2222850  13.8559250  68.7566870  10.1532000  13.0528550  70.0381650
  16.0257620  29.4371590  66.8247630  15.5315900  29.8340460  66.1074760
  15.4170910  28.8120800  67.2184910  10.3490480  12.1012100  65.7455080
   9.4750320  12.4347210  65.5428010  10.2401230  11.6285280  66.5706950
  11.2562460  14.3082970  67.1296800  10.9275820  13.4934730  66.7498530
  12.2044760  14.2652780  67.0062490  13.7097070  30.0795010  64.1034370
  13.2500040  30.8310820  63.7292390  13.0809530  29.3601480  64.0449170
   4.1392790  28.3883250  63.2782500   4.6557810  27.7770610  62.7530760
   4.7890170  28.8912030  63.7693510   6.8788290  29.2791740  64.1051480
   7.1666100  29.0246040  63.2284490   7.3911510  28.7269100  64.6957050
   8.0965300  13.0181940  64.6847990   7.3137090  13.4927440  64.9644750
   7.8028230  12.1136770  64.5761170  12.6486370  13.7205040  62.7297080
  13.0894460  13.6650140  61.8818680  12.3793960  14.6363050  62.8007260
  14.5124940  13.3520280  60.7405900  14.4513340  12.4081500  60.5936920
  15.2916970  13.4600370  61.2859360   5.9819520  15.4368690  60.1964020
   5.1694030  15.0625580  59.8559900   6.4861160  14.6813770  60.4985210
  10.4844500  12.1011140  61.4347090  11.0873870  12.6731350  61.9095610
   9.7437490  12.6650580  61.2120990  13.6279100  12.5032700  56.7087370
  13.8229730  13.4016150  56.9754800  12.8408970  12.2719780  57.2020320
   1.8130860  13.8493470  55.7463680   2.3423620  13.0623270  55.6171630
   2.4459180  14.5284660  55.9799210   4.0068700  13.5868610  58.8009070
   3.3771440  12.8855920  58.9679200   3.4673840  14.3472740  58.5842230
   6.9460650  30.2007840  71.4719680   7.8727960  29.9652110  71.5155640
   6.9311080  31.0279840  70.9905710  15.1805710  29.7433410  58.4693930
  15.3557900  29.0571150  57.8254850  14.4827280  30.2680460  58.0770600
   4.1324260  12.8652590  71.2361560   3.8508530  13.3686190  70.4722380
   4.5143960  12.0674340  70.8703690   3.0233360  30.1328250  56.0229240
   3.7552180  29.8487530  55.4753130   3.2827030  29.8941530  56.9128620
   2.1848150  26.2492980  56.0275570   1.5557030  26.7178080  56.5761400
   2.2995980  25.4042200  56.4621760  10.7339720  12.2806170  71.8142030
  10.6205170  12.6000780  72.7093550  11.5509460  12.6818680  71.5179310
  13.5138210  29.4277700  71.2960720  14.3063530  28.9326930  71.0886680
  13.8071360  30.1067840  71.9036330   9.6397870  20.2998640  42.1776770
   9.5591920  19.3853250  41.9068480   9.2262290  20.7965710  41.4716480
   7.7715910  22.0777660  44.0586040   6.9958010  21.5978100  44.3484610
   8.4228840  21.3983310  43.8842200  11.7923340  26.4837850  42.8385170
  11.3304870  25.7125090  43.1672340  12.6048890  26.5103920  43.3437620
   1.7683000  26.4237560  45.1319820   2.0711040  25.5335300  44.9530040
   2.5126590  26.9807780  44.9042070   8.0186650  28.7695860  42.4589160
   7.3998090  29.2253360  41.8883600   8.8738430  28.9247320  42.0578860
   7.2124900  24.7534850  44.0656200   7.1433180  23.8124790  43.9045330
   7.9744760  24.8436260  44.6378770   8.2430070  17.5605230  44.2925130
   8.6194890  16.6877110  44.1798800   8.1449580  17.8963930  43.4015570
   2.3735080  15.9330860  39.7542570   2.4801830  16.8334590  40.0611330
   1.4627440  15.8848830  39.4637220  12.0254190  15.0555670  41.2253470
  12.8463810  14.5652240  41.2678950  12.0588270  15.6453330  41.9785310
   4.2142810  18.9017230  44.0867750   4.7221030  19.3998200  44.7272770
   4.7456050  18.1252430  43.9107110  16.3153740  17.0722420  47.7897100
  15.6105910  17.4604130  47.2712210  16.5811660  17.7672710  48.3918030
   2.4978910  13.5415790  48.3531170   2.4997350  14.0588180  47.5477070
   1.6683220  13.0645970  48.3301100   8.8850000  23.6535100  39.8521070
   8.2667270  24.1184550  39.2883790   9.3973250  24.3462580  40.2690580
   3.7481760  23.1810970  46.5304670   3.4151140  23.8079890  47.1725740
   3.9248440  23.7072850  45.7506340  12.2615670  16.9956050  43.9981010
  11.5571240  17.2840940  44.5784120  12.6227830  17.8056160  43.6380570
   2.1794240  15.2525750  46.3601620   2.5211050  16.0967800  46.0655490
   1.2410050  15.4009490  46.4766960   2.9600860  25.1491770  48.3453850
   3.5774860  25.8242850  48.0638300   2.0993980  25.5579750  48.2541350
  13.8778450  26.6131180  46.2608490  13.1941970  27.2830290  46.2525160
  14.4172740  26.8111830  45.4953350  15.3302590  16.4410840  44.3890220
  14.3827500  16.4749820  44.5205650  15.6552580  17.2549790  44.7739580
   5.8622130  12.7408020  42.6846210   6.1697110  12.1854910  41.9681710
   4.9322830  12.8752480  42.5019200  11.4137190  28.4575310  44.9753670
  11.4264350  28.0537600  44.1075930  10.8612410  29.2322600  44.8715100
  12.7082610  25.1791530  40.0643840  12.5978940  24.2365860  40.1893260
  12.7050860  25.5407170  40.9506600  10.8122630  23.3605150  46.3036280
  11.2291420  23.1465260  45.4689740  11.5362450  23.6177940  46.8744900
   8.2502890  20.8056850  39.4206330   7.3232170  20.7394230  39.6494800
   8.4027710  21.7436980  39.3061570   8.2371970  17.0773850  36.4173490
   7.2975640  17.2387810  36.5025950   8.5555230  17.7959530  35.8709480
  14.7584730  21.7592370  46.3952520  13.9303360  21.8285460  45.9202650
  15.3535210  22.3446680  45.9268350  12.2800180  22.3677150  39.9241580
  11.6612600  22.0296700  39.2767880  12.2624630  21.7236910  40.6320770
  11.7226740  18.5461690  47.3407390  11.3097920  19.3715400  47.5947380
  10.9902690  17.9606730  47.1483750   3.8559530  21.3321590  42.2026060
   3.4516530  20.6198840  41.7071960   3.9422650  20.9874830  43.0914100
   4.3241230  25.0189150  44.3665270   4.0269520  24.4134620  43.6873050
   5.2741050  25.0566460  44.2554630   2.5688150  18.1064800  45.9825100
   3.1202740  18.2160140  45.2078350   3.0831660  18.4802400  46.6980330
  12.4126840  28.5921020  48.0288370  11.9357400  29.3993210  47.8360980
  11.7288630  27.9399350  48.1814580   3.4159660  24.7570840  51.0173070
   2.5188190  24.9810810  51.2646470   3.4412530  24.8805780  50.0684470
  10.4564880  21.6063960  36.9314330  10.8958160  20.7686390  36.7852150
  11.1693300  22.2393360  37.0178470   2.2430880  21.6284160  49.5930440
   2.1038650  22.5006960  49.9617840   1.3612240  21.2856970  49.4478380
   8.5660260  26.5460030  40.8995570   9.0056170  27.2884360  40.4850960
   8.5047150  26.7886600  41.8234530   4.0411230  27.5705860  51.8015590
   4.0126660  27.9748810  50.9344020   3.8776200  26.6416220  51.6387190
  14.0382020  12.8606770  35.2455370  13.7254680  12.9533600  36.1454440
  14.7994490  13.4387800  35.1952800  15.9926050  28.3532960  53.0979760
  16.4685770  28.8315850  53.7768840  16.6133210  28.2850450  52.3725260
  15.3959300  25.5445810  50.2579770  15.5222360  25.3057690  49.3396950
  15.4380680  24.7130350  50.7301850   9.2576040  29.2473810  48.8274580
   9.7720710  29.1581820  49.6297010   8.4145120  29.5933510  49.1202490
  11.2330440  29.5329150  38.2558580  11.0731580  29.2432090  39.1540410
  11.0677150  28.7569280  37.7203810   3.7118820  29.3127680  40.0330200
   3.5361300  28.3963220  39.8198000   2.8574560  29.6714970  40.2728000
  10.9356570  27.0416710  36.8156580  10.2421730  27.0394000  36.1558860
  11.6779430  26.6176030  36.3850750  10.5006500  28.6679420  40.8905070
  10.9563450  27.8868800  41.2043690  10.8399020  29.3786240  41.4346250
  15.2483310  17.5978270  51.2229510  14.6327580  18.1057940  50.6944970
  14.9279730  16.6976600  51.1655450   3.0227820  13.5701640  43.0856380
   2.5795970  14.3511180  42.7540900   3.5812810  13.8931530  43.7927320
   7.3097630  16.4370160  48.6891700   6.8477000  16.6453180  49.5011640
   6.9075740  15.6229510  48.3862370  12.3102140  17.6579110  49.8188360
  11.4595730  17.3584860  50.1397430  12.1503930  17.9021120  48.9072180
   9.4051850  19.1580860  51.9187150   9.7305260  18.3244610  51.5789380
  10.1932180  19.6809380  52.0665480   6.1386640  13.1912340  37.9662210
   5.5140820  13.1872210  38.6915520   6.0516760  12.3243300  37.5698180
   5.0603720  14.1148970  44.9445980   5.3576050  15.0211800  44.8638000
   5.6089280  13.6267750  44.3305550   2.8142040  18.6935210  40.8137630
   2.5882960  18.4772380  41.7184250   2.0334570  19.1263670  40.4683600
  10.0439800  18.6998580  39.4128280   9.4448690  19.4234380  39.2291900
  10.5919410  18.6375360  38.6304730   5.2541250  19.5920790  51.4797900
   5.1584850  18.6515520  51.3298300   6.0973230  19.8135860  51.0845970
   8.6504670  17.3362120  41.4431560   9.0434240  17.6534320  40.6300250
   9.0121520  16.4574000  41.5576080   6.9596840  16.0869430  52.7028420
   6.2695160  15.8941630  53.3374510   7.7029140  16.3704070  53.2352720
   9.2359810  19.9267870  45.5382340   8.5040930  20.4354680  45.8872440
   8.8384150  19.1097850  45.2371120   5.6737200  16.6022070  43.9434830
   5.6773260  16.1612020  43.0939370   6.5688320  16.9239400  44.0506650
   5.7357350  17.6034150  36.9341590   5.8570170  17.5620630  37.8827410
   5.3505860  18.4658300  36.7788320   9.6985720  15.3801550  44.9505280
   9.7158460  15.8310200  45.7947130   9.4501300  14.4807190  45.1638720
   4.7478850  19.9135290  36.3324890   4.1795750  19.4653540  35.7060800
   5.4567850  20.2728070  35.7990040  13.1256470  12.7933730  50.7891660
  13.4502240  12.0623390  51.3149640  13.1612980  12.4747370  49.8872650
   5.9745170  20.6623850  45.6900240   6.3415300  20.1882420  46.4361580
   5.7850230  21.5365420  46.0308580   3.7644540  19.7032490  48.0084450
   3.4601610  20.5824470  48.2334810   4.7191000  19.7632280  48.0441890
   2.2926330  23.9093480  38.6051300   1.5188590  23.3691100  38.4450020
   3.0220960  23.3900090  38.2669060  13.0514310  22.9058840  44.3977690
  13.7713430  23.4014130  44.0073800  12.8496130  22.2276730  43.7531560
   8.5124250  14.2996800  38.5407080   7.6988860  13.8009970  38.4652390
   8.3186200  15.1395050  38.1243430   8.4333110  22.9767900  50.2846690
   8.3670420  22.0563570  50.0304280   7.8038250  23.0743340  50.9991330
  11.2272640  18.6716450  36.8369240  12.1152260  18.9833680  36.6620580
  11.1977730  17.7988700  36.4449820   2.3363730  23.5773860  42.2430110
   2.8542400  22.7742120  42.1887000   1.8847750  23.5153000  43.0846940
   7.2233230  24.8440140  37.5157410   7.5648930  25.5882370  37.0200730
   6.3945940  25.1571260  37.8782240   3.0221390  21.0019470  52.0395360
   2.7221530  21.1476650  51.1423180   3.7932630  20.4424760  51.9468750
   8.3649840  25.7988470  50.0350490   8.3794380  24.8669430  49.8169400
   7.6574940  25.8848230  50.6740260  13.4986910  19.9828290  36.3049100
  13.4150630  20.4142510  35.4545540  14.2181100  20.4426640  36.7375920
  14.5761050  22.4395810  49.3819070  13.8509240  23.0324590  49.1848460
  15.1036510  22.4319350  48.5832440  14.5274160  26.8370550  39.0331230
  13.8850320  26.1826170  39.3074950  14.1404820  27.2425640  38.2571900
  10.1060640  24.1655980  42.8802920  10.4584460  23.5684110  42.2204290
   9.2222970  23.8400210  43.0511170   6.1923920  24.9253670  40.2873330
   6.8795050  25.4722880  40.6680920   5.4056340  25.4694400  40.3222940
   5.4951130  21.9299700  39.8998690   5.9513910  22.7404950  40.1258880
   5.1439340  21.6122840  40.7317180   7.7983740  27.4406040  47.1290990
   8.4425960  27.6465420  47.8064410   8.1613180  26.6794440  46.6761840
   9.0715820  25.4438390  45.8468440   9.7138050  24.7431550  45.9600610
   9.5965170  26.2236830  45.6665330  12.9171540  25.7287010  35.5707580
  12.6909120  25.0117450  36.1632220  12.5267740  25.4799450  34.7329330
  10.8453440  26.2433290  49.0504500  11.1809680  26.8299980  49.7282420
   9.9253780  26.1126000  49.2802290  12.4987790  23.6458950  37.2321740
  12.2109490  24.1071640  38.0199620  13.2939960  23.1856720  37.5005960
   6.6742020  26.2924620  52.2192560   6.3538890  25.5733860  52.7638250
   6.0000380  26.9679690  52.2928620   4.7156190  27.1385070  37.1625710
   4.7066290  27.8714760  36.5470220   3.7954550  26.8916650  37.2552670
   9.8895620  16.5250780  47.5829360  10.2576440  15.7045990  47.9108930
   9.0293820  16.5852670  47.9985010  13.2557650  15.4807720  38.3916920
  12.6270810  15.5853390  37.6775150  12.7609570  15.7004500  39.1810800
   7.7015790  27.2013310  35.8250900   7.8027770  26.9977300  34.8952880
   6.8017530  26.9471590  36.0298680   5.2241680  17.7593670  39.8074800
   4.5157830  18.2280010  40.2488410   5.5086160  17.1015680  40.4419990
   6.8497610  19.1790370  47.8067330   7.3482860  19.6536190  48.4719180
   6.9920560  18.2553890  48.0137360   9.2557110  14.4844330  41.2470590
   9.1324890  14.5030460  40.2980100  10.2041670  14.5323270  41.3668990
   6.3433900  29.7199630  40.5198570   6.5975400  29.6821020  39.5977940
   5.3946380  29.5932960  40.5126820   3.4276700  16.0678750  37.1825510
   4.2767230  16.5048900  37.1165700   3.0607970  16.3799010  38.0097570
  14.0564470  15.3958330  48.6495720  13.5538070  16.1363730  48.9889530
  14.8721130  15.7842330  48.3332510  12.3486480  20.6391510  42.0957080
  11.4076620  20.6541740  42.2704770  12.6630550  19.8527470  42.5417380
   2.3268120  22.3211110  35.6561040   3.0931390  22.2092470  36.2186470
   2.4042810  21.6249080  35.0037810  14.3512060  27.8100360  43.7711340
  14.4759480  28.6331530  44.2435150  15.2177620  27.5991090  43.4235490
   1.8229590  29.9031570  43.4428470   2.5592070  29.3547030  43.7137040
   2.2070510  30.7687580  43.3034460   4.9331900  29.0761880  35.2654040
   5.7260510  29.3650710  34.8135830   4.4136250  28.6454050  34.5866520
   9.6652500  25.1957510  52.5789460   9.0590660  25.2189110  51.8385210
   9.3606610  24.4640550  53.1156710  11.0952870  28.9237800  51.1898870
  12.0474620  28.8395820  51.1399110  10.9481090  29.5879510  51.8632660
  13.9862070  28.3032010  36.6890780  13.7003580  27.8897150  35.8744960
  13.7881620  29.2319720  36.5691300   5.4509300  24.2965290  35.1296390
   5.3459940  23.6817640  35.8557770   5.2833520  23.7731180  34.3459400
   5.6023620  22.9822090  51.1085620   4.8369290  23.5507090  51.0240290
   5.7839580  22.6898300  50.2153850   8.6912030  23.3585320  35.7338380
   8.1422130  23.8054620  36.3781120   9.3131290  22.8534570  36.2576050
  12.7446970  24.7127420  51.6660640  13.4856440  25.0503180  51.1628100
  11.9819650  24.8819480  51.1130410   4.3587150  22.3176240  37.6303680
   4.7803570  22.1516110  38.4735070   4.4837990  21.5076470  37.1358820
   2.5214570  18.2972790  50.4374660   1.9911030  17.8063740  49.8098000
   3.1902640  18.7256990  49.9032590   6.8714790  21.3413850  34.8780780
   7.3920450  20.6262870  34.5121930   7.5183190  21.9799720  35.1781290
  11.4192630  22.7642250  50.2015850  11.8333650  22.9187330  51.0506270
  10.4843630  22.8897470  50.3641630  11.8914800  20.1038410  52.2055000
  12.4735570  19.3490730  52.1175480  12.0676570  20.6345850  51.4286480
   3.0086870  15.2635160  50.5171950   2.9143740  14.6455910  49.7922820
   2.4284260  15.9901450  50.2901860   5.7748310  13.8208400  47.5499340
   5.3265610  13.8432660  46.7044890   5.1413510  13.4227420  48.1469640
   6.1807860  22.7162730  48.1711780   6.5995970  23.5595460  47.9988020
   5.2616490  22.8534770  47.9418560   8.5171760  20.4478910  49.5549620
   8.6367970  19.8520050  50.2944460   9.3765760  20.4848600  49.1350920
  10.8559660  21.0016100  48.1312130  10.3294880  21.5258720  47.5277270
  11.1991000  21.6343490  48.7621860   3.2546050  18.3909470  34.5761840
   3.0535110  17.5276830  34.9375180   3.0838100  18.3042830  33.6383440
   4.0315280  29.0215740  49.2869510   3.4936370  29.7461800  48.9678210
   4.2849240  28.5446080  48.4966850   5.2840530  16.9900260  50.8125440
   5.8740220  16.6816110  51.5003260   4.4660770  16.5180010  50.9685340
  10.1033960  16.6066070  51.0458460   9.4149480  15.9447610  50.9808450
  10.8239980  16.1604340  51.4906920  10.7334360  13.2017700  37.1048720
  11.0136650  12.3585600  37.4608140   9.9600090  13.4340810  37.6187470
   2.0528850  15.4910090  34.5639720   2.3554750  15.4977520  33.6558870
   2.7923440  15.1407950  35.0607380   6.8877490  30.2566950  49.5456160
   6.8136190  31.1602090  49.8528530   5.9856330  29.9378850  49.5178230
   5.2713780  14.4344710  35.5495920   4.9235780  13.7568700  34.9698370
   5.4726550  13.9734220  36.3639310   7.4362820  29.4225460  37.1682520
   8.3313610  29.7610430  37.1901280   7.4680450  28.7004870  36.5406800
   2.8866700  25.9150550  40.5091750   2.5862240  25.7915520  41.4095660
   2.7804190  25.0559140  40.1007480  14.4157170  27.9529130  49.8748720
  13.8159160  28.0121690  49.1312640  14.5451070  27.0134110  50.0045570
  15.6558620  25.6946950  35.2118430  14.8251580  25.7623600  35.6825660
  15.8330450  26.5851070  34.9085290  15.1115080  22.4394430  37.7152630
  15.8733990  23.0091080  37.8212320  15.1269450  21.8721630  38.4860940
  16.1175050  23.2944530  42.5594560  16.4883880  22.5111850  42.1530530
  16.7576980  23.9833630  42.3811860  13.1008810  24.6781110  47.9724880
  12.2868650  25.1078270  48.2350670  13.5083010  25.2899520  47.3593930
  15.1634250  22.7328800  34.8725150  15.4383090  23.6407680  34.7444370
  14.9744990  22.6691330  35.8087140  11.5609860  15.7573650  36.1678780
  11.9794740  15.5704630  35.3275440  11.2545920  14.9052700  36.4781710
  15.0599590  20.6697790  39.8654580  14.6843190  19.9025720  39.4335870
  14.3302710  21.0520490  40.3529510  14.4499210  19.8169310  49.4994100
  14.2185300  19.5882060  48.5992050  14.7103760  20.7368860  49.4538990
  12.8887280  15.0425740  52.2773800  13.7657460  15.0509140  52.6607800
  12.9008120  14.3056580  51.6666150  14.3350550  18.8955280  43.1661820
  14.8588030  18.4017930  42.5351990  14.9209970  19.0305640  43.9109390
  14.5140270  18.9795150  46.6881370  13.5642980  18.9458690  46.8026360
  14.6953280  19.8895260  46.4531140  13.8250520  18.1528630  39.1054230
  14.3209640  17.9199500  39.8903110  13.6266590  17.3140470  38.6891870
  15.2537680  16.7889580  41.6391910  15.1436960  16.6345620  42.5774180
  16.0145270  16.2610520  41.3967320  13.6003400  12.7283710  48.0974910
  14.2375620  13.3417850  48.4634100  13.7478290  12.7644370  47.1524140
  16.1427950  14.6197500  34.8798050  17.0677260  14.4878680  34.6716340
  16.1203740  14.6990320  35.8334500  16.2166440  15.3908160  37.5054760
  15.4217940  15.3253280  38.0347670  16.4209720  16.3258800  37.4940110
  13.1584860  29.4299710  41.4993150  13.7543930  29.1084280  40.8227570
  13.4163010  28.9571530  42.2906420   4.7653460  27.4177210  47.2493500
   4.5244820  27.6851770  46.3624020   5.7056100  27.5882940  47.3044360
   6.9707880  13.8809900  51.0050010   6.9096770  14.4731730  51.7545420
   7.9108260  13.7735860  50.8600270   9.6082440  13.5379960  50.6442300
  10.2222850  13.8559250  49.9823380  10.1532000  13.0528550  51.2638160
  16.0257620  29.4371590  48.0504140  15.5315900  29.8340460  47.3331270
  15.4170910  28.8120800  48.4441420  10.3490480  12.1012100  46.9711590
   9.4750320  12.4347210  46.7684520  10.2401230  11.6285280  47.7963460
  11.2562460  14.3082970  48.3553310  10.9275820  13.4934730  47.9755040
  12.2044760  14.2652780  48.2319000  13.7097070  30.0795010  45.3290880
  13.2500040  30.8310820  44.9548900  13.0809530  29.3601480  45.2705680
   4.1392790  28.3883250  44.5039010   4.6557810  27.7770610  43.9787270
   4.7890170  28.8912030  44.9950020   6.8788290  29.2791740  45.3307990
   7.1666100  29.0246040  44.4541000   7.3911510  28.7269100  45.9213560
   8.0965300  13.0181940  45.9104500   7.3137090  13.4927440  46.1901260
   7.8028230  12.1136770  45.8017680  12.6486370  13.7205040  43.9553590
  13.0894460  13.6650140  43.1075190  12.3793960  14.6363050  44.0263770
  14.5124940  13.3520280  41.9662410  14.4513340  12.4081500  41.8193430
  15.2916970  13.4600370  42.5115870   5.9819520  15.4368690  41.4220530
   5.1694030  15.0625580  41.0816410   6.4861160  14.6813770  41.7241720
  10.4844500  12.1011140  42.6603600  11.0873870  12.6731350  43.1352120
   9.7437490  12.6650580  42.4377500  13.6279100  12.5032700  37.9343880
  13.8229730  13.4016150  38.2011310  12.8408970  12.2719780  38.4276830
   1.8130860  13.8493470  36.9720190   2.3423620  13.0623270  36.8428140
   2.4459180  14.5284660  37.2055720   4.0068700  13.5868610  40.0265580
   3.3771440  12.8855920  40.1935710   3.4673840  14.3472740  39.8098740
   6.9460650  30.2007840  52.6976190   7.8727960  29.9652110  52.7412150
   6.9311080  31.0279840  52.2162220  15.1805710  29.7433410  39.6950440
  15.3557900  29.0571150  39.0511360  14.4827280  30.2680460  39.3027110
   4.1324260  12.8652590  52.4618070   3.8508530  13.3686190  51.6978890
   4.5143960  12.0674340  52.0960200   3.0233360  30.1328250  37.2485750
   3.7552180  29.8487530  36.7009640   3.2827030  29.8941530  38.1385130
   2.1848150  26.2492980  37.2532080   1.5557030  26.7178080  37.8017910
   2.2995980  25.4042200  37.6878270  10.7339720  12.2806170  53.0398540
  10.6205170  12.6000780  53.9350060  11.5509460  12.6818680  52.7435820
  13.5138210  29.4277700  52.5217230  14.3063530  28.9326930  52.3143190
  13.8071360  30.1067840  53.1292840   9.6397870  20.2998640  23.4033280
   9.5591920  19.3853250  23.1324990   9.2262290  20.7965710  22.6972990
   7.7715910  22.0777660  25.2842550   6.9958010  21.5978100  25.5741120
   8.4228840  21.3983310  25.1098710  11.7923340  26.4837850  24.0641680
  11.3304870  25.7125090  24.3928850  12.6048890  26.5103920  24.5694130
   1.7683000  26.4237560  26.3576330   2.0711040  25.5335300  26.1786550
   2.5126590  26.9807780  26.1298580   8.0186650  28.7695860  23.6845670
   7.3998090  29.2253360  23.1140110   8.8738430  28.9247320  23.2835370
   7.2124900  24.7534850  25.2912710   7.1433180  23.8124790  25.1301840
   7.9744760  24.8436260  25.8635280   8.2430070  17.5605230  25.5181640
   8.6194890  16.6877110  25.4055310   8.1449580  17.8963930  24.6272080
   2.3735080  15.9330860  20.9799080   2.4801830  16.8334590  21.2867840
   1.4627440  15.8848830  20.6893730  12.0254190  15.0555670  22.4509980
  12.8463810  14.5652240  22.4935460  12.0588270  15.6453330  23.2041820
   4.2142810  18.9017230  25.3124260   4.7221030  19.3998200  25.9529280
   4.7456050  18.1252430  25.1363620  16.3153740  17.0722420  29.0153610
  15.6105910  17.4604130  28.4968720  16.5811660  17.7672710  29.6174540
   2.4978910  13.5415790  29.5787680   2.4997350  14.0588180  28.7733580
   1.6683220  13.0645970  29.5557610   8.8850000  23.6535100  21.0777580
   8.2667270  24.1184550  20.5140300   9.3973250  24.3462580  21.4947090
   3.7481760  23.1810970  27.7561180   3.4151140  23.8079890  28.3982250
   3.9248440  23.7072850  26.9762850  12.2615670  16.9956050  25.2237520
  11.5571240  17.2840940  25.8040630  12.6227830  17.8056160  24.8637080
   2.1794240  15.2525750  27.5858130   2.5211050  16.0967800  27.2912000
   1.2410050  15.4009490  27.7023470   2.9600860  25.1491770  29.5710360
   3.5774860  25.8242850  29.2894810   2.0993980  25.5579750  29.4797860
  13.8778450  26.6131180  27.4865000  13.1941970  27.2830290  27.4781670
  14.4172740  26.8111830  26.7209860  15.3302590  16.4410840  25.6146730
  14.3827500  16.4749820  25.7462160  15.6552580  17.2549790  25.9996090
   5.8622130  12.7408020  23.9102720   6.1697110  12.1854910  23.1938220
   4.9322830  12.8752480  23.7275710  11.4137190  28.4575310  26.2010180
  11.4264350  28.0537600  25.3332440  10.8612410  29.2322600  26.0971610
  12.7082610  25.1791530  21.2900350  12.5978940  24.2365860  21.4149770
  12.7050860  25.5407170  22.1763110  10.8122630  23.3605150  27.5292790
  11.2291420  23.1465260  26.6946250  11.5362450  23.6177940  28.1001410
   8.2502890  20.8056850  20.6462840   7.3232170  20.7394230  20.8751310
   8.4027710  21.7436980  20.5318080   8.2371970  17.0773850  17.6430000
   7.2975640  17.2387810  17.7282460   8.5555230  17.7959530  17.0965990
  14.7584730  21.7592370  27.6209030  13.9303360  21.8285460  27.1459160
  15.3535210  22.3446680  27.1524860  12.2800180  22.3677150  21.1498090
  11.6612600  22.0296700  20.5024390  12.2624630  21.7236910  21.8577280
  11.7226740  18.5461690  28.5663900  11.3097920  19.3715400  28.8203890
  10.9902690  17.9606730  28.3740260   3.8559530  21.3321590  23.4282570
   3.4516530  20.6198840  22.9328470   3.9422650  20.9874830  24.3170610
   4.3241230  25.0189150  25.5921780   4.0269520  24.4134620  24.9129560
   5.2741050  25.0566460  25.4811140   2.5688150  18.1064800  27.2081610
   3.1202740  18.2160140  26.4334860   3.0831660  18.4802400  27.9236840
  12.4126840  28.5921020  29.2544880  11.9357400  29.3993210  29.0617490
  11.7288630  27.9399350  29.4071090   3.4159660  24.7570840  32.2429580
   2.5188190  24.9810810  32.4902980   3.4412530  24.8805780  31.2940980
  10.4564880  21.6063960  18.1570840  10.8958160  20.7686390  18.0108660
  11.1693300  22.2393360  18.2434980   2.2430880  21.6284160  30.8186950
   2.1038650  22.5006960  31.1874350   1.3612240  21.2856970  30.6734890
   8.5660260  26.5460030  22.1252080   9.0056170  27.2884360  21.7107470
   8.5047150  26.7886600  23.0491040   4.0411230  27.5705860  33.0272100
   4.0126660  27.9748810  32.1600530   3.8776200  26.6416220  32.8643700
  14.0382020  12.8606770  16.4711880  13.7254680  12.9533600  17.3710950
  14.7994490  13.4387800  16.4209310  15.9926050  28.3532960  34.3236270
  16.4685770  28.8315850  35.0025350  16.6133210  28.2850450  33.5981770
  15.3959300  25.5445810  31.4836280  15.5222360  25.3057690  30.5653460
  15.4380680  24.7130350  31.9558360   9.2576040  29.2473810  30.0531090
   9.7720710  29.1581820  30.8553520   8.4145120  29.5933510  30.3459000
  11.2330440  29.5329150  19.4815090  11.0731580  29.2432090  20.3796920
  11.0677150  28.7569280  18.9460320   3.7118820  29.3127680  21.2586710
   3.5361300  28.3963220  21.0454510   2.8574560  29.6714970  21.4984510
  10.9356570  27.0416710  18.0413090  10.2421730  27.0394000  17.3815370
  11.6779430  26.6176030  17.6107260  10.5006500  28.6679420  22.1161580
  10.9563450  27.8868800  22.4300200  10.8399020  29.3786240  22.6602760
  15.2483310  17.5978270  32.4486020  14.6327580  18.1057940  31.9201480
  14.9279730  16.6976600  32.3911960   3.0227820  13.5701640  24.3112890
   2.5795970  14.3511180  23.9797410   3.5812810  13.8931530  25.0183830
   7.3097630  16.4370160  29.9148210   6.8477000  16.6453180  30.7268150
   6.9075740  15.6229510  29.6118880  12.3102140  17.6579110  31.0444870
  11.4595730  17.3584860  31.3653940  12.1503930  17.9021120  30.1328690
   9.4051850  19.1580860  33.1443660   9.7305260  18.3244610  32.8045890
  10.1932180  19.6809380  33.2921990   6.1386640  13.1912340  19.1918720
   5.5140820  13.1872210  19.9172030   6.0516760  12.3243300  18.7954690
   5.0603720  14.1148970  26.1702490   5.3576050  15.0211800  26.0894510
   5.6089280  13.6267750  25.5562060   2.8142040  18.6935210  22.0394140
   2.5882960  18.4772380  22.9440760   2.0334570  19.1263670  21.6940110
  10.0439800  18.6998580  20.6384790   9.4448690  19.4234380  20.4548410
  10.5919410  18.6375360  19.8561240   5.2541250  19.5920790  32.7054410
   5.1584850  18.6515520  32.5554810   6.0973230  19.8135860  32.3102480
   8.6504670  17.3362120  22.6688070   9.0434240  17.6534320  21.8556760
   9.0121520  16.4574000  22.7832590   6.9596840  16.0869430  33.9284930
   6.2695160  15.8941630  34.5631020   7.7029140  16.3704070  34.4609230
   9.2359810  19.9267870  26.7638850   8.5040930  20.4354680  27.1128950
   8.8384150  19.1097850  26.4627630   5.6737200  16.6022070  25.1691340
   5.6773260  16.1612020  24.3195880   6.5688320  16.9239400  25.2763160
   5.7357350  17.6034150  18.1598100   5.8570170  17.5620630  19.1083920
   5.3505860  18.4658300  18.0044830   9.6985720  15.3801550  26.1761790
   9.7158460  15.8310200  27.0203640   9.4501300  14.4807190  26.3895230
   4.7478850  19.9135290  17.5581400   4.1795750  19.4653540  16.9317310
   5.4567850  20.2728070  17.0246550  13.1256470  12.7933730  32.0148170
  13.4502240  12.0623390  32.5406150  13.1612980  12.4747370  31.1129160
   5.9745170  20.6623850  26.9156750   6.3415300  20.1882420  27.6618090
   5.7850230  21.5365420  27.2565090   3.7644540  19.7032490  29.2340960
   3.4601610  20.5824470  29.4591320   4.7191000  19.7632280  29.2698400
   2.2926330  23.9093480  19.8307810   1.5188590  23.3691100  19.6706530
   3.0220960  23.3900090  19.4925570  13.0514310  22.9058840  25.6234200
  13.7713430  23.4014130  25.2330310  12.8496130  22.2276730  24.9788070
   8.5124250  14.2996800  19.7663590   7.6988860  13.8009970  19.6908900
   8.3186200  15.1395050  19.3499940   8.4333110  22.9767900  31.5103200
   8.3670420  22.0563570  31.2560790   7.8038250  23.0743340  32.2247840
  11.2272640  18.6716450  18.0625750  12.1152260  18.9833680  17.8877090
  11.1977730  17.7988700  17.6706330   2.3363730  23.5773860  23.4686620
   2.8542400  22.7742120  23.4143510   1.8847750  23.5153000  24.3103450
   7.2233230  24.8440140  18.7413920   7.5648930  25.5882370  18.2457240
   6.3945940  25.1571260  19.1038750   3.0221390  21.0019470  33.2651870
   2.7221530  21.1476650  32.3679690   3.7932630  20.4424760  33.1725260
   8.3649840  25.7988470  31.2607000   8.3794380  24.8669430  31.0425910
   7.6574940  25.8848230  31.8996770  13.4986910  19.9828290  17.5305610
  13.4150630  20.4142510  16.6802050  14.2181100  20.4426640  17.9632430
  14.5761050  22.4395810  30.6075580  13.8509240  23.0324590  30.4104970
  15.1036510  22.4319350  29.8088950  14.5274160  26.8370550  20.2587740
  13.8850320  26.1826170  20.5331460  14.1404820  27.2425640  19.4828410
  10.1060640  24.1655980  24.1059430  10.4584460  23.5684110  23.4460800
   9.2222970  23.8400210  24.2767680   6.1923920  24.9253670  21.5129840
   6.8795050  25.4722880  21.8937430   5.4056340  25.4694400  21.5479450
   5.4951130  21.9299700  21.1255200   5.9513910  22.7404950  21.3515390
   5.1439340  21.6122840  21.9573690   7.7983740  27.4406040  28.3547500
   8.4425960  27.6465420  29.0320920   8.1613180  26.6794440  27.9018350
   9.0715820  25.4438390  27.0724950   9.7138050  24.7431550  27.1857120
   9.5965170  26.2236830  26.8921840  12.9171540  25.7287010  16.7964090
  12.6909120  25.0117450  17.3888730  12.5267740  25.4799450  15.9585840
  10.8453440  26.2433290  30.2761010  11.1809680  26.8299980  30.9538930
   9.9253780  26.1126000  30.5058800  12.4987790  23.6458950  18.4578250
  12.2109490  24.1071640  19.2456130  13.2939960  23.1856720  18.7262470
   6.6742020  26.2924620  33.4449070   6.3538890  25.5733860  33.9894760
   6.0000380  26.9679690  33.5185130   4.7156190  27.1385070  18.3882220
   4.7066290  27.8714760  17.7726730   3.7954550  26.8916650  18.4809180
   9.8895620  16.5250780  28.8085870  10.2576440  15.7045990  29.1365440
   9.0293820  16.5852670  29.2241520  13.2557650  15.4807720  19.6173430
  12.6270810  15.5853390  18.9031660  12.7609570  15.7004500  20.4067310
   7.7015790  27.2013310  17.0507410   7.8027770  26.9977300  16.1209390
   6.8017530  26.9471590  17.2555190   5.2241680  17.7593670  21.0331310
   4.5157830  18.2280010  21.4744920   5.5086160  17.1015680  21.6676500
   6.8497610  19.1790370  29.0323840   7.3482860  19.6536190  29.6975690
   6.9920560  18.2553890  29.2393870   9.2557110  14.4844330  22.4727100
   9.1324890  14.5030460  21.5236610  10.2041670  14.5323270  22.5925500
   6.3433900  29.7199630  21.7455080   6.5975400  29.6821020  20.8234450
   5.3946380  29.5932960  21.7383330   3.4276700  16.0678750  18.4082020
   4.2767230  16.5048900  18.3422210   3.0607970  16.3799010  19.2354080
  14.0564470  15.3958330  29.8752230  13.5538070  16.1363730  30.2146040
  14.8721130  15.7842330  29.5589020  12.3486480  20.6391510  23.3213590
  11.4076620  20.6541740  23.4961280  12.6630550  19.8527470  23.7673890
   2.3268120  22.3211110  16.8817550   3.0931390  22.2092470  17.4442980
   2.4042810  21.6249080  16.2294320  14.3512060  27.8100360  24.9967850
  14.4759480  28.6331530  25.4691660  15.2177620  27.5991090  24.6492000
   1.8229590  29.9031570  24.6684980   2.5592070  29.3547030  24.9393550
   2.2070510  30.7687580  24.5290970   4.9331900  29.0761880  16.4910550
   5.7260510  29.3650710  16.0392340   4.4136250  28.6454050  15.8123030
   9.6652500  25.1957510  33.8045970   9.0590660  25.2189110  33.0641720
   9.3606610  24.4640550  34.3413220  11.0952870  28.9237800  32.4155380
  12.0474620  28.8395820  32.3655620  10.9481090  29.5879510  33.0889170
  13.9862070  28.3032010  17.9147290  13.7003580  27.8897150  17.1001470
  13.7881620  29.2319720  17.7947810   5.4509300  24.2965290  16.3552900
   5.3459940  23.6817640  17.0814280   5.2833520  23.7731180  15.5715910
   5.6023620  22.9822090  32.3342130   4.8369290  23.5507090  32.2496800
   5.7839580  22.6898300  31.4410360   8.6912030  23.3585320  16.9594890
   8.1422130  23.8054620  17.6037630   9.3131290  22.8534570  17.4832560
  12.7446970  24.7127420  32.8917150  13.4856440  25.0503180  32.3884610
  11.9819650  24.8819480  32.3386920   4.3587150  22.3176240  18.8560190
   4.7803570  22.1516110  19.6991580   4.4837990  21.5076470  18.3615330
   2.5214570  18.2972790  31.6631170   1.9911030  17.8063740  31.0354510
   3.1902640  18.7256990  31.1289100   6.8714790  21.3413850  16.1037290
   7.3920450  20.6262870  15.7378440   7.5183190  21.9799720  16.4037800
  11.4192630  22.7642250  31.4272360  11.8333650  22.9187330  32.2762780
  10.4843630  22.8897470  31.5898140  11.8914800  20.1038410  33.4311510
  12.4735570  19.3490730  33.3431990  12.0676570  20.6345850  32.6542990
   3.0086870  15.2635160  31.7428460   2.9143740  14.6455910  31.0179330
   2.4284260  15.9901450  31.5158370   5.7748310  13.8208400  28.7755850
   5.3265610  13.8432660  27.9301400   5.1413510  13.4227420  29.3726150
   6.1807860  22.7162730  29.3968290   6.5995970  23.5595460  29.2244530
   5.2616490  22.8534770  29.1675070   8.5171760  20.4478910  30.7806130
   8.6367970  19.8520050  31.5200970   9.3765760  20.4848600  30.3607430
  10.8559660  21.0016100  29.3568640  10.3294880  21.5258720  28.7533780
  11.1991000  21.6343490  29.9878370   3.2546050  18.3909470  15.8018350
   3.0535110  17.5276830  16.1631690   3.0838100  18.3042830  14.8639950
   4.0315280  29.0215740  30.5126020   3.4936370  29.7461800  30.1934720
   4.2849240  28.5446080  29.7223360   5.2840530  16.9900260  32.0381950
   5.8740220  16.6816110  32.7259770   4.4660770  16.5180010  32.1941850
  10.1033960  16.6066070  32.2714970   9.4149480  15.9447610  32.2064960
  10.8239980  16.1604340  32.7163430  10.7334360  13.2017700  18.3305230
  11.0136650  12.3585600  18.6864650   9.9600090  13.4340810  18.8443980
   2.0528850  15.4910090  15.7896230   2.3554750  15.4977520  14.8815380
   2.7923440  15.1407950  16.2863890   6.8877490  30.2566950  30.7712670
   6.8136190  31.1602090  31.0785040   5.9856330  29.9378850  30.7434740
   5.2713780  14.4344710  16.7752430   4.9235780  13.7568700  16.1954880
   5.4726550  13.9734220  17.5895820   7.4362820  29.4225460  18.3939030
   8.3313610  29.7610430  18.4157790   7.4680450  28.7004870  17.7663310
   2.8866700  25.9150550  21.7348260   2.5862240  25.7915520  22.6352170
   2.7804190  25.0559140  21.3263990  14.4157170  27.9529130  31.1005230
  13.8159160  28.0121690  30.3569150  14.5451070  27.0134110  31.2302080
  15.6558620  25.6946950  16.4374940  14.8251580  25.7623600  16.9082170
  15.8330450  26.5851070  16.1341800  15.1115080  22.4394430  18.9409140
  15.8733990  23.0091080  19.0468830  15.1269450  21.8721630  19.7117450
  16.1175050  23.2944530  23.7851070  16.4883880  22.5111850  23.3787040
  16.7576980  23.9833630  23.6068370  13.1008810  24.6781110  29.1981390
  12.2868650  25.1078270  29.4607180  13.5083010  25.2899520  28.5850440
  15.1634250  22.7328800  16.0981660  15.4383090  23.6407680  15.9700880
  14.9744990  22.6691330  17.0343650  11.5609860  15.7573650  17.3935290
  11.9794740  15.5704630  16.5531950  11.2545920  14.9052700  17.7038220
  15.0599590  20.6697790  21.0911090  14.6843190  19.9025720  20.6592380
  14.3302710  21.0520490  21.5786020  14.4499210  19.8169310  30.7250610
  14.2185300  19.5882060  29.8248560  14.7103760  20.7368860  30.6795500
  12.8887280  15.0425740  33.5030310  13.7657460  15.0509140  33.8864310
  12.9008120  14.3056580  32.8922660  14.3350550  18.8955280  24.3918330
  14.8588030  18.4017930  23.7608500  14.9209970  19.0305640  25.1365900
  14.5140270  18.9795150  27.9137880  13.5642980  18.9458690  28.0282870
  14.6953280  19.8895260  27.6787650  13.8250520  18.1528630  20.3310740
  14.3209640  17.9199500  21.1159620  13.6266590  17.3140470  19.9148380
  15.2537680  16.7889580  22.8648420  15.1436960  16.6345620  23.8030690
  16.0145270  16.2610520  22.6223830  13.6003400  12.7283710  29.3231420
  14.2375620  13.3417850  29.6890610  13.7478290  12.7644370  28.3780650
  16.1427950  14.6197500  16.1054560  17.0677260  14.4878680  15.8972850
  16.1203740  14.6990320  17.0591010  16.2166440  15.3908160  18.7311270
  15.4217940  15.3253280  19.2604180  16.4209720  16.3258800  18.7196620
  13.1584860  29.4299710  22.7249660  13.7543930  29.1084280  22.0484080
  13.4163010  28.9571530  23.5162930   4.7653460  27.4177210  28.4750010
   4.5244820  27.6851770  27.5880530   5.7056100  27.5882940  28.5300870
   6.9707880  13.8809900  32.2306520   6.9096770  14.4731730  32.9801930
   7.9108260  13.7735860  32.0856780   9.6082440  13.5379960  31.8698810
  10.2222850  13.8559250  31.2079890  10.1532000  13.0528550  32.4894670
  10.3490480  12.1012100  28.1968100   9.4750320  12.4347210  27.9941030
  10.2401230  11.6285280  29.0219970  11.2562460  14.3082970  29.5809820
  10.9275820  13.4934730  29.2011550  12.2044760  14.2652780  29.4575510
   4.1392790  28.3883250  25.7295520   4.6557810  27.7770610  25.2043780
   4.7890170  28.8912030  26.2206530   6.8788290  29.2791740  26.5564500
   7.1666100  29.0246040  25.6797510   7.3911510  28.7269100  27.1470070
   8.0965300  13.0181940  27.1361010   7.3137090  13.4927440  27.4157770
   7.8028230  12.1136770  27.0274190  12.6486370  13.7205040  25.1810100
  13.0894460  13.6650140  24.3331700  12.3793960  14.6363050  25.2520280
  14.5124940  13.3520280  23.1918920  14.4513340  12.4081500  23.0449940
  15.2916970  13.4600370  23.7372380   5.9819520  15.4368690  22.6477040
   5.1694030  15.0625580  22.3072920   6.4861160  14.6813770  22.9498230
  10.4844500  12.1011140  23.8860110  11.0873870  12.6731350  24.3608630
   9.7437490  12.6650580  23.6634010  13.6279100  12.5032700  19.1600390
  13.8229730  13.4016150  19.4267820  12.8408970  12.2719780  19.6533340
   1.8130860  13.8493470  18.1976700   2.3423620  13.0623270  18.0684650
   2.4459180  14.5284660  18.4312230   4.0068700  13.5868610  21.2522090
   3.3771440  12.8855920  21.4192220   3.4673840  14.3472740  21.0355250
   6.9460650  30.2007840  33.9232700   7.8727960  29.9652110  33.9668660
   6.9311080  31.0279840  33.4418730  15.1805710  29.7433410  20.9206950
  15.3557900  29.0571150  20.2767870  14.4827280  30.2680460  20.5283620
   4.1324260  12.8652590  33.6874580   3.8508530  13.3686190  32.9235400
   4.5143960  12.0674340  33.3216710   3.0233360  30.1328250  18.4742260
   3.7552180  29.8487530  17.9266150   3.2827030  29.8941530  19.3641640
   2.1848150  26.2492980  18.4788590   1.5557030  26.7178080  19.0274420
   2.2995980  25.4042200  18.9134780  10.7339720  12.2806170  34.2655050
  10.6205170  12.6000780  35.1606570  11.5509460  12.6818680  33.9692330
  13.5138210  29.4277700  33.7473740  14.3063530  28.9326930  33.5399700
  13.8071360  30.1067840  34.3549350   9.6397870  20.2998640   4.6289790
   9.5591920  19.3853250   4.3581500   9.2262290  20.7965710   3.9229500
   7.7715910  22.0777660   6.5099060   6.9958010  21.5978100   6.7997630
   8.4228840  21.3983310   6.3355220  11.7923340  26.4837850   5.2898190
  11.3304870  25.7125090   5.6185360  12.6048890  26.5103920   5.7950640
   1.7683000  26.4237560   7.5832840   2.0711040  25.5335300   7.4043060
   2.5126590  26.9807780   7.3555090   8.0186650  28.7695860   4.9102180
   7.3998090  29.2253360   4.3396620   8.8738430  28.9247320   4.5091880
   7.2124900  24.7534850   6.5169220   7.1433180  23.8124790   6.3558350
   7.9744760  24.8436260   7.0891790   8.2430070  17.5605230   6.7438150
   8.6194890  16.6877110   6.6311820   8.1449580  17.8963930   5.8528590
   2.3735080  15.9330860   2.2055590   2.4801830  16.8334590   2.5124350
   1.4627440  15.8848830   1.9150240  12.0254190  15.0555670   3.6766490
  12.8463810  14.5652240   3.7191970  12.0588270  15.6453330   4.4298330
   4.2142810  18.9017230   6.5380770   4.7221030  19.3998200   7.1785790
   4.7456050  18.1252430   6.3620130  16.3153740  17.0722420  10.2410120
  15.6105910  17.4604130   9.7225230  16.5811660  17.7672710  10.8431050
   2.4978910  13.5415790  10.8044190   2.4997350  14.0588180   9.9990090
   1.6683220  13.0645970  10.7814120   8.8850000  23.6535100   2.3034090
   8.2667270  24.1184550   1.7396810   9.3973250  24.3462580   2.7203600
   3.7481760  23.1810970   8.9817690   3.4151140  23.8079890   9.6238760
   3.9248440  23.7072850   8.2019360  12.2615670  16.9956050   6.4494030
  11.5571240  17.2840940   7.0297140  12.6227830  17.8056160   6.0893590
   2.1794240  15.2525750   8.8114640   2.5211050  16.0967800   8.5168510
   1.2410050  15.4009490   8.9279980   2.9600860  25.1491770  10.7966870
   3.5774860  25.8242850  10.5151320   2.0993980  25.5579750  10.7054370
  13.8778450  26.6131180   8.7121510  13.1941970  27.2830290   8.7038180
  14.4172740  26.8111830   7.9466370  15.3302590  16.4410840   6.8403240
  14.3827500  16.4749820   6.9718670  15.6552580  17.2549790   7.2252600
   5.8622130  12.7408020   5.1359230   6.1697110  12.1854910   4.4194730
   4.9322830  12.8752480   4.9532220  11.4137190  28.4575310   7.4266690
  11.4264350  28.0537600   6.5588950  10.8612410  29.2322600   7.3228120
  12.7082610  25.1791530   2.5156860  12.5978940  24.2365860   2.6406280
  12.7050860  25.5407170   3.4019620  10.8122630  23.3605150   8.7549300
  11.2291420  23.1465260   7.9202760  11.5362450  23.6177940   9.3257920
   8.2502890  20.8056850   1.8719350   7.3232170  20.7394230   2.1007820
   8.4027710  21.7436980   1.7574590  14.7584730  21.7592370   8.8465540
  13.9303360  21.8285460   8.3715670  15.3535210  22.3446680   8.3781370
  12.2800180  22.3677150   2.3754600  11.6612600  22.0296700   1.7280900
  12.2624630  21.7236910   3.0833790  11.7226740  18.5461690   9.7920410
  11.3097920  19.3715400  10.0460400  10.9902690  17.9606730   9.5996770
   3.8559530  21.3321590   4.6539080   3.4516530  20.6198840   4.1584980
   3.9422650  20.9874830   5.5427120   4.3241230  25.0189150   6.8178290
   4.0269520  24.4134620   6.1386070   5.2741050  25.0566460   6.7067650
   2.5688150  18.1064800   8.4338120   3.1202740  18.2160140   7.6591370
   3.0831660  18.4802400   9.1493350  12.4126840  28.5921020  10.4801390
  11.9357400  29.3993210  10.2874000  11.7288630  27.9399350  10.6327600
   3.4159660  24.7570840  13.4686090   2.5188190  24.9810810  13.7159490
   3.4412530  24.8805780  12.5197490   2.2430880  21.6284160  12.0443460
   2.1038650  22.5006960  12.4130860   1.3612240  21.2856970  11.8991400
   8.5660260  26.5460030   3.3508590   9.0056170  27.2884360   2.9363980
   8.5047150  26.7886600   4.2747550   4.0411230  27.5705860  14.2528610
   4.0126660  27.9748810  13.3857040   3.8776200  26.6416220  14.0900210
  15.9926050  28.3532960  15.5492780  16.4685770  28.8315850  16.2281860
  16.6133210  28.2850450  14.8238280  15.3959300  25.5445810  12.7092790
  15.5222360  25.3057690  11.7909970  15.4380680  24.7130350  13.1814870
   9.2576040  29.2473810  11.2787600   9.7720710  29.1581820  12.0810030
   8.4145120  29.5933510  11.5715510   3.7118820  29.3127680   2.4843220
   3.5361300  28.3963220   2.2711020   2.8574560  29.6714970   2.7241020
  10.5006500  28.6679420   3.3418090  10.9563450  27.8868800   3.6556710
  10.8399020  29.3786240   3.8859270  15.2483310  17.5978270  13.6742530
  14.6327580  18.1057940  13.1457990  14.9279730  16.6976600  13.6168470
   3.0227820  13.5701640   5.5369400   2.5795970  14.3511180   5.2053920
   3.5812810  13.8931530   6.2440340   7.3097630  16.4370160  11.1404720
   6.8477000  16.6453180  11.9524660   6.9075740  15.6229510  10.8375390
  12.3102140  17.6579110  12.2701380  11.4595730  17.3584860  12.5910450
  12.1503930  17.9021120  11.3585200   9.4051850  19.1580860  14.3700170
   9.7305260  18.3244610  14.0302400  10.1932180  19.6809380  14.5178500
   5.0603720  14.1148970   7.3959000   5.3576050  15.0211800   7.3151020
   5.6089280  13.6267750   6.7818570   2.8142040  18.6935210   3.2650650
   2.5882960  18.4772380   4.1697270   2.0334570  19.1263670   2.9196620
   5.2541250  19.5920790  13.9310920   5.1584850  18.6515520  13.7811320
   6.0973230  19.8135860  13.5358990   8.6504670  17.3362120   3.8944580
   9.0434240  17.6534320   3.0813270   9.0121520  16.4574000   4.0089100
   6.9596840  16.0869430  15.1541440   6.2695160  15.8941630  15.7887530
   7.7029140  16.3704070  15.6865740   9.2359810  19.9267870   7.9895360
   8.5040930  20.4354680   8.3385460   8.8384150  19.1097850   7.6884140
   5.6737200  16.6022070   6.3947850   5.6773260  16.1612020   5.5452390
   6.5688320  16.9239400   6.5019670   9.6985720  15.3801550   7.4018300
   9.7158460  15.8310200   8.2460150   9.4501300  14.4807190   7.6151740
  13.1256470  12.7933730  13.2404680  13.4502240  12.0623390  13.7662660
  13.1612980  12.4747370  12.3385670   5.9745170  20.6623850   8.1413260
   6.3415300  20.1882420   8.8874600   5.7850230  21.5365420   8.4821600
   3.7644540  19.7032490  10.4597470   3.4601610  20.5824470  10.6847830
   4.7191000  19.7632280  10.4954910  13.0514310  22.9058840   6.8490710
  13.7713430  23.4014130   6.4586820  12.8496130  22.2276730   6.2044580
   8.4333110  22.9767900  12.7359710   8.3670420  22.0563570  12.4817300
   7.8038250  23.0743340  13.4504350   2.3363730  23.5773860   4.6943130
   2.8542400  22.7742120   4.6400020   1.8847750  23.5153000   5.5359960
   3.0221390  21.0019470  14.4908380   2.7221530  21.1476650  13.5936200
   3.7932630  20.4424760  14.3981770   8.3649840  25.7988470  12.4863510
   8.3794380  24.8669430  12.2682420   7.6574940  25.8848230  13.1253280
  14.5761050  22.4395810  11.8332090  13.8509240  23.0324590  11.6361480
  15.1036510  22.4319350  11.0345460  10.1060640  24.1655980   5.3315940
  10.4584460  23.5684110   4.6717310   9.2222970  23.8400210   5.5024190
   6.1923920  24.9253670   2.7386350   6.8795050  25.4722880   3.1193940
   5.4056340  25.4694400   2.7735960   5.4951130  21.9299700   2.3511710
   5.9513910  22.7404950   2.5771900   5.1439340  21.6122840   3.1830200
   7.7983740  27.4406040   9.5804010   8.4425960  27.6465420  10.2577430
   8.1613180  26.6794440   9.1274860   9.0715820  25.4438390   8.2981460
   9.7138050  24.7431550   8.4113630   9.5965170  26.2236830   8.1178350
  10.8453440  26.2433290  11.5017520  11.1809680  26.8299980  12.1795440
   9.9253780  26.1126000  11.7315310   6.6742020  26.2924620  14.6705580
   6.3538890  25.5733860  15.2151270   6.0000380  26.9679690  14.7441640
   9.8895620  16.5250780  10.0342380  10.2576440  15.7045990  10.3621950
   9.0293820  16.5852670  10.4498030   5.2241680  17.7593670   2.2587820
   4.5157830  18.2280010   2.7001430   5.5086160  17.1015680   2.8933010
   6.8497610  19.1790370  10.2580350   7.3482860  19.6536190  10.9232200
   6.9920560  18.2553890  10.4650380   9.2557110  14.4844330   3.6983610
   9.1324890  14.5030460   2.7493120  10.2041670  14.5323270   3.8182010
   6.3433900  29.7199630   2.9711590   6.5975400  29.6821020   2.0490960
   5.3946380  29.5932960   2.9639840  14.0564470  15.3958330  11.1008740
  13.5538070  16.1363730  11.4402550  14.8721130  15.7842330  10.7845530
  12.3486480  20.6391510   4.5470100  11.4076620  20.6541740   4.7217790
  12.6630550  19.8527470   4.9930400  14.3512060  27.8100360   6.2224360
  14.4759480  28.6331530   6.6948170  15.2177620  27.5991090   5.8748510
   1.8229590  29.9031570   5.8941490   2.5592070  29.3547030   6.1650060
   2.2070510  30.7687580   5.7547480   9.6652500  25.1957510  15.0302480
   9.0590660  25.2189110  14.2898230   9.3606610  24.4640550  15.5669730
  11.0952870  28.9237800  13.6411890  12.0474620  28.8395820  13.5912130
  10.9481090  29.5879510  14.3145680   5.6023620  22.9822090  13.5598640
   4.8369290  23.5507090  13.4753310   5.7839580  22.6898300  12.6666870
  12.7446970  24.7127420  14.1173660  13.4856440  25.0503180  13.6141120
  11.9819650  24.8819480  13.5643430   2.5214570  18.2972790  12.8887680
   1.9911030  17.8063740  12.2611020   3.1902640  18.7256990  12.3545610
  11.4192630  22.7642250  12.6528870  11.8333650  22.9187330  13.5019290
  10.4843630  22.8897470  12.8154650  11.8914800  20.1038410  14.6568020
  12.4735570  19.3490730  14.5688500  12.0676570  20.6345850  13.8799500
   3.0086870  15.2635160  12.9684970   2.9143740  14.6455910  12.2435840
   2.4284260  15.9901450  12.7414880   5.7748310  13.8208400  10.0012360
   5.3265610  13.8432660   9.1557910   5.1413510  13.4227420  10.5982660
   6.1807860  22.7162730  10.6224800   6.5995970  23.5595460  10.4501040
   5.2616490  22.8534770  10.3931580   8.5171760  20.4478910  12.0062640
   8.6367970  19.8520050  12.7457480   9.3765760  20.4848600  11.5863940
  10.8559660  21.0016100  10.5825150  10.3294880  21.5258720   9.9790290
  11.1991000  21.6343490  11.2134880   4.0315280  29.0215740  11.7382530
   3.4936370  29.7461800  11.4191230   4.2849240  28.5446080  10.9479870
   5.2840530  16.9900260  13.2638460   5.8740220  16.6816110  13.9516280
   4.4660770  16.5180010  13.4198360  10.1033960  16.6066070  13.4971480
   9.4149480  15.9447610  13.4321470  10.8239980  16.1604340  13.9419940
   6.8877490  30.2566950  11.9969180   6.8136190  31.1602090  12.3041550
   5.9856330  29.9378850  11.9691250   2.8866700  25.9150550   2.9604770
   2.5862240  25.7915520   3.8608680   2.7804190  25.0559140   2.5520500
  14.4157170  27.9529130  12.3261740  13.8159160  28.0121690  11.5825660
  14.5451070  27.0134110  12.4558590  16.1175050  23.2944530   5.0107580
  16.4883880  22.5111850   4.6043550  16.7576980  23.9833630   4.8324880
  13.1008810  24.6781110  10.4237900  12.2868650  25.1078270  10.6863690
  13.5083010  25.2899520   9.8106950  15.0599590  20.6697790   2.3167600
  14.6843190  19.9025720   1.8848890  14.3302710  21.0520490   2.8042530
  14.4499210  19.8169310  11.9507120  14.2185300  19.5882060  11.0505070
  14.7103760  20.7368860  11.9052010  12.8887280  15.0425740  14.7286820
  13.7657460  15.0509140  15.1120820  12.9008120  14.3056580  14.1179170
  14.3350550  18.8955280   5.6174840  14.8588030  18.4017930   4.9865010
  14.9209970  19.0305640   6.3622410  14.5140270  18.9795150   9.1394390
  13.5642980  18.9458690   9.2539380  14.6953280  19.8895260   8.9044160
  15.2537680  16.7889580   4.0904930  15.1436960  16.6345620   5.0287200
  16.0145270  16.2610520   3.8480340  13.6003400  12.7283710  10.5487930
  14.2375620  13.3417850  10.9147120  13.7478290  12.7644370   9.6037160
  13.1584860  29.4299710   3.9506170  13.7543930  29.1084280   3.2740590
  13.4163010  28.9571530   4.7419440   4.7653460  27.4177210   9.7006520
   4.5244820  27.6851770   8.8137040   5.7056100  27.5882940   9.7557380
   6.9707880  13.8809900  13.4563030   6.9096770  14.4731730  14.2058440
   7.9108260  13.7735860  13.3113290   9.6082440  13.5379960  13.0955320
  10.2222850  13.8559250  12.4336400  10.1532000  13.0528550  13.7151180
  16.0257620  29.4371590  10.5017160  15.5315900  29.8340460   9.7844290
  15.4170910  28.8120800  10.8954440  10.3490480  12.1012100   9.4224610
   9.4750320  12.4347210   9.2197540  10.2401230  11.6285280  10.2476480
  11.2562460  14.3082970  10.8066330  10.9275820  13.4934730  10.4268060
  12.2044760  14.2652780  10.6832020  13.7097070  30.0795010   7.7803900
  13.2500040  30.8310820   7.4061920  13.0809530  29.3601480   7.7218700
   4.1392790  28.3883250   6.9552030   4.6557810  27.7770610   6.4300290
   4.7890170  28.8912030   7.4463040   6.8788290  29.2791740   7.7821010
   7.1666100  29.0246040   6.9054020   7.3911510  28.7269100   8.3726580
   8.0965300  13.0181940   8.3617520   7.3137090  13.4927440   8.6414280
   7.8028230  12.1136770   8.2530700  12.6486370  13.7205040   6.4066610
  13.0894460  13.6650140   5.5588210  12.3793960  14.6363050   6.4776790
  14.5124940  13.3520280   4.4175430  14.4513340  12.4081500   4.2706450
  15.2916970  13.4600370   4.9628890   5.9819520  15.4368690   3.8733550
   5.1694030  15.0625580   3.5329430   6.4861160  14.6813770   4.1754740
  10.4844500  12.1011140   5.1116620  11.0873870  12.6731350   5.5865140
   9.7437490  12.6650580   4.8890520   4.0068700  13.5868610   2.4778600
   3.3771440  12.8855920   2.6448730   3.4673840  14.3472740   2.2611760
   6.9460650  30.2007840  15.1489210   7.8727960  29.9652110  15.1925170
   6.9311080  31.0279840  14.6675240  15.1805710  29.7433410   2.1463460
  15.3557900  29.0571150   1.5024380  14.4827280  30.2680460   1.7540130
   4.1324260  12.8652590  14.9131090   3.8508530  13.3686190  14.1491910
   4.5143960  12.0674340  14.5473220  10.7339720  12.2806170  15.4911560
  10.6205170  12.6000780  16.3863080  11.5509460  12.6818680  15.1948840
  13.5138210  29.4277700  14.9730250  14.3063530  28.9326930  14.7656210
  13.8071360  30.1067840  15.5805860   7.7715910   3.3034170 100.3816510
   6.9958010   2.8234610 100.6715080   8.4228840   2.6239820 100.2072670
  11.7923340   7.7094360  99.1615640  11.3304870   6.9381600  99.4902810
  12.6048890   7.7360430  99.6668090   1.7683000   7.6494070 101.4550290
   2.0711040   6.7591810 101.2760510   2.5126590   8.2064290 101.2272540
   8.0186650   9.9952370  98.7819630   7.3998090  10.4509870  98.2114070
   8.8738430  10.1503830  98.3809330   7.2124900   5.9791360 100.3886670
   7.1433180   5.0381300 100.2275800   7.9744760   6.0692770 100.9609240
   8.8850000   4.8791610  96.1751540   8.2667270   5.3441060  95.6114260
   9.3973250   5.5719090  96.5921050   3.7481760   4.4067480 102.8535140
   3.4151140   5.0336400 103.4956210   3.9248440   4.9329360 102.0736810
   2.9600860   6.3748280 104.6684320   3.5774860   7.0499360 104.3868770
   2.0993980   6.7836260 104.5771820  13.8778450   7.8387690 102.5838960
  13.1941970   8.5086800 102.5755630  14.4172740   8.0368340 101.8183820
  11.4137190   9.6831820 101.2984140  11.4264350   9.2794110 100.4306400
  10.8612410  10.4579110 101.1945570  12.7082610   6.4048040  96.3874310
  12.5978940   5.4622370  96.5123730  12.7050860   6.7663680  97.2737070
  10.8122630   4.5861660 102.6266750  11.2291420   4.3721770 101.7920210
  11.5362450   4.8434450 103.1975370   8.2502890   2.0313360  95.7436800
   7.3232170   1.9650740  95.9725270   8.4027710   2.9693490  95.6292040
  14.7584730   2.9848880 102.7182990  13.9303360   3.0541970 102.2433120
  15.3535210   3.5703190 102.2498820  12.2800180   3.5933660  96.2472050
  11.6612600   3.2553210  95.5998350  12.2624630   2.9493420  96.9551240
   3.8559530   2.5578100  98.5256530   3.4516530   1.8455350  98.0302430
   3.9422650   2.2131340  99.4144570   4.3241230   6.2445660 100.6895740
   4.0269520   5.6391130 100.0103520   5.2741050   6.2822970 100.5785100
  12.4126840   9.8177530 104.3518840  11.9357400  10.6249720 104.1591450
  11.7288630   9.1655860 104.5045050  10.4564880   2.8320470  93.2544800
  10.8958160   1.9942900  93.1082620  11.1693300   3.4649870  93.3408940
   8.5660260   7.7716540  97.2226040   9.0056170   8.5140870  96.8081430
   8.5047150   8.0143110  98.1465000  11.2330440  10.7585660  94.5789050
  11.0731580  10.4688600  95.4770880  11.0677150   9.9825790  94.0434280
   3.7118820  10.5384190  96.3560670   3.5361300   9.6219730  96.1428470
   2.8574560  10.8971480  96.5958470  10.9356570   8.2673220  93.1387050
  10.2421730   8.2650510  92.4789330  11.6779430   7.8432540  92.7081220
  10.5006500   9.8935930  97.2135540  10.9563450   9.1125310  97.5274160
  10.8399020  10.6042750  97.7576720   2.2926330   5.1349990  94.9281770
   1.5188590   4.5947610  94.7680490   3.0220960   4.6156600  94.5899530
  13.0514310   4.1315350 100.7208160  13.7713430   4.6270640 100.3304270
  12.8496130   3.4533240 100.0762030   2.3363730   4.8030370  98.5660580
   2.8542400   3.9998630  98.5117470   1.8847750   4.7409510  99.4077410
   7.2233230   6.0696650  93.8387880   7.5648930   6.8138880  93.3431200
   6.3945940   6.3827770  94.2012710  14.5274160   8.0627060  95.3561700
  13.8850320   7.4082680  95.6305420  14.1404820   8.4682150  94.5802370
  10.1060640   5.3912490  99.2033390  10.4584460   4.7940620  98.5434760
   9.2222970   5.0656720  99.3741640   6.1923920   6.1510180  96.6103800
   6.8795050   6.6979390  96.9911390   5.4056340   6.6950910  96.6453410
   5.4951130   3.1556210  96.2229160   5.9513910   3.9661460  96.4489350
   5.1439340   2.8379350  97.0547650   7.7983740   8.6662550 103.4521460
   8.4425960   8.8721930 104.1294880   8.1613180   7.9050950 102.9992310
   9.0715820   6.6694900 102.1698910   9.7138050   5.9688060 102.2831080
   9.5965170   7.4493340 101.9895800  12.9171540   6.9543520  91.8938050
  12.6909120   6.2373960  92.4862690  12.5267740   6.7055960  91.0559800
  12.4987790   4.8715460  93.5552210  12.2109490   5.3328150  94.3430090
  13.2939960   4.4113230  93.8236430   4.7156190   8.3641580  93.4856180
   4.7066290   9.0971270  92.8700690   3.7954550   8.1173160  93.5783140
   7.7015790   8.4269820  92.1481370   7.8027770   8.2233810  91.2183350
   6.8017530   8.1728100  92.3529150   6.3433900  10.9456140  96.8429040
   6.5975400  10.9077530  95.9208410   5.3946380  10.8189470  96.8357290
   2.3268120   3.5467620  91.9791510   3.0931390   3.4348980  92.5416940
   2.4042810   2.8505590  91.3268280  14.3512060   9.0356870 100.0941810
  14.4759480   9.8588040 100.5665620  15.2177620   8.8247600  99.7465960
   1.8229590  11.1288080  99.7658940   2.5592070  10.5803540 100.0367510
   2.2070510  11.9944090  99.6264930   4.9331900  10.3018390  91.5884510
   5.7260510  10.5907220  91.1366300   4.4136250   9.8710560  90.9096990
  13.9862070   9.5288520  93.0121250  13.7003580   9.1153660  92.1975430
  13.7881620  10.4576230  92.8921770   5.4509300   5.5221800  91.4526860
   5.3459940   4.9074150  92.1788240   5.2833520   4.9987690  90.6689870
   8.6912030   4.5841830  92.0568850   8.1422130   5.0311130  92.7011590
   9.3131290   4.0791080  92.5806520   4.3587150   3.5432750  93.9534150
   4.7803570   3.3772620  94.7965540   4.4837990   2.7332980  93.4589290
   6.8714790   2.5670360  91.2011250   7.3920450   1.8519380  90.8352400
   7.5183190   3.2056230  91.5011760   6.1807860   3.9419240 104.4942250
   6.5995970   4.7851970 104.3218490   5.2616490   4.0791280 104.2649030
   7.4362820  10.6481970  93.4912990   8.3313610  10.9866940  93.5131750
   7.4680450   9.9261380  92.8637270   2.8866700   7.1407060  96.8322220
   2.5862240   7.0172030  97.7326130   2.7804190   6.2815650  96.4237950
  15.6558620   6.9203460  91.5348900  14.8251580   6.9880110  92.0056130
  15.8330450   7.8107580  91.2315760  15.1115080   3.6650940  94.0383100
  15.8733990   4.2347590  94.1442790  15.1269450   3.0978140  94.8091410
  16.1175050   4.5201040  98.8825030  16.4883880   3.7368360  98.4761000
  16.7576980   5.2090140  98.7042330  13.1008810   5.9037620 104.2955350
  12.2868650   6.3334780 104.5581140  13.5083010   6.5156030 103.6824400
  15.1634250   3.9585310  91.1955620  15.4383090   4.8664190  91.0674840
  14.9744990   3.8947840  92.1317610  13.1584860  10.6556220  97.8223620
  13.7543930  10.3340790  97.1458040  13.4163010  10.1828040  98.6136890
   4.7653460   8.6433720 103.5723970   4.5244820   8.9108280 102.6854490
   5.7056100   8.8139450 103.6274830  16.0257620  10.6628100 104.3734610
  15.5315900  11.0596970 103.6561740  15.4170910  10.0377310 104.7671890
  13.7097070  11.3051520 101.6521350  13.2500040  12.0567330 101.2779370
  13.0809530  10.5857990 101.5936150   4.1392790   9.6139760 100.8269480
   4.6557810   9.0027120 100.3017740   4.7890170  10.1168540 101.3180490
   6.8788290  10.5048250 101.6538460   7.1666100  10.2502550 100.7771470
   7.3911510   9.9525610 102.2444030  15.1805710  10.9689920  96.0180910
  15.3557900  10.2827660  95.3741830  14.4827280  11.4936970  95.6257580
   3.0233360  11.3584760  93.5716220   3.7552180  11.0744040  93.0240110
   3.2827030  11.1198040  94.4615600   2.1848150   7.4749490  93.5762550
   1.5557030   7.9434590  94.1248380   2.2995980   6.6298710  94.0108740
   7.7715910   3.3034170  81.6073020   6.9958010   2.8234610  81.8971590
   8.4228840   2.6239820  81.4329180  11.7923340   7.7094360  80.3872150
  11.3304870   6.9381600  80.7159320  12.6048890   7.7360430  80.8924600
   1.7683000   7.6494070  82.6806800   2.0711040   6.7591810  82.5017020
   2.5126590   8.2064290  82.4529050   8.0186650   9.9952370  80.0076140
   7.3998090  10.4509870  79.4370580   8.8738430  10.1503830  79.6065840
   7.2124900   5.9791360  81.6143180   7.1433180   5.0381300  81.4532310
   7.9744760   6.0692770  82.1865750   8.8850000   4.8791610  77.4008050
   8.2667270   5.3441060  76.8370770   9.3973250   5.5719090  77.8177560
   3.7481760   4.4067480  84.0791650   3.4151140   5.0336400  84.7212720
   3.9248440   4.9329360  83.2993320   2.9600860   6.3748280  85.8940830
   3.5774860   7.0499360  85.6125280   2.0993980   6.7836260  85.8028330
  13.8778450   7.8387690  83.8095470  13.1941970   8.5086800  83.8012140
  14.4172740   8.0368340  83.0440330  11.4137190   9.6831820  82.5240650
  11.4264350   9.2794110  81.6562910  10.8612410  10.4579110  82.4202080
  12.7082610   6.4048040  77.6130820  12.5978940   5.4622370  77.7380240
  12.7050860   6.7663680  78.4993580  10.8122630   4.5861660  83.8523260
  11.2291420   4.3721770  83.0176720  11.5362450   4.8434450  84.4231880
   8.2502890   2.0313360  76.9693310   7.3232170   1.9650740  77.1981780
   8.4027710   2.9693490  76.8548550  14.7584730   2.9848880  83.9439500
  13.9303360   3.0541970  83.4689630  15.3535210   3.5703190  83.4755330
  12.2800180   3.5933660  77.4728560  11.6612600   3.2553210  76.8254860
  12.2624630   2.9493420  78.1807750   3.8559530   2.5578100  79.7513040
   3.4516530   1.8455350  79.2558940   3.9422650   2.2131340  80.6401080
   4.3241230   6.2445660  81.9152250   4.0269520   5.6391130  81.2360030
   5.2741050   6.2822970  81.8041610  12.4126840   9.8177530  85.5775350
  11.9357400  10.6249720  85.3847960  11.7288630   9.1655860  85.7301560
   3.4159660   5.9827350  88.5660050   2.5188190   6.2067320  88.8133450
   3.4412530   6.1062290  87.6171450  10.4564880   2.8320470  74.4801310
  10.8958160   1.9942900  74.3339130  11.1693300   3.4649870  74.5665450
   2.2430880   2.8540670  87.1417420   2.1038650   3.7263470  87.5104820
   1.3612240   2.5113480  86.9965360   8.5660260   7.7716540  78.4482550
   9.0056170   8.5140870  78.0337940   8.5047150   8.0143110  79.3721510
   4.0411230   8.7962370  89.3502570   4.0126660   9.2005320  88.4831000
   3.8776200   7.8672730  89.1874170  15.9926050   9.5789470  90.6466740
  16.4685770  10.0572360  91.3255820  16.6133210   9.5106960  89.9212240
  15.3959300   6.7702320  87.8066750  15.5222360   6.5314200  86.8883930
  15.4380680   5.9386860  88.2788830   9.2576040  10.4730320  86.3761560
   9.7720710  10.3838330  87.1783990   8.4145120  10.8190020  86.6689470
  11.2330440  10.7585660  75.8045560  11.0731580  10.4688600  76.7027390
  11.0677150   9.9825790  75.2690790   3.7118820  10.5384190  77.5817180
   3.5361300   9.6219730  77.3684980   2.8574560  10.8971480  77.8214980
  10.9356570   8.2673220  74.3643560  10.2421730   8.2650510  73.7045840
  11.6779430   7.8432540  73.9337730  10.5006500   9.8935930  78.4392050
  10.9563450   9.1125310  78.7530670  10.8399020  10.6042750  78.9833230
   2.2926330   5.1349990  76.1538280   1.5188590   4.5947610  75.9937000
   3.0220960   4.6156600  75.8156040  13.0514310   4.1315350  81.9464670
  13.7713430   4.6270640  81.5560780  12.8496130   3.4533240  81.3018540
   8.4333110   4.2024410  87.8333670   8.3670420   3.2820080  87.5791260
   7.8038250   4.2999850  88.5478310   2.3363730   4.8030370  79.7917090
   2.8542400   3.9998630  79.7373980   1.8847750   4.7409510  80.6333920
   7.2233230   6.0696650  75.0644390   7.5648930   6.8138880  74.5687710
   6.3945940   6.3827770  75.4269220   3.0221390   2.2275980  89.5882340
   2.7221530   2.3733160  88.6910160   3.7932630   1.6681270  89.4955730
   8.3649840   7.0244980  87.5837470   8.3794380   6.0925940  87.3656380
   7.6574940   7.1104740  88.2227240  14.5761050   3.6652320  86.9306050
  13.8509240   4.2581100  86.7335440  15.1036510   3.6575860  86.1319420
  14.5274160   8.0627060  76.5818210  13.8850320   7.4082680  76.8561930
  14.1404820   8.4682150  75.8058880  10.1060640   5.3912490  80.4289900
  10.4584460   4.7940620  79.7691270   9.2222970   5.0656720  80.5998150
   6.1923920   6.1510180  77.8360310   6.8795050   6.6979390  78.2167900
   5.4056340   6.6950910  77.8709920   5.4951130   3.1556210  77.4485670
   5.9513910   3.9661460  77.6745860   5.1439340   2.8379350  78.2804160
   7.7983740   8.6662550  84.6777970   8.4425960   8.8721930  85.3551390
   8.1613180   7.9050950  84.2248820   9.0715820   6.6694900  83.3955420
   9.7138050   5.9688060  83.5087590   9.5965170   7.4493340  83.2152310
  12.9171540   6.9543520  73.1194560  12.6909120   6.2373960  73.7119200
  12.5267740   6.7055960  72.2816310  10.8453440   7.4689800  86.5991480
  11.1809680   8.0556490  87.2769400   9.9253780   7.3382510  86.8289270
  12.4987790   4.8715460  74.7808720  12.2109490   5.3328150  75.5686600
  13.2939960   4.4113230  75.0492940   6.6742020   7.5181130  89.7679540
   6.3538890   6.7990370  90.3125230   6.0000380   8.1936200  89.8415600
   4.7156190   8.3641580  74.7112690   4.7066290   9.0971270  74.0957200
   3.7954550   8.1173160  74.8039650   7.7015790   8.4269820  73.3737880
   7.8027770   8.2233810  72.4439860   6.8017530   8.1728100  73.5785660
   6.3433900  10.9456140  78.0685550   6.5975400  10.9077530  77.1464920
   5.3946380  10.8189470  78.0613800   2.3268120   3.5467620  73.2048020
   3.0931390   3.4348980  73.7673450   2.4042810   2.8505590  72.5524790
  14.3512060   9.0356870  81.3198320  14.4759480   9.8588040  81.7922130
  15.2177620   8.8247600  80.9722470   1.8229590  11.1288080  80.9915450
   2.5592070  10.5803540  81.2624020   2.2070510  11.9944090  80.8521440
   4.9331900  10.3018390  72.8141020   5.7260510  10.5907220  72.3622810
   4.4136250   9.8710560  72.1353500   9.6652500   6.4214020  90.1276440
   9.0590660   6.4445620  89.3872190   9.3606610   5.6897060  90.6643690
  11.0952870  10.1494310  88.7385850  12.0474620  10.0652330  88.6886090
  10.9481090  10.8136020  89.4119640  13.9862070   9.5288520  74.2377760
  13.7003580   9.1153660  73.4231940  13.7881620  10.4576230  74.1178280
   5.4509300   5.5221800  72.6783370   5.3459940   4.9074150  73.4044750
   5.2833520   4.9987690  71.8946380   5.6023620   4.2078600  88.6572600
   4.8369290   4.7763600  88.5727270   5.7839580   3.9154810  87.7640830
   8.6912030   4.5841830  73.2825360   8.1422130   5.0311130  73.9268100
   9.3131290   4.0791080  73.8063030  12.7446970   5.9383930  89.2147620
  13.4856440   6.2759690  88.7115080  11.9819650   6.1075990  88.6617390
   4.3587150   3.5432750  75.1790660   4.7803570   3.3772620  76.0222050
   4.4837990   2.7332980  74.6845800   6.8714790   2.5670360  72.4267760
   7.3920450   1.8519380  72.0608910   7.5183190   3.2056230  72.7268270
  11.4192630   3.9898760  87.7502830  11.8333650   4.1443840  88.5993250
  10.4843630   4.1153980  87.9128610   6.1807860   3.9419240  85.7198760
   6.5995970   4.7851970  85.5475000   5.2616490   4.0791280  85.4905540
  10.8559660   2.2272610  85.6799110  10.3294880   2.7515230  85.0764250
  11.1991000   2.8600000  86.3108840   4.0315280  10.2472250  86.8356490
   3.4936370  10.9718310  86.5165190   4.2849240   9.7702590  86.0453830
   6.8877490  11.4823460  87.0943140   6.8136190  12.3858600  87.4015510
   5.9856330  11.1635360  87.0665210   7.4362820  10.6481970  74.7169500
   8.3313610  10.9866940  74.7388260   7.4680450   9.9261380  74.0893780
   2.8866700   7.1407060  78.0578730   2.5862240   7.0172030  78.9582640
   2.7804190   6.2815650  77.6494460  14.4157170   9.1785640  87.4235700
  13.8159160   9.2378200  86.6799620  14.5451070   8.2390620  87.5532550
  15.6558620   6.9203460  72.7605410  14.8251580   6.9880110  73.2312640
  15.8330450   7.8107580  72.4572270  15.1115080   3.6650940  75.2639610
  15.8733990   4.2347590  75.3699300  15.1269450   3.0978140  76.0347920
  16.1175050   4.5201040  80.1081540  16.4883880   3.7368360  79.7017510
  16.7576980   5.2090140  79.9298840  13.1008810   5.9037620  85.5211860
  12.2868650   6.3334780  85.7837650  13.5083010   6.5156030  84.9080910
  15.1634250   3.9585310  72.4212130  15.4383090   4.8664190  72.2931350
  14.9744990   3.8947840  73.3574120  13.1584860  10.6556220  79.0480130
  13.7543930  10.3340790  78.3714550  13.4163010  10.1828040  79.8393400
   4.7653460   8.6433720  84.7980480   4.5244820   8.9108280  83.9111000
   5.7056100   8.8139450  84.8531340  16.0257620  10.6628100  85.5991120
  15.5315900  11.0596970  84.8818250  15.4170910  10.0377310  85.9928400
  13.7097070  11.3051520  82.8777860  13.2500040  12.0567330  82.5035880
  13.0809530  10.5857990  82.8192660   4.1392790   9.6139760  82.0525990
   4.6557810   9.0027120  81.5274250   4.7890170  10.1168540  82.5437000
   6.8788290  10.5048250  82.8794970   7.1666100  10.2502550  82.0027980
   7.3911510   9.9525610  83.4700540   6.9460650  11.4264350  90.2463170
   7.8727960  11.1908620  90.2899130   6.9311080  12.2536350  89.7649200
  15.1805710  10.9689920  77.2437420  15.3557900  10.2827660  76.5998340
  14.4827280  11.4936970  76.8514090   3.0233360  11.3584760  74.7972730
   3.7552180  11.0744040  74.2496620   3.2827030  11.1198040  75.6872110
   2.1848150   7.4749490  74.8019060   1.5557030   7.9434590  75.3504890
   2.2995980   6.6298710  75.2365250  13.5138210  10.6534210  90.0704210
  14.3063530  10.1583440  89.8630170  13.8071360  11.3324350  90.6779820
   7.7715910   3.3034170  62.8329530   6.9958010   2.8234610  63.1228100
   8.4228840   2.6239820  62.6585690  11.7923340   7.7094360  61.6128660
  11.3304870   6.9381600  61.9415830  12.6048890   7.7360430  62.1181110
   1.7683000   7.6494070  63.9063310   2.0711040   6.7591810  63.7273530
   2.5126590   8.2064290  63.6785560   8.0186650   9.9952370  61.2332650
   7.3998090  10.4509870  60.6627090   8.8738430  10.1503830  60.8322350
   7.2124900   5.9791360  62.8399690   7.1433180   5.0381300  62.6788820
   7.9744760   6.0692770  63.4122260   8.8850000   4.8791610  58.6264560
   8.2667270   5.3441060  58.0627280   9.3973250   5.5719090  59.0434070
   3.7481760   4.4067480  65.3048160   3.4151140   5.0336400  65.9469230
   3.9248440   4.9329360  64.5249830   2.9600860   6.3748280  67.1197340
   3.5774860   7.0499360  66.8381790   2.0993980   6.7836260  67.0284840
  13.8778450   7.8387690  65.0351980  13.1941970   8.5086800  65.0268650
  14.4172740   8.0368340  64.2696840  11.4137190   9.6831820  63.7497160
  11.4264350   9.2794110  62.8819420  10.8612410  10.4579110  63.6458590
  12.7082610   6.4048040  58.8387330  12.5978940   5.4622370  58.9636750
  12.7050860   6.7663680  59.7250090  10.8122630   4.5861660  65.0779770
  11.2291420   4.3721770  64.2433230  11.5362450   4.8434450  65.6488390
   8.2502890   2.0313360  58.1949820   7.3232170   1.9650740  58.4238290
   8.4027710   2.9693490  58.0805060  14.7584730   2.9848880  65.1696010
  13.9303360   3.0541970  64.6946140  15.3535210   3.5703190  64.7011840
  12.2800180   3.5933660  58.6985070  11.6612600   3.2553210  58.0511370
  12.2624630   2.9493420  59.4064260   3.8559530   2.5578100  60.9769550
   3.4516530   1.8455350  60.4815450   3.9422650   2.2131340  61.8657590
   4.3241230   6.2445660  63.1408760   4.0269520   5.6391130  62.4616540
   5.2741050   6.2822970  63.0298120  12.4126840   9.8177530  66.8031860
  11.9357400  10.6249720  66.6104470  11.7288630   9.1655860  66.9558070
   3.4159660   5.9827350  69.7916560   2.5188190   6.2067320  70.0389960
   3.4412530   6.1062290  68.8427960  10.4564880   2.8320470  55.7057820
  10.8958160   1.9942900  55.5595640  11.1693300   3.4649870  55.7921960
   2.2430880   2.8540670  68.3673930   2.1038650   3.7263470  68.7361330
   1.3612240   2.5113480  68.2221870   8.5660260   7.7716540  59.6739060
   9.0056170   8.5140870  59.2594450   8.5047150   8.0143110  60.5978020
   4.0411230   8.7962370  70.5759080   4.0126660   9.2005320  69.7087510
   3.8776200   7.8672730  70.4130680  15.9926050   9.5789470  71.8723250
  16.4685770  10.0572360  72.5512330  16.6133210   9.5106960  71.1468750
  15.3959300   6.7702320  69.0323260  15.5222360   6.5314200  68.1140440
  15.4380680   5.9386860  69.5045340   9.2576040  10.4730320  67.6018070
   9.7720710  10.3838330  68.4040500   8.4145120  10.8190020  67.8945980
  11.2330440  10.7585660  57.0302070  11.0731580  10.4688600  57.9283900
  11.0677150   9.9825790  56.4947300   3.7118820  10.5384190  58.8073690
   3.5361300   9.6219730  58.5941490   2.8574560  10.8971480  59.0471490
  10.9356570   8.2673220  55.5900070  10.2421730   8.2650510  54.9302350
  11.6779430   7.8432540  55.1594240  10.5006500   9.8935930  59.6648560
  10.9563450   9.1125310  59.9787180  10.8399020  10.6042750  60.2089740
   2.2926330   5.1349990  57.3794790   1.5188590   4.5947610  57.2193510
   3.0220960   4.6156600  57.0412550  13.0514310   4.1315350  63.1721180
  13.7713430   4.6270640  62.7817290  12.8496130   3.4533240  62.5275050
   8.4333110   4.2024410  69.0590180   8.3670420   3.2820080  68.8047770
   7.8038250   4.2999850  69.7734820   2.3363730   4.8030370  61.0173600
   2.8542400   3.9998630  60.9630490   1.8847750   4.7409510  61.8590430
   7.2233230   6.0696650  56.2900900   7.5648930   6.8138880  55.7944220
   6.3945940   6.3827770  56.6525730   3.0221390   2.2275980  70.8138850
   2.7221530   2.3733160  69.9166670   3.7932630   1.6681270  70.7212240
   8.3649840   7.0244980  68.8093980   8.3794380   6.0925940  68.5912890
   7.6574940   7.1104740  69.4483750  14.5761050   3.6652320  68.1562560
  13.8509240   4.2581100  67.9591950  15.1036510   3.6575860  67.3575930
  14.5274160   8.0627060  57.8074720  13.8850320   7.4082680  58.0818440
  14.1404820   8.4682150  57.0315390  10.1060640   5.3912490  61.6546410
  10.4584460   4.7940620  60.9947780   9.2222970   5.0656720  61.8254660
   6.1923920   6.1510180  59.0616820   6.8795050   6.6979390  59.4424410
   5.4056340   6.6950910  59.0966430   5.4951130   3.1556210  58.6742180
   5.9513910   3.9661460  58.9002370   5.1439340   2.8379350  59.5060670
   7.7983740   8.6662550  65.9034480   8.4425960   8.8721930  66.5807900
   8.1613180   7.9050950  65.4505330   9.0715820   6.6694900  64.6211930
   9.7138050   5.9688060  64.7344100   9.5965170   7.4493340  64.4408820
  12.9171540   6.9543520  54.3451070  12.6909120   6.2373960  54.9375710
  12.5267740   6.7055960  53.5072820  10.8453440   7.4689800  67.8247990
  11.1809680   8.0556490  68.5025910   9.9253780   7.3382510  68.0545780
  12.4987790   4.8715460  56.0065230  12.2109490   5.3328150  56.7943110
  13.2939960   4.4113230  56.2749450   6.6742020   7.5181130  70.9936050
   6.3538890   6.7990370  71.5381740   6.0000380   8.1936200  71.0672110
   4.7156190   8.3641580  55.9369200   4.7066290   9.0971270  55.3213710
   3.7954550   8.1173160  56.0296160   7.7015790   8.4269820  54.5994390
   7.8027770   8.2233810  53.6696370   6.8017530   8.1728100  54.8042170
   6.3433900  10.9456140  59.2942060   6.5975400  10.9077530  58.3721430
   5.3946380  10.8189470  59.2870310   2.3268120   3.5467620  54.4304530
   3.0931390   3.4348980  54.9929960   2.4042810   2.8505590  53.7781300
  14.3512060   9.0356870  62.5454830  14.4759480   9.8588040  63.0178640
  15.2177620   8.8247600  62.1978980   1.8229590  11.1288080  62.2171960
   2.5592070  10.5803540  62.4880530   2.2070510  11.9944090  62.0777950
   4.9331900  10.3018390  54.0397530   5.7260510  10.5907220  53.5879320
   4.4136250   9.8710560  53.3610010   9.6652500   6.4214020  71.3532950
   9.0590660   6.4445620  70.6128700   9.3606610   5.6897060  71.8900200
  11.0952870  10.1494310  69.9642360  12.0474620  10.0652330  69.9142600
  10.9481090  10.8136020  70.6376150  13.9862070   9.5288520  55.4634270
  13.7003580   9.1153660  54.6488450  13.7881620  10.4576230  55.3434790
   5.4509300   5.5221800  53.9039880   5.3459940   4.9074150  54.6301260
   5.2833520   4.9987690  53.1202890   5.6023620   4.2078600  69.8829110
   4.8369290   4.7763600  69.7983780   5.7839580   3.9154810  68.9897340
   8.6912030   4.5841830  54.5081870   8.1422130   5.0311130  55.1524610
   9.3131290   4.0791080  55.0319540  12.7446970   5.9383930  70.4404130
  13.4856440   6.2759690  69.9371590  11.9819650   6.1075990  69.8873900
   4.3587150   3.5432750  56.4047170   4.7803570   3.3772620  57.2478560
   4.4837990   2.7332980  55.9102310   6.8714790   2.5670360  53.6524270
   7.3920450   1.8519380  53.2865420   7.5183190   3.2056230  53.9524780
  11.4192630   3.9898760  68.9759340  11.8333650   4.1443840  69.8249760
  10.4843630   4.1153980  69.1385120   6.1807860   3.9419240  66.9455270
   6.5995970   4.7851970  66.7731510   5.2616490   4.0791280  66.7162050
  10.8559660   2.2272610  66.9055620  10.3294880   2.7515230  66.3020760
  11.1991000   2.8600000  67.5365350   4.0315280  10.2472250  68.0613000
   3.4936370  10.9718310  67.7421700   4.2849240   9.7702590  67.2710340
   6.8877490  11.4823460  68.3199650   6.8136190  12.3858600  68.6272020
   5.9856330  11.1635360  68.2921720   7.4362820  10.6481970  55.9426010
   8.3313610  10.9866940  55.9644770   7.4680450   9.9261380  55.3150290
   2.8866700   7.1407060  59.2835240   2.5862240   7.0172030  60.1839150
   2.7804190   6.2815650  58.8750970  14.4157170   9.1785640  68.6492210
  13.8159160   9.2378200  67.9056130  14.5451070   8.2390620  68.7789060
  15.6558620   6.9203460  53.9861920  14.8251580   6.9880110  54.4569150
  15.8330450   7.8107580  53.6828780  15.1115080   3.6650940  56.4896120
  15.8733990   4.2347590  56.5955810  15.1269450   3.0978140  57.2604430
  16.1175050   4.5201040  61.3338050  16.4883880   3.7368360  60.9274020
  16.7576980   5.2090140  61.1555350  13.1008810   5.9037620  66.7468370
  12.2868650   6.3334780  67.0094160  13.5083010   6.5156030  66.1337420
  15.1634250   3.9585310  53.6468640  15.4383090   4.8664190  53.5187860
  14.9744990   3.8947840  54.5830630  13.1584860  10.6556220  60.2736640
  13.7543930  10.3340790  59.5971060  13.4163010  10.1828040  61.0649910
   4.7653460   8.6433720  66.0236990   4.5244820   8.9108280  65.1367510
   5.7056100   8.8139450  66.0787850  16.0257620  10.6628100  66.8247630
  15.5315900  11.0596970  66.1074760  15.4170910  10.0377310  67.2184910
  13.7097070  11.3051520  64.1034370  13.2500040  12.0567330  63.7292390
  13.0809530  10.5857990  64.0449170   4.1392790   9.6139760  63.2782500
   4.6557810   9.0027120  62.7530760   4.7890170  10.1168540  63.7693510
   6.8788290  10.5048250  64.1051480   7.1666100  10.2502550  63.2284490
   7.3911510   9.9525610  64.6957050   6.9460650  11.4264350  71.4719680
   7.8727960  11.1908620  71.5155640   6.9311080  12.2536350  70.9905710
  15.1805710  10.9689920  58.4693930  15.3557900  10.2827660  57.8254850
  14.4827280  11.4936970  58.0770600   3.0233360  11.3584760  56.0229240
   3.7552180  11.0744040  55.4753130   3.2827030  11.1198040  56.9128620
   2.1848150   7.4749490  56.0275570   1.5557030   7.9434590  56.5761400
   2.2995980   6.6298710  56.4621760  13.5138210  10.6534210  71.2960720
  14.3063530  10.1583440  71.0886680  13.8071360  11.3324350  71.9036330
   7.7715910   3.3034170  44.0586040   6.9958010   2.8234610  44.3484610
   8.4228840   2.6239820  43.8842200  11.7923340   7.7094360  42.8385170
  11.3304870   6.9381600  43.1672340  12.6048890   7.7360430  43.3437620
   1.7683000   7.6494070  45.1319820   2.0711040   6.7591810  44.9530040
   2.5126590   8.2064290  44.9042070   8.0186650   9.9952370  42.4589160
   7.3998090  10.4509870  41.8883600   8.8738430  10.1503830  42.0578860
   7.2124900   5.9791360  44.0656200   7.1433180   5.0381300  43.9045330
   7.9744760   6.0692770  44.6378770   8.8850000   4.8791610  39.8521070
   8.2667270   5.3441060  39.2883790   9.3973250   5.5719090  40.2690580
   3.7481760   4.4067480  46.5304670   3.4151140   5.0336400  47.1725740
   3.9248440   4.9329360  45.7506340   2.9600860   6.3748280  48.3453850
   3.5774860   7.0499360  48.0638300   2.0993980   6.7836260  48.2541350
  13.8778450   7.8387690  46.2608490  13.1941970   8.5086800  46.2525160
  14.4172740   8.0368340  45.4953350  11.4137190   9.6831820  44.9753670
  11.4264350   9.2794110  44.1075930  10.8612410  10.4579110  44.8715100
  12.7082610   6.4048040  40.0643840  12.5978940   5.4622370  40.1893260
  12.7050860   6.7663680  40.9506600  10.8122630   4.5861660  46.3036280
  11.2291420   4.3721770  45.4689740  11.5362450   4.8434450  46.8744900
   8.2502890   2.0313360  39.4206330   7.3232170   1.9650740  39.6494800
   8.4027710   2.9693490  39.3061570  14.7584730   2.9848880  46.3952520
  13.9303360   3.0541970  45.9202650  15.3535210   3.5703190  45.9268350
  12.2800180   3.5933660  39.9241580  11.6612600   3.2553210  39.2767880
  12.2624630   2.9493420  40.6320770   3.8559530   2.5578100  42.2026060
   3.4516530   1.8455350  41.7071960   3.9422650   2.2131340  43.0914100
   4.3241230   6.2445660  44.3665270   4.0269520   5.6391130  43.6873050
   5.2741050   6.2822970  44.2554630  12.4126840   9.8177530  48.0288370
  11.9357400  10.6249720  47.8360980  11.7288630   9.1655860  48.1814580
   3.4159660   5.9827350  51.0173070   2.5188190   6.2067320  51.2646470
   3.4412530   6.1062290  50.0684470  10.4564880   2.8320470  36.9314330
  10.8958160   1.9942900  36.7852150  11.1693300   3.4649870  37.0178470
   2.2430880   2.8540670  49.5930440   2.1038650   3.7263470  49.9617840
   1.3612240   2.5113480  49.4478380   8.5660260   7.7716540  40.8995570
   9.0056170   8.5140870  40.4850960   8.5047150   8.0143110  41.8234530
   4.0411230   8.7962370  51.8015590   4.0126660   9.2005320  50.9344020
   3.8776200   7.8672730  51.6387190  15.9926050   9.5789470  53.0979760
  16.4685770  10.0572360  53.7768840  16.6133210   9.5106960  52.3725260
  15.3959300   6.7702320  50.2579770  15.5222360   6.5314200  49.3396950
  15.4380680   5.9386860  50.7301850   9.2576040  10.4730320  48.8274580
   9.7720710  10.3838330  49.6297010   8.4145120  10.8190020  49.1202490
  11.2330440  10.7585660  38.2558580  11.0731580  10.4688600  39.1540410
  11.0677150   9.9825790  37.7203810   3.7118820  10.5384190  40.0330200
   3.5361300   9.6219730  39.8198000   2.8574560  10.8971480  40.2728000
  10.9356570   8.2673220  36.8156580  10.2421730   8.2650510  36.1558860
  11.6779430   7.8432540  36.3850750  10.5006500   9.8935930  40.8905070
  10.9563450   9.1125310  41.2043690  10.8399020  10.6042750  41.4346250
   2.2926330   5.1349990  38.6051300   1.5188590   4.5947610  38.4450020
   3.0220960   4.6156600  38.2669060  13.0514310   4.1315350  44.3977690
  13.7713430   4.6270640  44.0073800  12.8496130   3.4533240  43.7531560
   8.4333110   4.2024410  50.2846690   8.3670420   3.2820080  50.0304280
   7.8038250   4.2999850  50.9991330   2.3363730   4.8030370  42.2430110
   2.8542400   3.9998630  42.1887000   1.8847750   4.7409510  43.0846940
   7.2233230   6.0696650  37.5157410   7.5648930   6.8138880  37.0200730
   6.3945940   6.3827770  37.8782240   3.0221390   2.2275980  52.0395360
   2.7221530   2.3733160  51.1423180   3.7932630   1.6681270  51.9468750
   8.3649840   7.0244980  50.0350490   8.3794380   6.0925940  49.8169400
   7.6574940   7.1104740  50.6740260  14.5761050   3.6652320  49.3819070
  13.8509240   4.2581100  49.1848460  15.1036510   3.6575860  48.5832440
  14.5274160   8.0627060  39.0331230  13.8850320   7.4082680  39.3074950
  14.1404820   8.4682150  38.2571900  10.1060640   5.3912490  42.8802920
  10.4584460   4.7940620  42.2204290   9.2222970   5.0656720  43.0511170
   6.1923920   6.1510180  40.2873330   6.8795050   6.6979390  40.6680920
   5.4056340   6.6950910  40.3222940   5.4951130   3.1556210  39.8998690
   5.9513910   3.9661460  40.1258880   5.1439340   2.8379350  40.7317180
   7.7983740   8.6662550  47.1290990   8.4425960   8.8721930  47.8064410
   8.1613180   7.9050950  46.6761840   9.0715820   6.6694900  45.8468440
   9.7138050   5.9688060  45.9600610   9.5965170   7.4493340  45.6665330
  12.9171540   6.9543520  35.5707580  12.6909120   6.2373960  36.1632220
  12.5267740   6.7055960  34.7329330  10.8453440   7.4689800  49.0504500
  11.1809680   8.0556490  49.7282420   9.9253780   7.3382510  49.2802290
  12.4987790   4.8715460  37.2321740  12.2109490   5.3328150  38.0199620
  13.2939960   4.4113230  37.5005960   6.6742020   7.5181130  52.2192560
   6.3538890   6.7990370  52.7638250   6.0000380   8.1936200  52.2928620
   4.7156190   8.3641580  37.1625710   4.7066290   9.0971270  36.5470220
   3.7954550   8.1173160  37.2552670   7.7015790   8.4269820  35.8250900
   7.8027770   8.2233810  34.8952880   6.8017530   8.1728100  36.0298680
   6.3433900  10.9456140  40.5198570   6.5975400  10.9077530  39.5977940
   5.3946380  10.8189470  40.5126820   2.3268120   3.5467620  35.6561040
   3.0931390   3.4348980  36.2186470   2.4042810   2.8505590  35.0037810
  14.3512060   9.0356870  43.7711340  14.4759480   9.8588040  44.2435150
  15.2177620   8.8247600  43.4235490   1.8229590  11.1288080  43.4428470
   2.5592070  10.5803540  43.7137040   2.2070510  11.9944090  43.3034460
   4.9331900  10.3018390  35.2654040   5.7260510  10.5907220  34.8135830
   4.4136250   9.8710560  34.5866520   9.6652500   6.4214020  52.5789460
   9.0590660   6.4445620  51.8385210   9.3606610   5.6897060  53.1156710
  11.0952870  10.1494310  51.1898870  12.0474620  10.0652330  51.1399110
  10.9481090  10.8136020  51.8632660  13.9862070   9.5288520  36.6890780
  13.7003580   9.1153660  35.8744960  13.7881620  10.4576230  36.5691300
   5.4509300   5.5221800  35.1296390   5.3459940   4.9074150  35.8557770
   5.2833520   4.9987690  34.3459400   5.6023620   4.2078600  51.1085620
   4.8369290   4.7763600  51.0240290   5.7839580   3.9154810  50.2153850
   8.6912030   4.5841830  35.7338380   8.1422130   5.0311130  36.3781120
   9.3131290   4.0791080  36.2576050  12.7446970   5.9383930  51.6660640
  13.4856440   6.2759690  51.1628100  11.9819650   6.1075990  51.1130410
   4.3587150   3.5432750  37.6303680   4.7803570   3.3772620  38.4735070
   4.4837990   2.7332980  37.1358820   6.8714790   2.5670360  34.8780780
   7.3920450   1.8519380  34.5121930   7.5183190   3.2056230  35.1781290
  11.4192630   3.9898760  50.2015850  11.8333650   4.1443840  51.0506270
  10.4843630   4.1153980  50.3641630   6.1807860   3.9419240  48.1711780
   6.5995970   4.7851970  47.9988020   5.2616490   4.0791280  47.9418560
  10.8559660   2.2272610  48.1312130  10.3294880   2.7515230  47.5277270
  11.1991000   2.8600000  48.7621860   4.0315280  10.2472250  49.2869510
   3.4936370  10.9718310  48.9678210   4.2849240   9.7702590  48.4966850
   6.8877490  11.4823460  49.5456160   6.8136190  12.3858600  49.8528530
   5.9856330  11.1635360  49.5178230   7.4362820  10.6481970  37.1682520
   8.3313610  10.9866940  37.1901280   7.4680450   9.9261380  36.5406800
   2.8866700   7.1407060  40.5091750   2.5862240   7.0172030  41.4095660
   2.7804190   6.2815650  40.1007480  14.4157170   9.1785640  49.8748720
  13.8159160   9.2378200  49.1312640  14.5451070   8.2390620  50.0045570
  15.6558620   6.9203460  35.2118430  14.8251580   6.9880110  35.6825660
  15.8330450   7.8107580  34.9085290  15.1115080   3.6650940  37.7152630
  15.8733990   4.2347590  37.8212320  15.1269450   3.0978140  38.4860940
  16.1175050   4.5201040  42.5594560  16.4883880   3.7368360  42.1530530
  16.7576980   5.2090140  42.3811860  13.1008810   5.9037620  47.9724880
  12.2868650   6.3334780  48.2350670  13.5083010   6.5156030  47.3593930
  15.1634250   3.9585310  34.8725150  15.4383090   4.8664190  34.7444370
  14.9744990   3.8947840  35.8087140  13.1584860  10.6556220  41.4993150
  13.7543930  10.3340790  40.8227570  13.4163010  10.1828040  42.2906420
   4.7653460   8.6433720  47.2493500   4.5244820   8.9108280  46.3624020
   5.7056100   8.8139450  47.3044360  16.0257620  10.6628100  48.0504140
  15.5315900  11.0596970  47.3331270  15.4170910  10.0377310  48.4441420
  13.7097070  11.3051520  45.3290880  13.2500040  12.0567330  44.9548900
  13.0809530  10.5857990  45.2705680   4.1392790   9.6139760  44.5039010
   4.6557810   9.0027120  43.9787270   4.7890170  10.1168540  44.9950020
   6.8788290  10.5048250  45.3307990   7.1666100  10.2502550  44.4541000
   7.3911510   9.9525610  45.9213560   6.9460650  11.4264350  52.6976190
   7.8727960  11.1908620  52.7412150   6.9311080  12.2536350  52.2162220
  15.1805710  10.9689920  39.6950440  15.3557900  10.2827660  39.0511360
  14.4827280  11.4936970  39.3027110   3.0233360  11.3584760  37.2485750
   3.7552180  11.0744040  36.7009640   3.2827030  11.1198040  38.1385130
   2.1848150   7.4749490  37.2532080   1.5557030   7.9434590  37.8017910
   2.2995980   6.6298710  37.6878270  13.5138210  10.6534210  52.5217230
  14.3063530  10.1583440  52.3143190  13.8071360  11.3324350  53.1292840
   7.7715910   3.3034170  25.2842550   6.9958010   2.8234610  25.5741120
   8.4228840   2.6239820  25.1098710  11.7923340   7.7094360  24.0641680
  11.3304870   6.9381600  24.3928850  12.6048890   7.7360430  24.5694130
   1.7683000   7.6494070  26.3576330   2.0711040   6.7591810  26.1786550
   2.5126590   8.2064290  26.1298580   8.0186650   9.9952370  23.6845670
   7.3998090  10.4509870  23.1140110   8.8738430  10.1503830  23.2835370
   7.2124900   5.9791360  25.2912710   7.1433180   5.0381300  25.1301840
   7.9744760   6.0692770  25.8635280   8.8850000   4.8791610  21.0777580
   8.2667270   5.3441060  20.5140300   9.3973250   5.5719090  21.4947090
   3.7481760   4.4067480  27.7561180   3.4151140   5.0336400  28.3982250
   3.9248440   4.9329360  26.9762850   2.9600860   6.3748280  29.5710360
   3.5774860   7.0499360  29.2894810   2.0993980   6.7836260  29.4797860
  13.8778450   7.8387690  27.4865000  13.1941970   8.5086800  27.4781670
  14.4172740   8.0368340  26.7209860  11.4137190   9.6831820  26.2010180
  11.4264350   9.2794110  25.3332440  10.8612410  10.4579110  26.0971610
  12.7082610   6.4048040  21.2900350  12.5978940   5.4622370  21.4149770
  12.7050860   6.7663680  22.1763110  10.8122630   4.5861660  27.5292790
  11.2291420   4.3721770  26.6946250  11.5362450   4.8434450  28.1001410
   8.2502890   2.0313360  20.6462840   7.3232170   1.9650740  20.8751310
   8.4027710   2.9693490  20.5318080  14.7584730   2.9848880  27.6209030
  13.9303360   3.0541970  27.1459160  15.3535210   3.5703190  27.1524860
  12.2800180   3.5933660  21.1498090  11.6612600   3.2553210  20.5024390
  12.2624630   2.9493420  21.8577280   3.8559530   2.5578100  23.4282570
   3.4516530   1.8455350  22.9328470   3.9422650   2.2131340  24.3170610
   4.3241230   6.2445660  25.5921780   4.0269520   5.6391130  24.9129560
   5.2741050   6.2822970  25.4811140  12.4126840   9.8177530  29.2544880
  11.9357400  10.6249720  29.0617490  11.7288630   9.1655860  29.4071090
   3.4159660   5.9827350  32.2429580   2.5188190   6.2067320  32.4902980
   3.4412530   6.1062290  31.2940980  10.4564880   2.8320470  18.1570840
  10.8958160   1.9942900  18.0108660  11.1693300   3.4649870  18.2434980
   2.2430880   2.8540670  30.8186950   2.1038650   3.7263470  31.1874350
   1.3612240   2.5113480  30.6734890   8.5660260   7.7716540  22.1252080
   9.0056170   8.5140870  21.7107470   8.5047150   8.0143110  23.0491040
   4.0411230   8.7962370  33.0272100   4.0126660   9.2005320  32.1600530
   3.8776200   7.8672730  32.8643700  15.9926050   9.5789470  34.3236270
  16.4685770  10.0572360  35.0025350  16.6133210   9.5106960  33.5981770
  15.3959300   6.7702320  31.4836280  15.5222360   6.5314200  30.5653460
  15.4380680   5.9386860  31.9558360   9.2576040  10.4730320  30.0531090
   9.7720710  10.3838330  30.8553520   8.4145120  10.8190020  30.3459000
  11.2330440  10.7585660  19.4815090  11.0731580  10.4688600  20.3796920
  11.0677150   9.9825790  18.9460320   3.7118820  10.5384190  21.2586710
   3.5361300   9.6219730  21.0454510   2.8574560  10.8971480  21.4984510
  10.9356570   8.2673220  18.0413090  10.2421730   8.2650510  17.3815370
  11.6779430   7.8432540  17.6107260  10.5006500   9.8935930  22.1161580
  10.9563450   9.1125310  22.4300200  10.8399020  10.6042750  22.6602760
   2.2926330   5.1349990  19.8307810   1.5188590   4.5947610  19.6706530
   3.0220960   4.6156600  19.4925570  13.0514310   4.1315350  25.6234200
  13.7713430   4.6270640  25.2330310  12.8496130   3.4533240  24.9788070
   8.4333110   4.2024410  31.5103200   8.3670420   3.2820080  31.2560790
   7.8038250   4.2999850  32.2247840   2.3363730   4.8030370  23.4686620
   2.8542400   3.9998630  23.4143510   1.8847750   4.7409510  24.3103450
   7.2233230   6.0696650  18.7413920   7.5648930   6.8138880  18.2457240
   6.3945940   6.3827770  19.1038750   3.0221390   2.2275980  33.2651870
   2.7221530   2.3733160  32.3679690   3.7932630   1.6681270  33.1725260
   8.3649840   7.0244980  31.2607000   8.3794380   6.0925940  31.0425910
   7.6574940   7.1104740  31.8996770  14.5761050   3.6652320  30.6075580
  13.8509240   4.2581100  30.4104970  15.1036510   3.6575860  29.8088950
  14.5274160   8.0627060  20.2587740  13.8850320   7.4082680  20.5331460
  14.1404820   8.4682150  19.4828410  10.1060640   5.3912490  24.1059430
  10.4584460   4.7940620  23.4460800   9.2222970   5.0656720  24.2767680
   6.1923920   6.1510180  21.5129840   6.8795050   6.6979390  21.8937430
   5.4056340   6.6950910  21.5479450   5.4951130   3.1556210  21.1255200
   5.9513910   3.9661460  21.3515390   5.1439340   2.8379350  21.9573690
   7.7983740   8.6662550  28.3547500   8.4425960   8.8721930  29.0320920
   8.1613180   7.9050950  27.9018350   9.0715820   6.6694900  27.0724950
   9.7138050   5.9688060  27.1857120   9.5965170   7.4493340  26.8921840
  12.9171540   6.9543520  16.7964090  12.6909120   6.2373960  17.3888730
  12.5267740   6.7055960  15.9585840  10.8453440   7.4689800  30.2761010
  11.1809680   8.0556490  30.9538930   9.9253780   7.3382510  30.5058800
  12.4987790   4.8715460  18.4578250  12.2109490   5.3328150  19.2456130
  13.2939960   4.4113230  18.7262470   6.6742020   7.5181130  33.4449070
   6.3538890   6.7990370  33.9894760   6.0000380   8.1936200  33.5185130
   4.7156190   8.3641580  18.3882220   4.7066290   9.0971270  17.7726730
   3.7954550   8.1173160  18.4809180   7.7015790   8.4269820  17.0507410
   7.8027770   8.2233810  16.1209390   6.8017530   8.1728100  17.2555190
   6.3433900  10.9456140  21.7455080   6.5975400  10.9077530  20.8234450
   5.3946380  10.8189470  21.7383330   2.3268120   3.5467620  16.8817550
   3.0931390   3.4348980  17.4442980   2.4042810   2.8505590  16.2294320
  14.3512060   9.0356870  24.9967850  14.4759480   9.8588040  25.4691660
  15.2177620   8.8247600  24.6492000   1.8229590  11.1288080  24.6684980
   2.5592070  10.5803540  24.9393550   2.2070510  11.9944090  24.5290970
   4.9331900  10.3018390  16.4910550   5.7260510  10.5907220  16.0392340
   4.4136250   9.8710560  15.8123030   9.6652500   6.4214020  33.8045970
   9.0590660   6.4445620  33.0641720   9.3606610   5.6897060  34.3413220
  11.0952870  10.1494310  32.4155380  12.0474620  10.0652330  32.3655620
  10.9481090  10.8136020  33.0889170  13.9862070   9.5288520  17.9147290
  13.7003580   9.1153660  17.1001470  13.7881620  10.4576230  17.7947810
   5.4509300   5.5221800  16.3552900   5.3459940   4.9074150  17.0814280
   5.2833520   4.9987690  15.5715910   5.6023620   4.2078600  32.3342130
   4.8369290   4.7763600  32.2496800   5.7839580   3.9154810  31.4410360
   8.6912030   4.5841830  16.9594890   8.1422130   5.0311130  17.6037630
   9.3131290   4.0791080  17.4832560  12.7446970   5.9383930  32.8917150
  13.4856440   6.2759690  32.3884610  11.9819650   6.1075990  32.3386920
   4.3587150   3.5432750  18.8560190   4.7803570   3.3772620  19.6991580
   4.4837990   2.7332980  18.3615330   6.8714790   2.5670360  16.1037290
   7.3920450   1.8519380  15.7378440   7.5183190   3.2056230  16.4037800
  11.4192630   3.9898760  31.4272360  11.8333650   4.1443840  32.2762780
  10.4843630   4.1153980  31.5898140   6.1807860   3.9419240  29.3968290
   6.5995970   4.7851970  29.2244530   5.2616490   4.0791280  29.1675070
  10.8559660   2.2272610  29.3568640  10.3294880   2.7515230  28.7533780
  11.1991000   2.8600000  29.9878370   4.0315280  10.2472250  30.5126020
   3.4936370  10.9718310  30.1934720   4.2849240   9.7702590  29.7223360
   6.8877490  11.4823460  30.7712670   6.8136190  12.3858600  31.0785040
   5.9856330  11.1635360  30.7434740   7.4362820  10.6481970  18.3939030
   8.3313610  10.9866940  18.4157790   7.4680450   9.9261380  17.7663310
   2.8866700   7.1407060  21.7348260   2.5862240   7.0172030  22.6352170
   2.7804190   6.2815650  21.3263990  14.4157170   9.1785640  31.1005230
  13.8159160   9.2378200  30.3569150  14.5451070   8.2390620  31.2302080
  15.6558620   6.9203460  16.4374940  14.8251580   6.9880110  16.9082170
  15.8330450   7.8107580  16.1341800  15.1115080   3.6650940  18.9409140
  15.8733990   4.2347590  19.0468830  15.1269450   3.0978140  19.7117450
  16.1175050   4.5201040  23.7851070  16.4883880   3.7368360  23.3787040
  16.7576980   5.2090140  23.6068370  13.1008810   5.9037620  29.1981390
  12.2868650   6.3334780  29.4607180  13.5083010   6.5156030  28.5850440
  15.1634250   3.9585310  16.0981660  15.4383090   4.8664190  15.9700880
  14.9744990   3.8947840  17.0343650  13.1584860  10.6556220  22.7249660
  13.7543930  10.3340790  22.0484080  13.4163010  10.1828040  23.5162930
   4.7653460   8.6433720  28.4750010   4.5244820   8.9108280  27.5880530
   5.7056100   8.8139450  28.5300870  16.0257620  10.6628100  29.2760650
  15.5315900  11.0596970  28.5587780  15.4170910  10.0377310  29.6697930
  13.7097070  11.3051520  26.5547390  13.2500040  12.0567330  26.1805410
  13.0809530  10.5857990  26.4962190   4.1392790   9.6139760  25.7295520
   4.6557810   9.0027120  25.2043780   4.7890170  10.1168540  26.2206530
   6.8788290  10.5048250  26.5564500   7.1666100  10.2502550  25.6797510
   7.3911510   9.9525610  27.1470070   6.9460650  11.4264350  33.9232700
   7.8727960  11.1908620  33.9668660   6.9311080  12.2536350  33.4418730
  15.1805710  10.9689920  20.9206950  15.3557900  10.2827660  20.2767870
  14.4827280  11.4936970  20.5283620   3.0233360  11.3584760  18.4742260
   3.7552180  11.0744040  17.9266150   3.2827030  11.1198040  19.3641640
   2.1848150   7.4749490  18.4788590   1.5557030   7.9434590  19.0274420
   2.2995980   6.6298710  18.9134780  13.5138210  10.6534210  33.7473740
  14.3063530  10.1583440  33.5399700  13.8071360  11.3324350  34.3549350
   7.7715910   3.3034170   6.5099060   6.9958010   2.8234610   6.7997630
   8.4228840   2.6239820   6.3355220  11.7923340   7.7094360   5.2898190
  11.3304870   6.9381600   5.6185360  12.6048890   7.7360430   5.7950640
   1.7683000   7.6494070   7.5832840   2.0711040   6.7591810   7.4043060
   2.5126590   8.2064290   7.3555090   8.0186650   9.9952370   4.9102180
   7.3998090  10.4509870   4.3396620   8.8738430  10.1503830   4.5091880
   7.2124900   5.9791360   6.5169220   7.1433180   5.0381300   6.3558350
   7.9744760   6.0692770   7.0891790   8.8850000   4.8791610   2.3034090
   8.2667270   5.3441060   1.7396810   9.3973250   5.5719090   2.7203600
   3.7481760   4.4067480   8.9817690   3.4151140   5.0336400   9.6238760
   3.9248440   4.9329360   8.2019360   2.9600860   6.3748280  10.7966870
   3.5774860   7.0499360  10.5151320   2.0993980   6.7836260  10.7054370
  13.8778450   7.8387690   8.7121510  13.1941970   8.5086800   8.7038180
  14.4172740   8.0368340   7.9466370  11.4137190   9.6831820   7.4266690
  11.4264350   9.2794110   6.5588950  10.8612410  10.4579110   7.3228120
  12.7082610   6.4048040   2.5156860  12.5978940   5.4622370   2.6406280
  12.7050860   6.7663680   3.4019620  10.8122630   4.5861660   8.7549300
  11.2291420   4.3721770   7.9202760  11.5362450   4.8434450   9.3257920
   8.2502890   2.0313360   1.8719350   7.3232170   1.9650740   2.1007820
   8.4027710   2.9693490   1.7574590  14.7584730   2.9848880   8.8465540
  13.9303360   3.0541970   8.3715670  15.3535210   3.5703190   8.3781370
  12.2800180   3.5933660   2.3754600  11.6612600   3.2553210   1.7280900
  12.2624630   2.9493420   3.0833790   3.8559530   2.5578100   4.6539080
   3.4516530   1.8455350   4.1584980   3.9422650   2.2131340   5.5427120
   4.3241230   6.2445660   6.8178290   4.0269520   5.6391130   6.1386070
   5.2741050   6.2822970   6.7067650  12.4126840   9.8177530  10.4801390
  11.9357400  10.6249720  10.2874000  11.7288630   9.1655860  10.6327600
   3.4159660   5.9827350  13.4686090   2.5188190   6.2067320  13.7159490
   3.4412530   6.1062290  12.5197490   2.2430880   2.8540670  12.0443460
   2.1038650   3.7263470  12.4130860   1.3612240   2.5113480  11.8991400
   8.5660260   7.7716540   3.3508590   9.0056170   8.5140870   2.9363980
   8.5047150   8.0143110   4.2747550   4.0411230   8.7962370  14.2528610
   4.0126660   9.2005320  13.3857040   3.8776200   7.8672730  14.0900210
  15.9926050   9.5789470  15.5492780  16.4685770  10.0572360  16.2281860
  16.6133210   9.5106960  14.8238280  15.3959300   6.7702320  12.7092790
  15.5222360   6.5314200  11.7909970  15.4380680   5.9386860  13.1814870
   9.2576040  10.4730320  11.2787600   9.7720710  10.3838330  12.0810030
   8.4145120  10.8190020  11.5715510   3.7118820  10.5384190   2.4843220
   3.5361300   9.6219730   2.2711020   2.8574560  10.8971480   2.7241020
  10.5006500   9.8935930   3.3418090  10.9563450   9.1125310   3.6556710
  10.8399020  10.6042750   3.8859270  13.0514310   4.1315350   6.8490710
  13.7713430   4.6270640   6.4586820  12.8496130   3.4533240   6.2044580
   8.4333110   4.2024410  12.7359710   8.3670420   3.2820080  12.4817300
   7.8038250   4.2999850  13.4504350   2.3363730   4.8030370   4.6943130
   2.8542400   3.9998630   4.6400020   1.8847750   4.7409510   5.5359960
   3.0221390   2.2275980  14.4908380   2.7221530   2.3733160  13.5936200
   3.7932630   1.6681270  14.3981770   8.3649840   7.0244980  12.4863510
   8.3794380   6.0925940  12.2682420   7.6574940   7.1104740  13.1253280
  14.5761050   3.6652320  11.8332090  13.8509240   4.2581100  11.6361480
  15.1036510   3.6575860  11.0345460  10.1060640   5.3912490   5.3315940
  10.4584460   4.7940620   4.6717310   9.2222970   5.0656720   5.5024190
   6.1923920   6.1510180   2.7386350   6.8795050   6.6979390   3.1193940
   5.4056340   6.6950910   2.7735960   5.4951130   3.1556210   2.3511710
   5.9513910   3.9661460   2.5771900   5.1439340   2.8379350   3.1830200
   7.7983740   8.6662550   9.5804010   8.4425960   8.8721930  10.2577430
   8.1613180   7.9050950   9.1274860   9.0715820   6.6694900   8.2981460
   9.7138050   5.9688060   8.4113630   9.5965170   7.4493340   8.1178350
  10.8453440   7.4689800  11.5017520  11.1809680   8.0556490  12.1795440
   9.9253780   7.3382510  11.7315310   6.6742020   7.5181130  14.6705580
   6.3538890   6.7990370  15.2151270   6.0000380   8.1936200  14.7441640
   6.3433900  10.9456140   2.9711590   6.5975400  10.9077530   2.0490960
   5.3946380  10.8189470   2.9639840  14.3512060   9.0356870   6.2224360
  14.4759480   9.8588040   6.6948170  15.2177620   8.8247600   5.8748510
   1.8229590  11.1288080   5.8941490   2.5592070  10.5803540   6.1650060
   2.2070510  11.9944090   5.7547480   9.6652500   6.4214020  15.0302480
   9.0590660   6.4445620  14.2898230   9.3606610   5.6897060  15.5669730
  11.0952870  10.1494310  13.6411890  12.0474620  10.0652330  13.5912130
  10.9481090  10.8136020  14.3145680   5.6023620   4.2078600  13.5598640
   4.8369290   4.7763600  13.4753310   5.7839580   3.9154810  12.6666870
  12.7446970   5.9383930  14.1173660  13.4856440   6.2759690  13.6141120
  11.9819650   6.1075990  13.5643430  11.4192630   3.9898760  12.6528870
  11.8333650   4.1443840  13.5019290  10.4843630   4.1153980  12.8154650
   6.1807860   3.9419240  10.6224800   6.5995970   4.7851970  10.4501040
   5.2616490   4.0791280  10.3931580  10.8559660   2.2272610  10.5825150
  10.3294880   2.7515230   9.9790290  11.1991000   2.8600000  11.2134880
   4.0315280  10.2472250  11.7382530   3.4936370  10.9718310  11.4191230
   4.2849240   9.7702590  10.9479870   6.8877490  11.4823460  11.9969180
   6.8136190  12.3858600  12.3041550   5.9856330  11.1635360  11.9691250
   2.8866700   7.1407060   2.9604770   2.5862240   7.0172030   3.8608680
   2.7804190   6.2815650   2.5520500  14.4157170   9.1785640  12.3261740
  13.8159160   9.2378200  11.5825660  14.5451070   8.2390620  12.4558590
  16.1175050   4.5201040   5.0107580  16.4883880   3.7368360   4.6043550
  16.7576980   5.2090140   4.8324880  13.1008810   5.9037620  10.4237900
  12.2868650   6.3334780  10.6863690  13.5083010   6.5156030   9.8106950
  13.1584860  10.6556220   3.9506170  13.7543930  10.3340790   3.2740590
  13.4163010  10.1828040   4.7419440   4.7653460   8.6433720   9.7006520
   4.5244820   8.9108280   8.8137040   5.7056100   8.8139450   9.7557380
  16.0257620  10.6628100  10.5017160  15.5315900  11.0596970   9.7844290
  15.4170910  10.0377310  10.8954440  13.7097070  11.3051520   7.7803900
  13.2500040  12.0567330   7.4061920  13.0809530  10.5857990   7.7218700
   4.1392790   9.6139760   6.9552030   4.6557810   9.0027120   6.4300290
   4.7890170  10.1168540   7.4463040   6.8788290  10.5048250   7.7821010
   7.1666100  10.2502550   6.9054020   7.3911510   9.9525610   8.3726580
   6.9460650  11.4264350  15.1489210   7.8727960  11.1908620  15.1925170
   6.9311080  12.2536350  14.6675240  15.1805710  10.9689920   2.1463460
  15.3557900  10.2827660   1.5024380  14.4827280  11.4936970   1.7540130
  13.5138210  10.6534210  14.9730250  14.3063530  10.1583440  14.7656210
  13.8071360  11.3324350  15.5805860
 126.8270780  98.4408060 106.4466780  90.0000000  90.0000000  90.0000000
