Cpptraj Generated Restart                                                       
111975
  74.7117642  40.7026448  86.6623979  74.4397642  40.8646448  87.6263979
  75.2917642  39.8766448  86.6393979  73.8747642  40.5476448  86.1103979
  75.4537642  41.8836448  86.1583979  76.4027642  41.5416448  85.7443979
  74.6987642  42.6106448  85.0353979  73.9167642  43.2366448  85.4693979
  75.3907642  43.2416448  84.4753979  74.0567642  41.5886448  84.1113979
  74.8087642  40.9356448  83.3593979  72.8997642  41.2036448  84.3793979
  75.7607642  42.8146448  87.3183979  75.0397642  42.7966448  88.2993979
  76.8897642  43.5966448  87.2363979  77.4417642  43.5606448  86.3903979
  77.3037642  44.5026448  88.3023979  77.3497642  43.9336448  89.2313979
  78.7097642  45.0266448  87.9943979  78.7137642  45.5986448  87.0573979
  79.0557642  45.6896448  88.7983979  79.4237642  44.1976448  87.9033979
  76.3147642  45.6616448  88.5123979  75.8087642  46.2426448  87.5653979
  76.0917642  46.0486448  89.8193979  76.5057642  45.4546448  90.5373979
  75.2687642  47.1936448  90.2163979  74.2397642  46.9876448  89.9153979
  75.3157642  47.3596448  91.7423979  74.9427642  46.4496448  92.2163979
  76.3457642  47.5296448  92.0653979  74.4437642  48.5476448  92.1633979
  74.8717642  49.4766448  91.7853979  73.4507642  48.4196448  91.7353979
  74.3227642  48.6746448  93.6763979  73.9807642  47.7276448  94.0953979
  75.3057642  48.9016448  94.0863979  73.3447642  49.7286448  93.9923979
  72.4277642  49.6216448  93.5623979  73.5147642  50.7786448  94.7693979
  74.6377642  51.0086448  95.3903979  75.4437642  50.4096448  95.2423979
  74.7387642  51.8046448  96.0023979  72.5477642  51.6326448  94.9323979
  71.7337642  51.6066448  94.3173979  72.5927642  52.3416448  95.6403979
  75.7267642  48.4776448  89.5173979  76.8737642  48.8776448  89.6323979
  74.7497642  49.1956448  88.8653979  73.8187642  48.7976448  88.8913979
  74.9327642  50.5296448  88.2783979  76.0047642  50.7006448  88.1693979
  74.2927642  50.5586448  86.8773979  73.3737642  49.9676448  86.8793979
  74.0407642  51.5826448  86.5983979  75.2777642  49.9846448  85.8443979
  76.1707642  50.6116448  85.8123979  75.5707642  48.9776448  86.1483979
  74.6567642  49.9266448  84.4433979  73.6877642  49.4386448  84.5253979
  74.4917642  50.9336448  84.0583979  75.4707642  49.1296448  83.5103979
  75.1077642  48.1906448  83.3503979  76.5167642  49.5106448  82.7973979
  76.9407642  50.7466448  82.7713979  76.4127642  51.4416448  83.2613979
  77.7047642  51.0116448  82.1763979  77.1697642  48.6426448  82.0813979
  76.8387642  47.6926448  82.0643979  77.9487642  48.9236448  81.5163979
  74.4317642  51.6366448  89.2103979  73.6507642  51.4006448  90.1113979
  74.9477642  52.8906448  88.9793979  75.5567642  52.9656448  88.1803979
  74.6667642  54.0886448  89.7973979  73.6197642  54.0666448  90.1033979
  75.5147642  54.0656448  91.0853979  75.2027642  53.2176448  91.6953979
  77.0287642  53.9726448  90.8673979  77.4057642  54.8066448  90.2623979
  77.5537642  53.9976448  91.8313979  77.2997642  53.0316448  90.3733979
  75.2827642  55.2456448  91.8043979  75.7447642  55.1786448  92.6793979
  74.8737642  55.3986448  89.0233979  74.1517642  56.3646448  89.2043979
  75.8577642  55.4236448  88.0563979  76.4807642  54.6316448  88.0183979
  76.1157642  56.5586448  87.1673979  76.4977642  57.3896448  87.7603979
  77.1967642  56.1616448  86.1623979  78.0857642  55.8196448  86.6953979
  76.8267642  55.3506448  85.5323979  77.5287642  57.2606448  85.3483979
  78.3397642  56.9686448  84.8073979  74.8607642  57.0246448  86.4123979
  74.1387642  56.2216448  85.8413979  74.6217642  58.3856448  86.3463979
  75.2507642  58.9766448  86.8813979  73.5817642  58.9996448  85.4933979
  72.6827642  58.3836448  85.5753979  73.2197642  60.4056448  86.0053979
  72.3107642  60.7436448  85.5043979  73.0017642  60.3386448  87.0733979
  74.3267642  61.4466448  85.7683979  75.2797642  61.0276448  86.0873979
  74.3977642  61.6936448  84.7083979  74.0727642  62.7206448  86.5793979
  73.9007642  62.4246448  87.6133979  74.9687642  63.3446448  86.5423979
  72.9197642  63.4986448  86.0873979  72.5857642  63.3246448  85.1483979
  72.2627642  64.4286448  86.7553979  72.5537642  64.7696448  87.9793979
  73.3397642  64.3256448  88.4493979  72.0057642  65.4566448  88.4623979
  71.2747642  65.0306448  86.1703979  71.0207642  64.7306448  85.2363979
  70.7737642  65.7846448  86.6273979  73.9407642  59.0076448  84.0023979
  73.1367642  59.4576448  83.2083979  75.1787642  58.5236448  83.6313979
  75.7727642  58.1996448  84.3873979  75.7157642  58.4436448  82.2703979
  75.5037642  59.3856448  81.7653979  77.2397642  58.2766448  82.3803979
  77.6357642  58.9346448  83.1523979  77.4487642  57.2456448  82.6623979
  77.9977642  58.5886448  81.1003979  77.6557642  59.4726448  80.3433979
  79.1227642  57.8786448  80.8583979  79.5677642  58.0406448  79.9723979
  79.3707642  57.1026448  81.4663979  75.1047642  57.3116448  81.4183979
  75.4177642  57.1986448  80.2493979  74.2057642  56.4436448  82.0093979
  73.9337642  56.6336448  82.9633979  73.4787642  55.4186448  81.2533979
  74.1667642  55.0106448  80.5103979  73.0407642  54.2426448  82.1503979
  73.9147642  53.9016448  82.7043979  71.9497642  54.6066448  83.1673979
  71.0347642  54.9456448  82.6673979  71.6877642  53.7356448  83.7783979
  72.2957642  55.4026448  83.8373979  72.5437642  53.0566448  81.3183979
  73.3177642  52.7116448  80.6203979  72.2667642  52.2126448  81.9613979
  71.6587642  53.3236448  80.7343979  72.3107642  56.0406448  80.4923979
  71.4997642  56.7746448  81.0363979  72.2027642  55.6906448  79.1793979
  72.9127642  55.0786448  78.7893979  70.9997642  55.8526448  78.3923979
  70.5867642  56.8506448  78.5383979  71.4587642  55.7246448  76.9443979
  70.6407642  55.8766448  76.2403979  72.1927642  56.5076448  76.8123979
  72.2987642  54.1396448  76.6293979  71.7597642  53.8986448  75.4153979
  69.9687642  54.7966448  78.8213979  70.2107642  53.6086448  78.7443979
  68.7637642  55.2096448  79.3423979  68.6037642  56.1936448  79.5023979
  67.6607642  54.2476448  79.4503979  68.0807642  53.2546448  79.6103979
  66.7777642  54.5256448  80.6603979  66.1537642  53.6486448  80.8383979
  67.4247642  54.6736448  81.5233979  65.9507642  55.6606448  80.4773979
  65.6347642  55.9356448  81.3653979  66.8567642  54.1706448  78.1563979
  66.7787642  55.1236448  77.3983979  66.1637642  53.0046448  77.9243979
  66.3137642  52.2316448  78.5613979  65.2857642  52.8396448  76.7683979
  65.8627642  53.0916448  75.8763979  64.8607642  51.3676448  76.6663979
  65.6997642  50.7186448  76.9203979  64.0397642  51.1606448  77.3543979
  64.4577642  51.0446448  75.2413979  65.2397642  51.1116448  74.3253979
  63.1727642  50.7096448  74.9863979  63.0337642  50.3996448  74.0363979
  62.5637642  50.5276448  75.7613979  64.0787642  53.7966448  76.8163979
  63.5097642  54.1266448  75.7913979  63.6957642  54.3146448  78.0353979
  64.2167642  54.0046448  78.8463979  62.7027642  55.3796448  78.1863979
  61.8487642  55.1596448  77.5453979  62.1977642  55.4446448  79.6393979
  63.0207642  55.7136448  80.3023979  61.4407642  56.2276448  79.7063979
  61.5767642  54.1226448  80.1293979  62.3847642  53.4176448  80.3383979
  61.0487642  54.3066448  81.0683979  60.6097642  53.4976448  79.1143979
  59.6737642  54.1816448  78.6403979  60.7917642  52.3256448  78.7203979
  63.2497642  56.7276448  77.6973979  62.5967642  57.3816448  76.9033979
  64.5207642  57.1246448  78.0723979  65.0517642  56.5166448  78.6933979
  65.1567642  58.3306448  77.5213979  64.4467642  59.1496448  77.6253979
  66.4307642  58.6956448  78.3093979  66.1677642  58.7866448  79.3643979
  67.1507642  57.8806448  78.2203979  67.1237642  60.0066448  77.8653979
  67.9617642  60.1916448  78.5413979  67.5377642  59.8716448  76.8643979
  66.2027642  61.2406448  77.8833979  65.2077642  61.2326448  78.6413979
  66.4627642  62.2286448  77.1613979  65.4387642  58.1916448  76.0193979
  65.2807642  59.1446448  75.2823979  65.7897642  56.9616448  75.4963979
  65.9687642  56.2116448  76.1673979  65.9977642  56.7436448  74.0593979
  66.5757642  57.5916448  73.6923979  66.8587642  55.4856448  73.8363979
  67.7627642  55.5696448  74.4453979  66.3177642  54.5876448  74.1343979
  67.2717642  55.3976448  72.3613979  66.3867642  55.1956448  71.7573979
  67.7047642  56.3526448  72.0663979  68.3077642  54.3176448  72.0653979
  69.1967642  54.4796448  72.6833979  67.8857642  53.3456448  72.3333979
  68.6967642  54.3606448  70.6343979  68.6337642  55.2356448  70.1483979
  69.2207642  53.3476448  69.9723979  69.2177642  52.1676448  70.4603979
  69.3827642  52.2196448  71.4633979  69.8817642  51.5346448  70.0403979
  69.7697642  53.4396448  68.8013979  69.9677642  54.3376448  68.4143979
  70.3167642  52.6286448  68.5113979  64.6787642  56.7836448  73.2723979
  64.6207642  57.4116448  72.2273979  63.5337642  56.2386448  73.8193979
  63.6447642  55.7016448  74.6793979  62.1877642  56.4796448  73.2593979
  62.1977642  56.2226448  72.2003979  61.1477642  55.6026448  73.9703979
  61.3317642  55.6346448  75.0453979  60.1497642  56.0046448  73.7833979
  61.1917642  54.1566448  73.4433979  60.9727642  54.1696448  72.3743979
  62.1947642  53.7476448  73.5713979  60.1797642  53.2276448  74.1313979
  59.1687642  53.5986448  73.9583979  60.2707642  52.2346448  73.6873979
  60.4517642  53.1356448  75.6363979  61.4807642  52.7956448  75.7873979
  60.3747642  54.1316448  76.0833979  59.5157642  52.2316448  76.3423979
  59.5227642  51.2906448  75.9853979  59.8167642  52.1936448  77.3233979
  58.5727642  52.6026448  76.3883979  61.7967642  57.9596448  73.3273979
  61.1487642  58.4506448  72.4173979  62.2387642  58.7186448  74.3933979
  62.6787642  58.2136448  75.1653979  62.0457642  60.1706448  74.4923979
  60.9927642  60.3776448  74.3013979  62.3867642  60.6556448  75.9093979
  62.0777642  59.9036448  76.6363979  63.4627642  60.8046448  76.0013979
  61.6487642  61.9576448  76.2453979  61.8577642  62.7196448  75.4923979
  60.5757642  61.7596448  76.2573979  62.0667642  62.4706448  77.6263979
  61.3407642  63.2056448  77.9763979  62.0587642  61.6386448  78.3333979
  63.4167642  63.0566448  77.5943979  64.2017642  62.4316448  77.7803979
  63.7447642  64.3276448  77.5023979  62.8637642  65.2706448  77.3703979
  61.8917642  65.0776448  77.4653979  63.2157642  66.2276448  77.4753979
  64.9877642  64.6856448  77.5393979  65.7057642  63.9606448  77.5483979
  65.1897642  65.6856448  77.5053979  62.8397642  60.9196448  73.4193979
  62.2647642  61.7466448  72.7383979  64.1497642  60.5556448  73.1703979
  64.5587642  59.9096448  73.8463979  64.9907642  61.1136448  72.0943979
  65.0577642  62.1946448  72.2373979  66.4247642  60.5446448  72.1533979
  66.3917642  59.4586448  72.2393979  66.9297642  60.8006448  71.2223979
  67.2577642  61.1346448  73.3073979  67.2487642  62.2216448  73.2273979
  66.8167642  60.8596448  74.2643979  68.7177642  60.6496448  73.2733979
  68.7367642  59.5656448  73.4043979  69.1527642  60.8946448  72.3013979
  69.5177642  61.2906448  74.3333979  69.0677642  62.0306448  74.8493979
  70.7587642  60.9826448  74.6803979  71.4477642  60.0326448  74.1213979
  71.1367642  59.5766448  73.2753979  72.3997642  59.8676448  74.4313979
  71.3757642  61.6416448  75.6173979  70.9237642  62.3916448  76.1053979
  72.3467642  61.4116448  75.7833979  64.3487642  60.9236448  70.7133979
  64.2877642  61.8836448  69.9693979  63.7587642  59.7076448  70.3933979
  63.9227642  58.9546448  71.0603979  63.0017642  59.4306448  69.1463979
  63.6847642  59.5076448  68.2973979  62.4347642  57.9936448  69.1993979
  63.2667642  57.2996448  69.3053979  61.8037642  57.8856448  70.0793979
  61.5997642  57.5986448  67.9633979  60.6437642  58.1246448  67.9943979
  62.1347642  57.9036448  67.0633979  61.3347642  56.0816448  67.8963979
  62.2927642  55.5586448  67.9103979  60.7537642  55.7716448  68.7673979
  60.5687642  55.7216448  66.6083979  59.5427642  56.0926448  66.7003979
  61.0377642  56.2446448  65.7713979  60.5617642  54.2596448  66.3263979
  60.1237642  53.7246448  67.0793979  60.0967642  54.0386448  65.4513979
  61.4937642  53.8846448  66.2363979  61.8787642  60.4456448  68.9013979
  61.7387642  60.9736448  67.8183979  61.0657642  60.7206448  69.9693979
  61.2867642  60.2146448  70.8193979  59.9417642  61.6586448  69.9933979
  59.2787642  61.4636448  69.1483979  59.1947642  61.3536448  71.3023979
  58.5577642  60.4776448  71.1563979  59.9267642  61.0396448  72.0543979
  58.3617642  62.4536448  71.9343979  57.4377642  63.1976448  71.1763979
  57.3357642  63.0276448  70.1123979  56.6407642  64.1676448  71.8103979
  55.9217642  64.7206448  71.2293979  56.7707642  64.3956448  73.1983979
  56.0037642  65.3216448  73.8223979  55.3067642  65.6656448  73.2493979
  57.6977642  63.6506448  73.9513979  57.7797642  63.8186448  75.0153979
  58.4937642  62.6836448  73.3163979  59.1987642  62.1086448  73.9003979
  60.3877642  63.1286448  69.8913979  59.8617642  63.8936448  69.0993979
  61.4287642  63.5296448  70.6933979  61.7927642  62.8406448  71.3483979
  61.9477642  64.8946448  70.7433979  61.1117642  65.5746448  70.9153979
  62.9077642  64.9926448  71.9383979  62.5547642  64.3326448  72.7413979
  63.8967642  64.6106448  71.6563979  63.0307642  66.3846448  72.5323979
  62.1437642  66.7796448  73.5543979  61.3817642  66.0976448  73.9033979
  62.2657642  68.0516448  74.1403979  61.6027642  68.3486448  74.9393979
  63.2737642  68.9296448  73.7073979  63.3807642  69.8986448  74.1763979
  64.1557642  68.5396448  72.6843979  64.9407642  69.2106448  72.3693979
  64.0327642  67.2696448  72.0943979  64.7207642  66.9686448  71.3173979
  62.6087642  65.2906448  69.4103979  62.4167642  66.3916448  68.9243979
  63.3277642  64.3136448  68.7443979  63.4357642  63.4286448  69.2393979
  63.8987642  64.4186448  67.3943979  64.6787642  65.1786448  67.3833979
  64.5337642  63.0556448  67.0503979  65.3907642  62.8826448  67.7133979
  63.8167642  62.2596448  67.2733979  64.9727642  62.8576448  65.6203979
  64.1257642  62.6586448  64.5273979  64.9227642  62.4486448  63.4733979
  64.5667642  62.2616448  62.4703979  66.2137642  62.4856448  63.8443979
  67.0037642  62.3146448  63.2413979  66.2637642  62.7426448  65.1963979
  67.1427642  62.8196448  65.8223979  62.8507642  64.8286448  66.3493979
  63.1087642  65.7006448  65.5363979  61.6077642  64.2326448  66.4183979
  61.4657642  63.5686448  67.1723979  60.5257642  64.4626448  65.4553979
  60.9137642  64.3376448  64.4443979  59.4067642  63.4446448  65.6933979
  59.1327642  63.4716448  66.7453979  58.5327642  63.7296448  65.1123979
  59.7747642  62.0086448  65.3243979  59.6707642  61.8946448  64.2453979
  60.8117642  61.8086448  65.5923979  58.7127642  60.7996448  66.1633979
  59.0287642  59.3516448  65.1323979  60.1017642  59.1276448  65.1193979
  58.4807642  58.4896448  65.5323979  58.6857642  59.5476448  64.1083979
  59.9447642  65.8746448  65.5663979  59.7577642  66.5406448  64.5613979
  59.6897642  66.3596448  66.8353979  59.8817642  65.7276448  67.6083979
  59.2747642  67.7376448  67.1093979  58.3457642  67.9526448  66.5783979
  59.0617642  67.9226448  68.6233979  59.8847642  67.4366448  69.1493979
  59.1007642  68.9856448  68.8673979  57.7277642  67.3586448  69.1343979
  57.5187642  66.4056448  68.6483979  57.8037642  67.1336448  70.6423979
  58.0917642  68.0536448  71.1643979  56.8327642  66.8126448  71.0293979
  58.5397642  66.3526448  70.8733979  56.5747642  68.3316448  68.8763979
  56.4657642  68.5416448  67.8053979  55.6297642  67.9076448  69.2313979
  56.7357642  69.2816448  69.3983979  60.3257642  68.7296448  66.6033979
  59.9887642  69.6966448  65.9493979  61.6497642  68.4616448  66.8713979
  61.8507642  67.6446448  67.4463979  62.7377642  69.3556448  66.4793979
  62.4937642  70.3526448  66.8483979  64.0307642  68.8946448  67.1673979
  63.7807642  68.3236448  68.0693979  64.5817642  68.1996448  66.5213979
  64.9267642  70.0426448  67.5973979  65.6997642  70.7376448  66.6483979
  65.6737642  70.4476448  65.6053979  66.5087642  71.8156448  67.0533979
  67.1097642  72.3366448  66.3223979  66.5367642  72.2066448  68.4103979
  67.3067642  73.2536448  68.8053979  67.5317642  73.8346448  68.0603979
  65.7577642  71.5136448  69.3593979  65.7787642  71.8256448  70.3923979
  64.9547642  70.4316448  68.9523979  64.3537642  69.9026448  69.6823979
  62.8817642  69.4546448  64.9473979  63.0257642  70.5406448  64.4063979
  62.7547642  68.2866448  64.2163979  62.6877642  67.4226448  64.7543979
  62.6927642  68.2076448  62.7533979  63.6087642  68.6406448  62.3493979
  62.6317642  66.7136448  62.3683979  63.5157642  66.2236448  62.7753979
  61.7647642  66.2686448  62.8573979  62.5327642  66.3746448  60.8683979
  61.5767642  66.7196448  60.4773979  63.6567642  66.9796448  60.0323979
  64.6387642  66.6306448  60.3683979  63.5337642  66.7186448  58.9743979
  63.6187642  68.0676448  60.1083979  62.6247642  64.8586448  60.6953979
  61.7997642  64.3696448  61.2263979  62.5667642  64.5826448  59.6353979
  63.5687642  64.4776448  61.1043979  61.5127642  69.0226448  62.1883979
  61.6937642  69.7956448  61.2623979  60.2847642  68.9006448  62.8093979
  60.2227642  68.2256448  63.5713979  59.0917642  69.6946448  62.4653979
  58.8987642  69.5856448  61.3983979  57.8597642  69.1666448  63.2343979
  58.1617642  68.8556448  64.2333979  56.7147642  70.1746448  63.4003979
  56.4037642  70.5786448  62.4323979  55.8527642  69.6926448  63.8773979
  57.0167642  71.0106448  64.0453979  57.2977642  67.9476448  62.4933979
  58.0597642  67.1626448  62.4193979  56.4357642  67.5306448  63.0283979
  56.9777642  68.2186448  61.4793979  59.3087642  71.1896448  62.6953979
  58.9367642  71.9816448  61.8483979  59.9687642  71.6066448  63.8303979
  60.2037642  70.8986448  64.5233979  60.2107642  73.0166448  64.1283979
  59.2527642  73.5366448  64.1123979  60.8117642  73.1556448  65.5343979
  61.6347642  72.4486448  65.6613979  61.1907642  74.1696448  65.6723979
  59.5127642  72.8416448  66.7663979  60.2947642  72.8806448  67.8493979
  61.0867642  73.6836448  63.0613979  60.7797642  74.7756448  62.6173979
  62.1837642  73.0066448  62.5723979  62.4027642  72.0956448  62.9723979
  62.9957642  73.5746448  61.4933979  63.0887642  74.6436448  61.6713979
  64.4097642  72.9826448  61.5173979  64.3297642  71.9016448  61.4373979
  64.9447642  73.3606448  60.6443979  65.2327642  73.3126448  62.7793979
  64.8307642  72.7626448  63.6293979  66.6817642  72.8806448  62.5563979
  67.1317642  73.4146448  61.7093979  67.2917642  73.0816448  63.4473979
  66.7237642  71.8056448  62.3633979  65.2357642  74.8046448  63.1173979
  64.2457642  75.1306448  63.4563979  65.9457642  75.0196448  63.9253979
  65.5077642  75.3936448  62.2353979  62.3197642  73.4756448  60.1173979
  62.4307642  74.3986448  59.3293979  61.5167642  72.3976448  59.8093979
  61.4737642  71.6186448  60.4643979  60.7547642  72.3726448  58.5543979
  61.4557642  72.6176448  57.7613979  60.2197642  70.9636448  58.2573979
  59.6367642  70.5976448  59.1033979  59.5777642  71.0236448  57.3813979
  61.3597642  69.9826448  57.9383979  61.9207642  70.3636448  57.0843979
  62.0387642  69.9476448  58.7883979  60.8597642  68.2746448  57.5703979
  60.0617642  68.4856448  55.9533979  60.7657642  68.9136448  55.2293979
  59.7067642  67.5176448  55.5763979  59.2027642  69.1546448  56.0493979
  59.6637642  73.4686448  58.4963979  59.4807642  74.1046448  57.4713979
  58.9777642  73.8026448  59.6493979  59.1357642  73.2226448  60.4733979
  58.0957642  74.9826448  59.7413979  57.4097642  74.9616448  58.8943979
  57.2497642  74.9696448  61.0293979  57.8997642  74.7756448  61.8813979
  56.5097642  76.2946448  61.2633979  55.9037642  76.5656448  60.3893979
  55.8537642  76.2326448  62.1383979  57.2237642  77.1026448  61.4513979
  56.1757642  73.8816448  60.9623979  56.6277642  72.8906448  60.8473979
  55.5817642  73.8746448  61.8823979  55.5007642  74.0626448  60.1183979
  58.8817642  76.2906448  59.6253979  58.4117642  77.2096448  58.9783979
  60.1247642  76.3916448  60.2173979  60.4257642  75.6276448  60.8193979
  60.9687642  77.5856448  60.0853979  60.4247642  78.4396448  60.4843979
  62.2577642  77.4196448  60.9013979  62.0057642  77.2076448  61.9483979
  62.8297642  76.5636448  60.5333979  63.1457642  78.6306448  60.8403979
  63.9747642  78.9726448  59.7693979  64.5247642  80.1486448  60.0953979
  65.2167642  80.6916448  59.4653979  64.0917642  80.5516448  61.3013979
  64.3627642  81.4046448  61.7653979  63.2127642  79.6096448  61.7843979
  62.6557642  79.6326448  62.7113979  61.2557642  77.9146448  58.6173979
  61.0277642  79.0356448  58.1883979  61.6517642  76.8766448  57.7963979
  61.8007642  75.9746448  58.2483979  61.8377642  77.0096448  56.3493979
  62.6667642  77.6866448  56.1453979  62.0727642  76.0276448  55.9413979
  60.5837642  77.5286448  55.6393979  60.6627642  78.4256448  54.8153979
  59.3747642  77.0026448  56.0373979  59.4077642  76.2596448  56.7313979
  58.0857642  77.3886448  55.4673979  58.1567642  77.3136448  54.3823979
  57.0307642  76.3846448  55.9413979  57.4307642  75.3756448  55.7953979
  56.8647642  76.4936448  57.0203979  55.6987642  76.5186448  55.2213979
  55.3847642  75.6756448  54.1373979  56.0717642  74.9016448  53.8283979
  54.1727642  75.8416448  53.4443979  53.9267642  75.1936448  52.6143979
  53.2837642  76.8626448  53.8203979  52.3677642  77.0066448  53.2663979
  53.5857642  77.6946448  54.9093979  52.8947642  78.4716448  55.2043979
  54.7887642  77.5186448  55.6123979  55.0197642  78.1626448  56.4473979
  57.6797642  78.8336448  55.8043979  57.3317642  79.6026448  54.9223979
  57.7607642  79.2546448  57.1153979  58.0667642  78.5626448  57.8023979
  57.4457642  80.6256448  57.5383979  56.4487642  80.8836448  57.1803979
  57.4537642  80.7416448  59.0763979  58.3537642  80.2576448  59.4633979
  57.4587642  82.2126448  59.5293979  56.6157642  82.7576448  59.0893979
  57.3807642  82.2916448  60.6113979  58.3907642  82.7176448  59.2423979
  56.2047642  80.0286448  59.6383979  55.3067642  80.5836448  59.3643979
  56.1327642  79.0306448  59.2053979  56.2497642  79.8596448  61.1573979
  56.1837642  80.8176448  61.6833979  55.4157642  79.2326448  61.4973979
  57.1947642  79.3816448  61.4313979  58.4117642  81.6116448  56.8823979
  57.9957642  82.6536448  56.4033979  59.7427642  81.2606448  56.7943979
  60.0337642  80.3826448  57.2333979  60.7247642  82.1096448  56.1203979
  60.6237642  83.1006448  56.5563979  62.1347642  81.5546448  56.3823979
  62.1967642  81.1676448  57.3993979  62.3237642  80.7206448  55.7023979
  63.2417642  82.6036448  56.2173979  64.1957642  82.1076448  56.3863979
  63.2287642  82.9706448  55.1903979  63.1297642  83.8116448  57.1673979
  63.9137642  84.5236448  56.9163979  62.1917642  84.3336448  56.9813979
  63.2037642  83.4566448  58.6033979  62.3747642  83.0536448  59.0173979
  64.1857642  83.7566448  59.4373979  65.3507642  84.1826448  59.0423979
  65.5477642  84.2246448  58.0433979  66.0757642  84.3946448  59.6983979
  64.0247642  83.6406448  60.7223979  63.0947642  83.4306448  61.0883979
  64.7257642  83.9796448  61.3533979  60.4147642  82.2686448  54.6263979
  60.6257642  83.3376448  54.0883979  59.8367642  81.2156448  53.9533979
  59.7057642  80.3596448  54.4863979  59.4047642  81.2506448  52.5513979
  60.2277642  81.6176448  51.9423979  59.1187642  79.8006448  52.1223979
  59.9987642  79.1926448  52.3313979  58.2947642  79.3966448  52.7013979
  58.8027642  79.6416448  50.6493979  59.6247642  79.8656448  49.7863979
  57.5687642  79.2066448  50.3113979  57.4067642  79.0056448  49.3243979
  56.9047642  78.9946448  51.0393979  58.2317642  82.2316448  52.3263979
  58.2667642  83.0176448  51.3953979  57.2207642  82.2696448  53.2633979
  57.2377642  81.5506448  53.9843979  56.1667642  83.2996448  53.3113979
  55.6647642  83.3376448  52.3433979  55.1347642  82.8666448  54.3733979
  54.6147642  81.9806448  54.0083979  55.6647642  82.5726448  55.2793979
  54.0867642  83.9126448  54.7873979  53.3787642  83.4356448  55.4693979
  54.5987642  84.6896448  55.3603979  53.3157642  84.5676448  53.6273979
  52.7657642  85.6646448  53.8813979  53.3037642  84.0076448  52.5033979
  56.7177642  84.7196448  53.5753979  56.1757642  85.7046448  53.1013979
  57.8657642  84.8666448  54.3263979  58.2387642  84.0326448  54.7713979
  58.5087642  86.1736448  54.5363979  57.7337642  86.9126448  54.7383979
  59.4387642  86.1246448  55.7573979  60.2247642  85.3796448  55.5903979
  59.9517642  87.0906448  55.8203979  58.8177642  85.8756448  57.1033979
  57.5147642  85.6026448  57.3543979  56.7427642  85.4896448  56.6003979
  57.3157642  85.4826448  58.7133979  56.4197642  85.2576448  59.1183979
  58.4827642  85.6766448  59.4183979  58.7837642  85.6826448  60.7873979
  58.0147642  85.4956448  61.5213979  60.1037642  85.9386448  61.1953979
  60.3557642  85.9516448  62.2503979  61.0977642  86.1836448  60.2313979
  62.1057642  86.4006448  60.5573979  60.7837642  86.1666448  58.8573979
  61.5527642  86.3666448  58.1273979  59.4677642  85.9166448  58.4133979
  59.2567642  86.6636448  53.2863979  59.2357642  87.8446448  52.9793979
  59.9037642  85.7196448  52.5173979  59.8927642  84.7706448  52.8873979
  60.5837642  85.9726448  51.2373979  61.3137642  86.7726448  51.3703979
  61.3297642  84.6826448  50.8163979  60.6507642  83.8426448  50.9523979
  61.7607642  84.6776448  49.3433979  62.4097642  85.5296448  49.1393979
  62.3087642  83.7636448  49.0903979  60.8897642  84.7396448  48.6823979
  62.5727642  84.4676448  51.7093979  63.4057642  85.0566448  51.3283979
  62.3697642  84.8116448  52.7233979  62.9887642  82.9946448  51.7953979
  63.2437642  82.5876448  50.8113979  63.8567642  82.8836448  52.4503979
  62.1817642  82.3916448  52.2173979  59.5887642  86.4546448  50.1693979
  59.9087642  87.3356448  49.3923979  58.3227642  85.9056448  50.1693979
  58.1717642  85.1346448  50.8153979  57.2307642  86.2896448  49.2673979
  57.6297642  86.3186448  48.2523979  56.1457642  85.1906448  49.3213979
  55.8407642  85.0346448  50.3573979  55.2667642  85.5236448  48.7713979
  56.5597642  83.8546448  48.7223979  57.5527642  83.7106448  48.0313979
  55.7277642  82.8076448  48.9163979  55.9497642  81.9416448  48.4553979
  54.8587642  82.9616448  49.4203979  56.6467642  87.7086448  49.5123979
  55.6857642  88.0896448  48.8653979  57.2287642  88.5436448  50.4493979
  58.0147642  88.1606448  50.9643979  56.7707642  89.9126448  50.7403979
  55.7677642  89.8436448  51.1613979  57.6747642  90.5516448  51.7973979
  57.5677642  90.0146448  52.7403979  58.7077642  90.4716448  51.4623979
  57.3547642  91.9246448  51.9883979  57.9167642  92.2566448  52.7213979
  56.7177642  90.8346448  49.5093979  57.7017642  91.0636448  48.8193979
  55.5357642  91.5226448  49.3093979  54.7697642  91.2766448  49.9253979
  55.3317642  92.5316448  48.2523979  55.6177642  92.0966448  47.2943979
  53.8437642  92.9246448  48.1873979  53.5407642  93.3856448  49.1313979
  53.7087642  93.6596448  47.3913979  52.9417642  91.7066448  47.9143979
  53.3747642  91.1066448  47.1123979  52.8927642  91.0986448  48.8183979
  51.5187642  92.1216448  47.5083979  51.1987642  92.9606448  48.1293979
  51.5137642  92.4496448  46.4673979  50.5047642  90.9866448  47.7073979
  50.5057642  90.7056448  48.7653979  49.5047642  91.3596448  47.4683979
  50.7867642  89.7736448  46.9033979  51.6687642  89.3546448  47.1823979
  50.0867642  89.0716448  47.1253979  50.7567642  89.9326448  45.9003979
  56.2157642  93.7696448  48.4493979  56.6977642  94.3516448  47.4933979
  56.4747642  94.1416448  49.7543979  56.0927642  93.5166448  50.4553979
  57.2677642  95.3046448  50.1923979  56.9137642  96.2036448  49.6863979
  57.1097642  95.4816448  51.7063979  57.5347642  94.6206448  52.2243979
  57.6547642  96.3746448  52.0183979  55.6367642  95.6176448  52.1023979
  55.1557642  96.3746448  51.4803979  55.1287642  94.6616448  51.9633979
  55.5257642  96.0196448  53.5663979  56.0367642  95.2716448  54.1773979
  56.0057642  96.9896448  53.7123979  54.1157642  96.0966448  53.9613979
  53.3987642  96.0506448  53.2413979  53.6587642  96.1946448  55.1883979
  54.4347642  96.3886448  56.2123979  55.4087642  96.5686448  56.0893979
  53.9847642  96.4156448  57.1233979  52.3917642  96.0866448  55.4143979
  51.7417642  96.0166448  54.6473979  52.0507642  96.2006448  56.3633979
  58.7447642  95.1666448  49.8443979  59.3887642  96.1436448  49.5163979
  59.2507642  93.8896448  49.8613979  58.6147642  93.1636448  50.1683979
  60.5527642  93.5146448  49.3303979  61.2967642  94.2476448  49.6433979
  60.9337642  92.1336448  49.8983979  60.1647642  91.4096448  49.6233979
  61.8607642  91.8126448  49.4323979  61.1107642  92.0946448  51.4293979
  60.1427642  92.2466448  51.9033979  61.6457642  90.7246448  51.8453979
  62.6047642  90.5156448  51.3573979  61.7957642  90.6756448  52.9303979
  60.9417642  89.9296448  51.5663979  62.0697642  93.1656448  51.9523979
  61.6587642  94.1686448  51.7903979  62.2327642  93.0496448  53.0313979
  63.0407642  93.1036448  51.4473979  60.5517642  93.5416448  47.7963979
  61.4247642  94.1526448  47.1993979  59.5117642  92.9216448  47.1303979
  58.8237642  92.4266448  47.6933979  59.5167642  92.7526448  45.6713979
  60.4247642  92.2116448  45.4133979  58.3297642  91.9116448  45.1993979
  58.2267642  91.0296448  45.8313979  57.4137642  92.5036448  45.2463979
  58.5667642  91.5176448  43.8623979  57.8807642  90.8756448  43.5863979
  59.5537642  94.0786448  44.9093979  60.3037642  94.2096448  43.9613979
  58.7917642  95.1346448  45.3823979  58.1837642  94.9336448  46.1743979
  58.7207642  96.4536448  44.7233979  58.4257642  96.2896448  43.6863979
  57.6447642  97.3276448  45.3923979  57.5437642  98.2486448  44.8143979
  56.6857642  96.8086448  45.3623979  57.9757642  97.6886448  46.8503979
  57.8437642  96.8086448  47.4753979  59.0117642  98.0106448  46.9293979
  57.0657642  98.8196448  47.3463979  57.2357642  99.7156448  46.7443979
  56.0287642  98.5106448  47.2023979  57.2687642  99.1326448  48.7753979
  56.4677642  99.0026448  49.3683979  58.3497642  99.6246448  49.3593979
  59.4367642  99.9546448  48.7193979  59.4647642  99.9206448  47.6993979
  60.2137642 100.3426448  49.2123979  58.3427642  99.8186448  50.6483979
  57.4877642  99.7466448  51.1733979  59.1367642 100.2436448  51.0943979
  60.0467642  97.2206448  44.6463979  60.1047642  98.2416448  43.9843979
  61.1087642  96.7836448  45.4153979  60.9417642  95.9396448  45.9513979
  62.3997642  97.4796448  45.5193979  62.4057642  98.3086448  44.8083979
  62.5437642  98.0756448  46.9313979  61.5887642  98.4966448  47.2493979
  62.8167642  97.2866448  47.6343979  63.5947642  99.1966448  46.9623979
  64.5387642  98.8146448  46.5723979  63.2617642 100.0236448  46.3323979
  63.8207642  99.7046448  48.3903979  62.9187642 100.1866448  48.7733979
  64.0547642  98.8546448  49.0323979  65.0087642 100.6716448  48.4403979
  65.4797642 100.5716448  49.4193979  65.7447642 100.3796448  47.6853979
  64.6067642 102.0806448  48.2373979  63.9957642 102.4066448  48.9803979
  65.4137642 102.6976448  48.2713979  64.1337642 102.2216448  47.3503979
  63.5747642  96.5856448  45.1243979  64.4207642  97.0146448  44.3623979
  63.6017642  95.2876448  45.5963979  62.8427642  94.9936448  46.2053979
  64.6637642  94.3346448  45.2493979  65.6247642  94.7966448  45.4743979
  64.5357642  93.0456448  46.0833979  63.5697642  92.5876448  45.8633979
  65.3137642  92.3656448  45.7413979  64.6837642  93.1786448  47.6103979
  63.9367642  93.8686448  47.9993979  64.4747642  91.8086448  48.2583979
  65.2577642  91.1036448  47.9503979  64.5007642  91.8916448  49.3513979
  63.5067642  91.3876448  47.9643979  66.0697642  93.6626448  48.0283979
  66.2557642  94.6756448  47.6553979  66.1607642  93.6906448  49.1213979
  66.8487642  92.9966448  47.6373979  64.6847642  93.9906448  43.7473979
  65.7437642  93.7186448  43.2123979  63.5007642  94.0526448  43.0363979
  62.6677642  94.3436448  43.5393979  63.3427642  93.7166448  41.6083979
  63.5937642  92.6666448  41.4573979  61.8817642  93.9436448  41.2093979
  61.7337642  93.6476448  40.1723979  61.2267642  93.3366448  41.8313979
  61.5617642  95.3136448  41.3693979  60.5977642  95.4486448  41.1463979
  64.2167642  94.5536448  40.6653979  64.4437642  94.1626448  39.5313979
  64.6947642  95.7516448  41.1543979  64.3547642  95.9966448  42.0763979
  65.5057642  96.7246448  40.4303979  65.3177642  96.6226448  39.3583979
  65.0537642  98.1216448  40.8893979  65.1797642  98.2036448  41.9693979
  65.6827642  98.8786448  40.4243979  63.6147642  98.4296448  40.5213979
  63.2137642  98.3006448  39.3863979  62.7927642  98.9006448  41.4853979
  61.8487642  99.1116448  41.2023979  63.1517642  99.0366448  42.4133979
  67.0217642  96.5706448  40.6453979  67.7917642  97.2336448  39.9633979
  67.4857642  95.7536448  41.6643979  66.7937642  95.2246448  42.1923979
  68.8997642  95.7096448  42.0643979  69.2487642  96.7306448  42.2133979
  69.0667642  94.9296448  43.3803979  68.5847642  93.9586448  43.2703979
  70.1317642  94.7556448  43.5463979  68.4967642  95.6296448  44.6263979
  67.4247642  95.7796448  44.5023979  68.7377642  94.7536448  45.8563979
  69.8097642  94.5726448  46.0073979  68.3497642  95.2386448  46.7593979
  68.2407642  93.7826448  45.7403979  69.1607642  96.9806448  44.8983979
  68.9367642  97.6976448  44.1003979  68.7807642  97.4116448  45.8333979
  70.2477642  96.8696448  44.9813979  69.7997642  95.1246448  40.9733979
  70.8687642  95.6556448  40.7163979  69.3367642  94.0336448  40.2703979
  68.4327642  93.6656448  40.5393979  69.9787642  93.5686448  39.0353979
  71.0497642  93.5706448  39.2123979  69.5877642  92.1206448  38.6953979
  68.5057642  92.0396448  38.5913979  70.2497642  91.6816448  37.3883979
  71.3377642  91.7766448  37.4653979  70.0027642  90.6396448  37.1503979
  69.9077642  92.3026448  36.5523979  70.0627642  91.1556448  39.7903979
  69.5967642  91.3946448  40.7543979  69.7947642  90.1246448  39.5403979
  71.1527642  91.2066448  39.9153979  69.6477642  94.5376448  37.8823979
  68.4827642  94.7016448  37.5573979  70.6847642  95.1946448  37.2243979
  72.1127642  95.0296448  37.5113979  72.4077642  93.9826448  37.3913979
  72.3237642  95.3696448  38.5313979  72.8427642  95.9106448  36.4923979
  73.1177642  95.3056448  35.6183979  73.7537642  96.3576448  36.9083979
  71.8027642  96.9656448  36.0843979  71.9957642  97.3996448  35.0953979
  71.7717642  97.7726448  36.8293979  70.4977642  96.1626448  36.1423979
  69.6707642  96.8316448  36.3873979  70.1957642  95.4836448  34.7983979
  70.4457642  94.3076448  34.5963979  69.6757642  96.2896448  33.8133979
  69.5587642  97.2656448  34.0613979  68.8927642  95.8006448  32.6703979
  68.0227642  95.2856448  33.0803979  68.3467642  97.0186448  31.9063979
  67.5617642  96.6806448  31.2303979  67.8957642  97.7056448  32.6263979
  69.4137642  97.7806448  31.1083979  70.2327642  98.0636448  31.7733979
  69.8127642  97.1246448  30.3333979  68.8437642  99.0316448  30.4333979
  69.5797642 100.0346448  30.2953979  67.6957642  98.9916448  29.9363979
  69.5797642  94.7706448  31.7433979  68.9017642  93.8976448  31.2353979
  70.9537642  94.7856448  31.5483979  71.4607642  95.5576448  31.9603979
  71.6557642  93.7486448  30.7543979  71.0237642  93.4716448  29.9043979
  72.9927642  94.2726448  30.2083979  73.5637642  94.7376448  31.0133979
  73.5677642  93.4316448  29.8143979  72.7777642  95.2676448  29.0643979
  72.3677642  94.7336448  28.2043979  72.0667642  96.0296448  29.3833979
  74.0957642  95.9476448  28.6633979  74.4207642  96.5946448  29.4793979
  74.8627642  95.1886448  28.4983979  73.9587642  96.7776448  27.3813979
  74.9117642  97.2806448  27.1913979  73.7547642  96.1026448  26.5443979
  72.8697642  97.7736448  27.4893979  72.9607642  98.3626448  28.3133979
  72.7847642  98.3546448  26.6603979  71.9677642  97.3076448  27.5783979
  71.8827642  92.4506448  31.5283979  71.6837642  91.3726448  31.0033979
  72.2967642  92.5466448  32.8383979  72.3597642  93.4796448  33.2243979
  72.4647642  91.3726448  33.7153979  73.0177642  90.6096448  33.1653979
  73.2957642  91.7366448  34.9623979  72.8127642  92.5606448  35.4883979
  73.4767642  90.5626448  35.9323979  73.9617642  89.7146448  35.4333979
  74.0937642  90.8596448  36.7863979  72.5167642  90.2116448  36.3253979
  74.7107642  92.1746448  34.5483979  74.6827642  93.0466448  33.8843979
  75.3067642  92.4476448  35.4273979  75.2287642  91.3616448  34.0213979
  71.1007642  90.7496448  34.0493979  71.0077642  89.5586448  34.2803979
  69.9827642  91.5506448  33.9613979  70.1397642  92.5486448  33.8433979
  68.6117642  91.0526448  34.0153979  68.4807642  90.4906448  34.9393979
  67.6557642  92.2486448  34.0373979  67.9167642  92.9146448  34.8703979
  67.7967642  92.8346448  33.1263979  66.1877642  91.8776448  34.1453979
  65.3467642  91.9836448  33.0203979  65.7467642  92.3056448  32.0673979
  63.9807642  91.6726448  33.1343979  63.3327642  91.7566448  32.2723979
  63.4547642  91.2526448  34.3683979  62.4017642  91.0186448  34.4533979
  64.2977642  91.1316448  35.4883979  63.8887642  90.8126448  36.4353979
  65.6647642  91.4426448  35.3763979  66.3117642  91.3586448  36.2393979
  68.2977642  90.0996448  32.8503979  67.7217642  89.0496448  33.0713979
  68.7607642  90.4036448  31.5853979  69.2297642  91.2936448  31.4453979
  68.6237642  89.4756448  30.4503979  67.6017642  89.0926448  30.4473979
  68.8497642  90.1786448  29.1023979  69.8637642  90.5766448  29.0503979
  68.7337642  89.4296448  28.3163979  67.8317642  91.2986448  28.8433979
  66.8447642  90.9656448  29.1743979  68.1087642  92.1726448  29.4323979
  67.7547642  91.6916448  27.3613979  66.6447642  92.0226448  26.8793979
  68.7997642  91.7156448  26.6693979  69.5307642  88.2406448  30.5633979
  69.2667642  87.2456448  29.9173979  70.5917642  88.2396448  31.4503979
  70.7967642  89.1056448  31.9343979  71.2657642  86.9946448  31.8303979
  71.3287642  86.3566448  30.9493979  72.6977642  87.2456448  32.3253979
  72.6747642  87.9266448  33.1743979  73.0637642  86.2846448  32.6753979
  73.7247642  87.7546448  31.3013979  73.5057642  88.7876448  31.0363979
  75.1107642  87.6796448  31.9523979  75.3457642  86.6456448  32.2393979
  75.8887642  88.0206448  31.2593979  75.1507642  88.3026448  32.8533979
  73.7827642  86.9046448  30.0303979  72.8327642  86.9546448  29.4843979
  74.5707642  87.2666448  29.3593979  73.9957642  85.8586448  30.2803979
  70.4747642  86.1586448  32.8503979  70.6937642  84.9666448  32.9213979
  69.5067642  86.7466448  33.6433979  69.3707642  87.7476448  33.5433979
  68.5527642  85.9586448  34.4403979  69.0477642  85.0456448  34.7683979
  68.1117642  86.7356448  35.6913979  67.6617642  87.6786448  35.3793979
  67.3387642  86.1526448  36.1913979  69.2327642  87.0246448  36.7083979
  70.0087642  87.6306448  36.2423979  68.6447642  87.8086448  37.8823979
  67.8447642  87.2426448  38.3723979  69.4207642  88.0236448  38.6243979
  68.2307642  88.7616448  37.5323979  69.8757642  85.7566448  37.2833979
  70.3817642  85.1846448  36.4963979  70.6337642  86.0156448  38.0303979
  69.1227642  85.1096448  37.7513979  67.3417642  85.4796448  33.6183979
  66.7477642  84.4716448  33.9593979  67.0127642  86.1726448  32.4693979
  67.5337642  87.0276448  32.3033979  66.0077642  85.7446448  31.4833979
  65.6567642  84.7486448  31.7563979  64.7857642  86.6776448  31.4923979
  65.0617642  87.6556448  31.0773979  64.0297642  86.2556448  30.8173979
  64.1297642  86.9036448  32.8223979  63.0917642  86.1336448  33.3523979
  62.7577642  86.7336448  34.5043979  61.9797642  86.3956448  35.1753979
  63.5167642  87.8206448  34.7083979  63.4417642  88.4216448  35.5233979
  64.3917642  87.9486448  33.6573979  65.1247642  88.7296448  33.4963979
  66.6017642  85.6346448  30.0673979  66.1927642  86.3666448  29.1773979
  67.6027642  84.7056448  29.8083979  68.1577642  83.7306448  30.7503979
  67.3647642  83.1166448  31.1943979  68.7097642  84.2526448  31.5373979
  69.1237642  82.8666448  29.9243979  68.6457642  81.9146448  29.6713979
  70.0437642  82.6446448  30.4763979  69.4157642  83.6616448  28.6403979
  69.5567642  83.0166448  27.7633979  70.3137642  84.2726448  28.7783979
  68.2157642  84.5986448  28.4943979  68.5757642  85.5796448  28.1823979
  67.1947642  84.1126448  27.4713979  66.5067642  83.1216448  27.6743979
  67.1127642  84.8296448  26.3023979  67.6707642  85.6696448  26.2283979
  66.2847642  84.3956448  25.1853979  65.3147642  84.1446448  25.6093979
  66.0887642  85.5596448  24.1893979  65.8287642  86.4586448  24.7513979
  67.0387642  85.7496448  23.6863979  65.0017642  85.3516448  23.1123979
  64.9557642  86.2476448  22.4933979  65.2947642  84.5306448  22.4583979
  63.5897642  85.0756448  23.6463979  63.2967642  85.1326448  24.8203979
  62.6387642  84.6716448  22.7693979  61.7077642  84.5526448  23.1533979
  62.8287642  84.6916448  21.7793979  66.8477642  83.1066448  24.5583979
  68.0227642  82.7786448  24.6763979  65.9437642  82.3196448  23.8773979
  64.9887642  82.6506448  23.8553979  66.3107642  81.1296448  23.1053979
  66.7447642  80.3946448  23.7833979  65.0367642  80.5556448  22.4643979
  64.2257642  80.5476448  23.1943979  64.7437642  81.1996448  21.6323979
  65.2757642  79.1216448  21.9723979  66.1237642  79.1066448  21.2903979
  65.5087642  78.5006448  22.8373979  64.0687642  78.5046448  21.2613979
  64.3137642  77.4746448  20.9973979  63.2187642  78.4936448  21.9453979
  63.6997642  79.2666448  19.9853979  63.5067642  80.3126448  20.2333979
  64.5387642  79.2316448  19.2823979  62.4877642  78.6926448  19.3703979
  61.6997642  78.7346448  20.0123979  62.2267642  79.2006448  18.5263979
  62.5987642  77.7196448  19.1003979  67.3597642  81.4676448  22.0323979
  67.1337642  82.3496448  21.2253979  68.5097642  80.7156448  22.0333979
  68.6397642  80.0806448  22.8073979  69.5637642  80.7876448  21.0123979
  69.9467642  81.8076448  20.9813979  70.7027642  79.8506448  21.4423979
  70.9187642  80.0056448  22.4993979  70.3397642  78.8336448  21.3183979
  72.0097642  79.9966448  20.6573979  72.1067642  79.4416448  19.5403979
  72.9777642  80.5696448  21.1993979  69.0367642  80.4186448  19.6093979
  68.1737642  79.5666448  19.4653979  69.6087642  81.0836448  18.5493979
  70.3027642  81.7786448  18.7843979  69.3087642  80.8836448  17.1243979
  68.2437642  81.0536448  16.9563979  70.1127642  81.9556448  16.3603979
  69.7697642  82.9416448  16.6783979  71.1577642  81.8656448  16.6613979
  70.0817642  81.9016448  14.8243979  70.8017642  82.6336448  14.4513979
  70.4257642  80.9236448  14.4863979  68.7157642  82.2116448  14.2003979
  68.5897642  82.1136448  12.9573979  67.7587642  82.5856448  14.9123979
  69.6287642  79.4636448  16.6073979  69.0427642  79.0266448  15.6293979
  70.5627642  78.6946448  17.2703979  71.0367642  79.1316448  18.0633979
  70.9387642  77.3336448  16.8573979  70.1827642  76.9586448  16.1683979
  72.2627642  77.3976448  16.0713979  72.0807642  78.0136448  15.1883979
  73.0237642  77.9086448  16.6603979  72.7777642  76.0296448  15.5793979
  71.9257642  75.3676448  15.4143979  73.2477642  76.1796448  14.6063979
  73.8087642  75.3386448  16.4903979  74.5477642  76.0166448  17.2413979
  73.9507642  74.0936448  16.3883979  70.9717642  76.3096448  18.0023979
  70.6017642  75.1666448  17.7923979  71.3927642  76.7026448  19.2563979
  71.6627642  77.6816448  19.3663979  71.5357642  75.7716448  20.3783979
  70.7477642  75.0256448  20.2943979  72.8747642  75.0276448  20.2243979
  72.8747642  74.4806448  19.2793979  73.6717642  75.7646448  20.1823979
  73.1757642  74.0466448  21.3673979  73.0027642  74.5326448  22.3223979
  72.2907642  72.8046448  21.3083979  72.4407642  72.2666448  20.3633979
  72.5257642  72.1216448  22.1333979  71.2297642  73.0696448  21.3833979
  74.6457642  73.6466448  21.3213979  75.2817642  74.5356448  21.4273979
  74.8857642  72.9546448  22.1363979  74.8837642  73.1636448  20.3663979
  71.4067642  76.4696448  21.7473979  72.3677642  77.0306448  22.2583979
  70.1977642  76.3856448  22.4303979  68.9467642  75.8816448  21.8523979
  68.9097642  74.7896448  21.9583979  68.8507642  76.1606448  20.7943979
  67.8317642  76.5366448  22.6703979  66.9627642  75.8786448  22.7943979
  67.5107642  77.4466448  22.1533979  68.4627642  76.9146448  24.0163979
  68.2687642  76.1316448  24.7593979  68.0777642  77.8726448  24.3863979
  69.9607642  77.0196448  23.7283979  70.2057642  78.0756448  23.6243979
  70.7977642  76.4856448  24.8993979  70.6867642  77.0166448  25.9833979
  71.7277642  75.4836448  24.7033979  71.7497642  75.0456448  23.7933979
  72.7937642  75.1906448  25.6733979  72.3137642  74.9836448  26.6303979
  73.5257642  73.9076448  25.2193979  72.7807642  73.1206448  25.0823979
  73.9907642  74.1016448  24.2553979  74.6237642  73.3686448  26.1563979
  75.4137642  74.1126448  26.2533979  74.1017642  73.0016448  27.5453979
  73.3237642  72.2306448  27.4823979  74.9177642  72.6146448  28.1673979
  73.6867642  73.8786448  28.0523979  75.2287642  72.0956448  25.5573979
  75.6297642  72.2836448  24.5543979  76.0507642  71.7286448  26.1833979
  74.4777642  71.2976448  25.4833979  73.7227642  76.4146448  25.8963979
  74.3187642  76.5586448  26.9513979  73.7857642  77.4076448  24.9283979
  73.3127642  77.2206448  24.0423979  74.3577642  78.7476448  25.1773979
  75.2587642  78.6386448  25.7833979  74.7487642  79.4126448  23.8513979
  73.9257642  79.2946448  23.1483979  74.9127642  80.4786448  24.0163979
  76.0417642  78.8166448  23.2673979  76.8657642  79.0296448  23.9513979
  75.9437642  77.7346448  23.1703979  76.3827642  79.4176448  21.8983979
  76.4447642  80.5036448  21.9893979  77.3667642  79.0596448  21.5873979
  75.3667642  79.0846448  20.8853979  74.5097642  79.6446448  20.8923979
  75.4307642  78.1556448  19.9513979  76.4377642  77.3296448  19.8533979
  77.2207642  77.4316448  20.4663979  76.4987642  76.7056448  19.0533979
  74.4717642  78.0506448  19.0893979  73.6537642  78.6556448  19.1743979
  74.4927642  77.3106448  18.3853979  73.4297642  79.6616448  25.9883979
  73.9197642  80.4596448  26.7653979  72.0647642  79.5296448  25.8673979
  71.7147642  78.8776448  25.1793979  71.1067642  80.1686448  26.7863979
  71.3537642  81.2266448  26.8493979  69.6627642  80.0756448  26.2683979
  69.2887642  79.0606448  26.3943979  69.0437642  80.7506448  26.8583979
  69.5447642  80.4436448  24.9013979  69.1027642  81.3386448  24.8523979
  71.2277642  79.5956448  28.2133979  71.2077642  80.3606448  29.1613979
  71.5137642  78.2486448  28.3813979  71.3717642  77.6436448  27.5733979
  71.9147642  77.6306448  29.6613979  71.1097642  77.7596448  30.3873979
  72.1997642  76.1226448  29.5123979  73.0237642  75.9896448  28.8233979
  72.6087642  75.4536448  30.8263979  71.9027642  75.6946448  31.6313979
  72.6657642  74.3636448  30.7183979  73.6037642  75.7996448  31.1353979
  71.1167642  75.4136448  28.9673979  70.8857642  74.7196448  29.6083979
  73.1747642  78.3016448  30.2163979  73.1997642  78.7116448  31.3653979
  74.2627642  78.4776448  29.3673979  74.2097642  78.0416448  28.4473979
  75.4887642  79.1786448  29.7973979  75.8827642  78.6396448  30.6563979
  76.5587642  79.1846448  28.6863979  76.7437642  78.1606448  28.3573979
  76.1867642  79.7436448  27.8273979  77.8977642  79.8226448  29.1223979
  78.6127642  79.7296448  28.3043979  77.7437642  80.8896448  29.2913979
  78.5237642  79.2226448  30.3953979  79.4527642  79.7576448  30.6033979
  77.8527642  79.3956448  31.2383979  78.7967642  77.7746448  30.2553979
  78.6267642  77.3676448  29.3523979  79.2527642  76.9576448  31.1913979
  79.5897642  77.3646448  32.3803979  79.5607642  78.3456448  32.5913979
  79.9587642  76.6926448  33.0383979  79.3757642  75.6846448  30.9603979
  79.1387642  75.2756448  30.0763979  79.6937642  75.0796448  31.7103979
  75.1947642  80.5976448  30.2943979  75.7477642  81.0026448  31.2993979
  74.2597642  81.3496448  29.6133979  73.8347642  80.9116448  28.8013979
  73.9357642  82.7426448  29.9563979  74.8647642  83.3156448  29.9693979
  73.0057642  83.3376448  28.8913979  72.2417642  82.6146448  28.6133979
  72.5147642  84.2226448  29.2983979  73.8187642  83.7556448  27.6603979
  74.4117642  84.6326448  27.9243979  74.4987642  82.9536448  27.3743979
  72.9197642  84.0966448  26.4673979  72.4177642  83.1976448  26.1053979
  72.1617642  84.8146448  26.7853979  73.7487642  84.7276448  25.3423979
  73.0667642  85.1586448  24.6033979  74.3427642  85.5466448  25.7583979
  74.6437642  83.7566448  24.6673979  74.1217642  83.0006448  24.2503979
  75.1007642  84.2336448  23.8873979  75.3817642  83.4166448  25.2693979
  73.3607642  82.8926448  31.3643979  73.7517642  83.8096448  32.0583979
  72.4837642  81.9386448  31.8283979  72.1847642  81.2276448  31.1703979
  71.9607642  81.9286448  33.1993979  71.6307642  82.9316448  33.4513979
  70.7367642  81.0046448  33.2333979  69.9987642  81.3826448  32.5243979
  71.0537642  80.0176448  32.8923979  70.0557642  80.8516448  34.6063979
  70.7767642  80.4976448  35.3413979  69.4007642  82.1316448  35.1253979
  68.6487642  82.5026448  34.4173979  68.9057642  81.9436448  36.0863979
  70.1507642  82.9156448  35.2793979  68.9677642  79.7976448  34.4533979
  69.4277642  78.8676448  34.1143979  68.4557642  79.6076448  35.4043979
  68.2287642  80.0966448  33.7003979  73.0247642  81.5676448  34.2473979
  73.0077642  82.1146448  35.3353979  74.0167642  80.6696448  33.9113979
  73.9687642  80.2576448  32.9843979  75.1447642  80.3566448  34.8013979
  74.7487642  80.0746448  35.7753979  75.9517642  79.1756448  34.2203979
  76.2307642  79.4106448  33.1943979  76.8737642  79.0596448  34.7903979
  75.1797642  77.8426448  34.2393979  74.1877642  77.9826448  33.8133979
  75.8997642  76.7716448  33.4183979  76.8967642  76.5646448  33.8243979
  75.3217642  75.8386448  33.4263979  76.0007642  77.0876448  32.3743979
  75.0367642  77.3106448  35.6663979  74.4587642  78.0036448  36.2853979
  74.5097642  76.3516448  35.6653979  76.0197642  77.1726448  36.1343979
  76.0257642  81.5936448  35.0523979  76.3847642  81.8816448  36.1833979
  76.3107642  82.3906448  33.9693979  76.0057642  82.0496448  33.0603979
  76.9947642  83.6836448  34.0543979  77.9227642  83.5576448  34.6133979
  77.3437642  84.1396448  32.6263979  76.4387642  84.1276448  32.0163979
  77.7087642  85.1666448  32.6603979  78.4167642  83.2656448  31.9563979
  79.2127642  82.6276448  32.6893979  78.4977642  83.2896448  30.7113979
  76.1527642  84.7266448  34.8133979  76.6327642  85.3796448  35.7293979
  74.8197642  84.8236448  34.4753979  74.5277642  84.2826448  33.6623979
  73.8267642  85.6766448  35.1253979  74.0247642  86.7226448  34.8923979
  72.8437642  85.4056448  34.7393979  73.7747642  85.5106448  36.6363979
  73.8347642  86.4916448  37.3563979  73.7107642  84.2346448  37.1483979
  73.6597642  83.4726448  36.4703979  73.6197642  83.9346448  38.5783979
  72.8187642  84.5376448  38.9963979  73.2607642  82.4486448  38.7583979
  73.9167642  81.8526448  38.1203979  73.4417642  82.1556448  39.7933979
  71.7937642  82.1316448  38.4063979  71.5587642  82.4996448  37.4093979
  71.5817642  80.6206448  38.4223979  71.7977642  80.1966448  39.4093979
  70.5517642  80.3696448  38.1473979  72.2447642  80.1516448  37.6873979
  70.8077642  82.7656448  39.3903979  70.8627642  83.8576448  39.3593979
  69.7837642  82.5006448  39.1173979  71.0017642  82.4316448  40.4153979
  74.8837642  84.3396448  39.3533979  74.7717642  84.8116448  40.4713979
  76.1097642  84.2486448  38.7233979  76.1037642  83.8516448  37.7843979
  77.3777642  84.7276448  39.3023979  77.4647642  84.3466448  40.3213979
  78.5267642  84.1566448  38.4583979  78.3967642  83.0746448  38.4303979
  78.4447642  84.5326448  37.4383979  79.9337642  84.4846448  38.9913979
  80.0777642  85.5666448  38.9783979  80.0327642  84.1396448  40.0203979
  81.0287642  83.8396448  38.1253979  80.9057642  84.1786448  37.0953979
  82.0037642  84.1826448  38.4793979  80.9927642  82.3016448  38.1743979
  81.3087642  81.9746448  39.1693979  79.9707642  81.9566448  38.0083979
  81.8707642  81.7076448  37.1413979  82.8257642  82.0496448  37.2353979
  81.9257642  80.6956448  37.2023979  81.5617642  81.9526448  36.2023979
  77.4247642  86.2566448  39.4033979  77.7447642  86.7896448  40.4483979
  77.0367642  86.9986448  38.3073979  76.7887642  86.4686448  37.4713979
  76.9747642  88.4756448  38.3003979  77.9227642  88.8766448  38.6643979
  76.7237642  88.9746448  36.8653979  75.7677642  88.5696448  36.5303979
  76.6447642  90.0636448  36.8703979  77.7997642  88.5536448  35.8443979
  78.0547642  87.5056448  35.9913979  77.3737642  88.6476448  34.8443979
  79.0927642  89.3826448  35.8923979  78.8887642  90.3856448  35.5123979
  79.4607642  89.4496448  36.9173979  80.1437642  88.6886448  35.0133979
  80.3837642  87.7196448  35.4583979  79.7187642  88.5166448  34.0193979
  81.3837642  89.4826448  34.8763979  81.7957642  89.6676448  35.7913979
  82.0667642  88.9476448  34.3473979  81.1967642  90.3376448  34.3563979
  75.8947642  88.9886448  39.2653979  76.0977642  89.9606448  39.9633979
  74.7257642  88.2756448  39.3473979  74.6197642  87.5276448  38.6673979
  73.6447642  88.5056448  40.3043979  73.2897642  89.5326448  40.2103979
  72.5107642  87.5596448  39.8873979  72.1557642  87.8516448  38.8963979
  72.9037642  86.5456448  39.8253979  71.1187642  87.5706448  41.0403979
  70.4097642  86.6146448  40.4263979  74.1077642  88.3256448  41.7663979
  73.8067642  89.1656448  42.5983979  74.9377642  87.2626448  42.0773979
  75.0707642  86.5506448  41.3623979  75.6237642  87.1056448  43.3693979
  74.8657642  87.0696448  44.1523979  76.3657642  85.7516448  43.3963979
  75.6147642  84.9666448  43.5023979  76.8697642  85.5776448  42.4493979
  77.3857642  85.5886448  44.5353979  76.9747642  86.0466448  45.4363979
  77.5037642  84.5216448  44.7313979  79.0497642  86.2656448  44.2523979
  79.7037642  85.0846448  43.0393979  79.0627642  85.0516448  42.1503979
  80.7127642  85.3846448  42.7303979  79.7547642  84.0816448  43.4823979
  76.5217642  88.3166448  43.6983979  76.3837642  88.8856448  44.7693979
  77.3927642  88.7876448  42.7313979  77.5077642  88.2136448  41.8983979
  78.2397642  89.9846448  42.9133979  78.9077642  89.8226448  43.7603979
  79.0827642  90.2586448  41.6483979  78.4287642  90.2576448  40.7803979
  79.4997642  91.2646448  41.7153979  80.2387642  89.2836448  41.3703979
  79.8587642  88.2616448  41.3583979  80.6217642  89.5056448  40.3693979
  81.3987642  89.3986448  42.3723979  82.3857642  88.6456448  42.2443979
  81.3377642  90.2426448  43.3003979  77.4187642  91.2516448  43.2193979
  77.8157642  92.0876448  44.0173979  76.2197642  91.4156448  42.5563979
  75.9967642  90.7106448  41.8563979  75.3317642  92.5646448  42.7443979
  75.9437642  93.4666448  42.7683979  74.3757642  92.6676448  41.5423979
  73.8927642  91.6976448  41.4133979  73.5947642  93.3976448  41.7603979
  75.0787642  93.0696448  40.2263979  76.0757642  92.6326448  40.1713979
  74.2667642  92.5636448  39.0373979  73.2367642  92.9226448  39.1043979
  74.7127642  92.8986448  38.0933979  74.2457642  91.4706448  39.0363979
  75.2087642  94.5846448  40.0653979  75.8027642  95.0126448  40.8783979
  75.7147642  94.8246448  39.1213979  74.2247642  95.0706448  40.0583979
  74.5877642  92.5156448  44.0923979  74.4367642  93.5506448  44.7223979
  74.1797642  91.2996448  44.6163979  74.3157642  90.4676448  44.0433979
  73.6667642  91.1836448  45.9913979  72.8447642  91.8896448  46.1153979
  73.1217642  89.7816448  46.2913979  72.2437642  89.6056448  45.6603979
  73.8677642  89.0256448  46.0123979  72.7287642  89.5716448  47.7293979
  73.4707642  88.9256448  48.6593979  74.4287642  88.4566448  48.4763979
  72.8407642  88.9856448  49.8873979  73.2057642  88.5386448  50.7263979
  71.6707642  89.7076448  49.8213979  70.7257642  90.0866448  50.7853979
  70.8547642  89.7916448  51.8163979  69.6267642  90.8666448  50.3963979
  68.9137642  91.1976448  51.1353979  69.4607642  91.2176448  49.0453979
  68.6097642  91.8126448  48.7483979  70.4197642  90.8366448  48.0843979
  70.2987642  91.1426448  47.0563979  71.5567642  90.0796448  48.4473979
  74.7337642  91.5716448  47.0183979  74.4587642  92.3656448  47.8973979
  76.0127642  91.0756448  46.8693979  76.1707642  90.4266448  46.0983979
  77.1217642  91.3926448  47.7833979  76.7537642  91.2626448  48.8003979
  78.2617642  90.3776448  47.5673979  78.4977642  90.3416448  46.5013979
  79.1557642  90.7086448  48.0953979  77.9127642  88.9496448  48.0433979
  76.9407642  88.6436448  47.6573979  78.6517642  88.2686448  47.6203979
  77.9267642  88.7616448  49.5643979  77.7707642  89.6566448  50.3613979
  78.1177642  87.5176448  50.0603979  78.1437642  87.4536448  51.0603979
  78.0997642  86.7246448  49.4183979  77.5977642  92.8676448  47.7213979
  78.4067642  93.2976448  48.5273979  77.0357642  93.7056448  46.7703979
  76.4417642  93.2476448  46.0863979  77.1517642  95.1776448  46.7593979
  78.1417642  95.4586448  47.1233979  76.9807642  95.6666448  45.3123979
  77.5297642  95.0096448  44.6423979  75.9257642  95.6096448  45.0443979
  77.4837642  97.1066448  45.1173979  77.2787642  97.6926448  46.0123979
  78.5637642  97.0926448  44.9663979  76.7927642  97.8136448  43.9423979
  75.7177642  97.8276448  44.1343979  77.1287642  98.8496448  43.9153979
  77.0257642  97.1676448  42.5693979  76.7657642  96.1076448  42.6173979
  76.3517642  97.6486448  41.8563979  78.4207642  97.3266448  42.1013979
  79.0637642  96.7886448  42.6683979  78.5177642  97.0036448  41.1403979
  78.6867642  98.3086448  42.0823979  76.1087642  95.8536448  47.6623979
  76.3897642  96.8286448  48.3433979  74.8337642  95.3356448  47.6243979
  74.7107642  94.5196448  47.0323979  73.7137642  95.7716448  48.4673979
  73.6567642  96.8586448  48.4773979  72.4107642  95.2146448  47.8673979
  72.1217642  95.8226448  47.0013979  72.5767642  94.1976448  47.4903979
  71.2637642  95.1676448  48.8403979  70.5187642  96.2666448  49.2683979
  69.6907642  95.7886448  50.2143979  68.9857642  96.3856448  50.7773979
  69.8757642  94.4696448  50.3893979  69.3867642  93.9046448  51.0813979
  70.8787642  94.0616448  49.5393979  71.3167642  93.0746448  49.4613979
  73.8977642  95.3286448  49.9233979  73.6377642  96.0836448  50.8433979
  74.4017642  94.0726448  50.1363979  74.5927642  93.5086448  49.3113979
  74.6997642  93.5136448  51.4433979  73.8727642  93.7466448  52.1123979
  74.7827642  91.9916448  51.2953979  73.9627642  91.6506448  50.6503979
  75.7117642  91.7196448  50.7783979  74.6797642  91.2366448  52.5753979
  75.6717642  90.5296448  53.1523979  76.6747642  90.4306448  52.7473979
  75.2107642  89.9706448  54.3273979  75.8187642  89.4336448  54.9423979
  73.8837642  90.2726448  54.5533979  72.9687642  89.9226448  55.5573979
  73.2737642  89.2676448  56.3583979  71.6577642  90.4276448  55.4963979
  70.9437642  90.1836448  56.2703979  71.2727642  91.2516448  54.4243979
  70.2657642  91.6406448  54.3813979  72.1907642  91.5666448  53.4033979
  71.8797642  92.1716448  52.5633979  73.5177642  91.0926448  53.4463979
  75.9787642  94.1486448  52.0103979  77.0397642  94.0646448  51.4183979
  75.8647642  94.8746448  53.1803979  74.9537642  94.8726448  53.6323979
  76.9587642  95.6626448  53.7713979  77.6877642  95.8986448  52.9953979
  76.4187642  96.9796448  54.3703979  75.8177642  96.7466448  55.2503979
  77.2667642  97.5856448  54.6973979  75.5527642  97.8246448  53.4213979
  74.6727642  97.2466448  53.1383979  75.2047642  98.7066448  53.9613979
  76.2967642  98.2896448  52.1603979  77.0007642  99.0806448  52.4243979
  76.8397642  97.4596448  51.7093979  75.2757642  98.8106448  51.1503979
  74.5387642  98.0266448  50.9723979  74.7497642  99.6696448  51.5753979
  75.9057642  99.1736448  49.8633979  76.3517642  98.3686448  49.4293979
  75.2047642  99.5366448  49.2303979  76.6107642  99.8976448  49.9833979
  77.7297642  94.8906448  54.8343979  78.9327642  95.0456448  54.9293979
  77.0037642  94.0866448  55.6883979  76.0047642  94.0316448  55.5023979
  77.5327642  93.5096448  56.9313979  78.6187642  93.4456448  56.8583979
  77.1927642  94.4326448  58.1363979  76.1067642  94.5356448  58.1693979
  77.6317642  93.8046448  59.4723979  78.7007642  93.5546448  59.4613979
  77.4507642  94.5026448  60.3003979  77.0697642  92.8906448  59.6923979
  77.7607642  95.8726448  58.0423979  77.4647642  96.3246448  57.0983979
  77.2977642  96.4726448  58.8263979  79.2837642  96.0136448  58.1893979
  79.8177642  95.4176448  57.4393979  79.5747642  97.0626448  58.0603979
  79.6187642  95.7026448  59.1863979  76.9997642  92.0816448  57.1323979
  75.8927642  91.8876448  57.6133979  77.8467642  91.0406448  56.8023979
  78.7207642  91.2816448  56.3533979  77.6537642  89.6676448  57.3003979
  76.5887642  89.4836448  57.3963979  78.2137642  88.5866448  56.3653979
  79.3007642  88.6676448  56.3133979  77.8167642  87.1836448  56.8253979
  76.7237642  87.0766448  56.8373979  78.2327642  86.4266448  56.1493979
  78.1917642  86.9706448  57.8343979  77.6767642  88.7146448  55.0733979
  78.2757642  88.2326448  54.4713979  78.3047642  89.5196448  58.6743979
  79.5197642  89.5736448  58.7973979  77.4627642  89.2976448  59.7403979
  76.4727642  89.2136448  59.5103979  77.8937642  89.1106448  61.1353979
  78.9567642  89.3536448  61.1873979  77.1827642  90.1246448  62.0633979
  77.3627642  89.8556448  63.1063979  77.6667642  91.0896448  61.9043979
  75.6717642  90.3466448  61.8403979  75.3647642  91.2206448  62.4153979
  75.4927642  90.5866448  60.7923979  74.7747642  89.1676448  62.2383979
  73.7787642  89.3316448  61.8333979  75.1557642  88.2416448  61.8123979
  74.6297642  89.0406448  63.7553979  75.6107642  89.0966448  64.2333979
  74.0177642  89.8656448  64.1273979  73.9937642  87.7606448  64.1163979
  74.6647642  87.0126448  63.9943979  73.7347642  87.7816448  65.1033979
  73.1787642  87.5426448  63.5383979  77.8127642  87.6446448  61.5843979
  77.1157642  86.8396448  60.9913979  78.5927642  87.2976448  62.6673979
  79.1207642  88.0516448  63.0813979  78.6217642  85.9726448  63.3133979
  78.7617642  85.2316448  62.5283979  79.8297642  85.9016448  64.2703979
  79.9237642  84.8846448  64.6583979  80.7317642  86.1116448  63.6933979
  79.7397642  86.8666448  65.4703979  79.0857642  87.7076448  65.2383979
  79.3057642  86.3176448  66.3003979  81.1127642  87.4226448  65.8823979
  81.8137642  86.6046448  66.0593979  81.4957642  88.0256448  65.0563979
  81.0357642  88.3226448  67.1263979  81.9797642  88.8686448  67.2203979
  80.2427642  89.0636448  66.9813979  80.7847642  87.5676448  68.3783979
  81.5207642  86.9046448  68.6003979  80.7267642  88.2126448  69.1683979
  79.8957642  87.0696448  68.3573979  77.2907642  85.6186448  63.9973979
  76.4647642  86.4866448  64.2193979  77.0697642  84.3066448  64.3413979
  77.7837642  83.6346448  64.0893979  75.8627642  83.8606448  65.0523979
  74.9987642  84.2466448  64.5083979  75.7627642  82.3266448  65.0143979
  76.6917642  81.8806448  65.3943979  74.9637642  81.9896448  65.6863979
  75.4687642  81.8216448  63.6063979  74.1707642  81.9596448  63.0733979
  73.3737642  82.3796448  63.6723979  73.9097642  81.6176448  61.7323979
  72.9137642  81.7416448  61.3253979  74.9607642  81.1726448  60.9043979
  74.7567642  80.8526448  59.6003979  73.7747642  80.9316448  59.3343979
  76.2577642  81.0396448  61.4393979  77.0497642  80.7106448  60.7923979
  76.5067642  81.3326448  62.7923979  77.5027642  81.2156448  63.1893979
  75.7797642  84.4326448  66.4823979  76.7647642  84.4716448  67.1993979
  74.5477642  84.9066448  66.8923979  73.8087642  84.8996448  66.2003979
  74.2717642  85.5176448  68.2113979  75.0967642  86.1726448  68.4853979
  72.9807642  86.3536448  68.1353979  72.1637642  85.7066448  67.8083979
  72.7377642  86.7246448  69.1323979  73.0857642  87.5466448  67.1833979
  72.0487642  88.0416448  66.7123979  74.2207642  87.9296448  66.8193979
  74.1277642  84.4856448  69.3333979  74.4717642  84.7346448  70.4773979
  73.6087642  83.2756448  68.9483979  73.3997642  83.2176448  67.9633979
  73.5637642  82.0496448  69.7303979  74.1187642  82.1756448  70.6633979
  72.0937642  81.7146448  70.0753979  71.5047642  81.6416448  69.1623979
  72.0607642  80.7556448  70.5943979  71.4397642  82.7296448  70.9953979
  71.6467642  82.7426448  72.1853979  70.5667642  83.6236448  70.4763979
  70.0997642  84.2016448  71.1523979  70.2777642  83.5576448  69.5133979
  74.3037642  80.9716448  68.9183979  75.4737642  81.1116448  68.6113979
  73.5697642  79.9006448  68.4653979  72.6227642  79.8466448  68.8163979
  74.1337642  78.7246448  67.7933979  75.1757642  78.9326448  67.5443979
  74.1427642  77.5346448  68.7743979  73.1207642  77.2426448  68.9963979
  74.6257642  76.6896448  68.2853979  74.8977642  77.8256448  70.0913979
  75.2587642  76.8756448  70.4913979  75.7787642  78.4346448  69.8693979
  74.0297642  78.5106448  71.1673979  72.8367642  78.1456448  71.3103979
  74.5267642  79.4416448  71.8463979  73.4427642  78.4296448  66.4423979
  73.4477642  77.3156448  65.9513979  72.7917642  79.4776448  65.8143979
  72.8447642  80.3716448  66.2823979  72.0877642  79.3866448  64.5283979
  71.6307642  80.3456448  64.2833979  72.8167642  79.1566448  63.7503979
  70.9947642  78.3096448  64.4963979  70.4517642  77.9246448  65.5223979
  70.7027642  77.7666448  63.2623979  71.1197642  78.2226448  62.4573979
  69.9587642  76.5156448  63.0473979  69.1667642  76.4296448  63.7933979
  69.3277642  76.5366448  61.6423979  69.9647642  77.0886448  60.9493979
  69.2657642  75.5096448  61.2803979  67.9037642  77.1076448  61.6163979
  67.3327642  76.6596448  62.4253979  67.8587642  78.6236448  61.7833979
  68.4917642  79.1196448  61.0373979  66.8307642  78.9866448  61.6723979
  68.2147642  78.9106448  62.7783979  67.2417642  76.7276448  60.2953979
  67.1747642  75.6366448  60.2013979  66.2247642  77.1336448  60.2363979
  67.8217642  77.1026448  59.4463979  70.8307642  75.2546448  63.2053979
  70.3147642  74.1546448  63.1363979  72.1867642  75.4086448  63.3993979
  72.5407642  76.3476448  63.4983979  73.1237642  74.2926448  63.4963979
  73.0647642  73.7226448  62.5703979  74.5557642  74.8166448  63.6223979
  74.6197642  75.5106448  64.4693979  75.2227642  73.9826448  63.8713979
  75.0827642  75.4956448  62.3653979  75.0607642  76.8986448  62.2563979
  74.6527642  77.4986448  63.0573979  75.5997642  77.5206448  61.1173979
  75.5737642  78.5896448  61.0263979  76.1827642  76.7516448  60.0913979
  76.7307642  77.3796448  59.0193979  76.8717642  78.3206448  59.1943979
  76.1917642  75.3456448  60.1933979  76.6557642  74.7656448  59.4103979
  75.6277642  74.7206448  61.3223979  75.6337642  73.6446448  61.3963979
  72.7717642  73.3256448  64.6353979  72.2617642  73.7006448  65.6813979
  73.0557642  72.0056448  64.3893979  73.5087642  71.7986448  63.5023979
  72.7007642  70.9006448  65.2663979  71.6117642  70.8776448  65.3343979
  73.1727642  69.5886448  64.6223979  72.9587642  69.6086448  63.5533979
  74.2487642  69.4946448  64.7543979  72.4707642  68.3746448  65.2323979
  72.7497642  68.2926448  66.2823979  71.3957642  68.5456448  65.1763979
  72.8067642  66.7886448  64.4163979  74.6127642  66.7026448  64.5543979
  74.9287642  66.7926448  65.6013979  74.9787642  65.7486448  64.1543979
  75.0717642  67.5136448  63.9763979  73.2777642  71.0836448  66.6793979
  74.4697642  71.2806448  66.8633979  72.3737642  71.0026448  67.7183979
  71.4147642  70.8176448  67.4583979  72.7567642  70.8906448  69.1333979
  73.6337642  71.5096448  69.3343979  71.5977642  71.3266448  70.0543979
  70.6547642  70.9556448  69.6503979  71.7347642  70.8596448  71.0303979
  71.4967642  72.8406448  70.2993979  70.7207642  73.0186448  71.0443979
  72.4447642  73.2056448  70.6963979  71.1427642  73.6176448  69.0293979
  71.9387642  73.4746448  68.2993979  70.2107642  73.2166448  68.6233979
  70.9777642  75.0616448  69.2763979  70.9877642  75.3896448  70.2293979
  70.7817642  75.9586448  68.3273979  70.8657642  75.6656448  67.0663979
  71.3107642  74.7996448  66.7753979  70.8167642  76.4166448  66.3923979
  70.4937642  77.1936448  68.6093979  70.5377642  77.5136448  69.5643979
  70.3067642  77.8206448  67.8423979  73.1457642  69.4456448  69.4423979
  72.4947642  68.5276448  68.9703979  74.1637642  69.2446448  70.3403979
  74.6577642  70.0756448  70.6703979  74.2987642  67.9956448  71.0973979
  74.3147642  67.1676448  70.3883979  75.5887642  67.9256448  71.9363979
  75.6377642  66.9346448  72.3883979  76.8687642  68.1276448  71.1343979
  76.8547642  69.0756448  70.5813979  77.7437642  68.1216448  71.7953979
  76.9877642  67.3116448  70.4093979  75.5837642  68.8456448  72.9983979
  76.4347642  69.3246448  72.9483979  73.0987642  67.8166448  72.0293979
  72.4417642  68.7626448  72.4353979  72.8237642  66.5416448  72.4603979
  73.3547642  65.7806448  72.0613979  71.8007642  66.2696448  73.4733979
  70.8647642  66.7316448  73.1533979  71.5797642  64.7586448  73.5513979
  72.5447642  64.2496448  73.6873979  70.9777642  64.5296448  74.4393979
  70.8777642  64.2016448  72.3503979  71.4507642  63.5016448  71.3463979
  72.4987642  63.2346448  71.2883979  70.5017642  63.1906448  70.3953979
  70.7277642  62.6786448  69.5413979  69.2577642  63.6816448  70.7323979
  68.0037642  63.6456448  70.1023979  67.8897642  63.1596448  69.1443979
  66.9117642  64.2826448  70.7173979  65.9407642  64.2726448  70.2413979
  67.0877642  64.9426448  71.9473979  66.2497642  65.4316448  72.4273979
  68.3517642  64.9766448  72.5683979  68.4717642  65.4966448  73.5093979
  69.4697642  64.3446448  71.9793979  72.1427642  66.8956448  74.8353979
  71.2517642  67.3296448  75.5433979  73.4777642  67.0356448  75.1803979
  74.1587642  66.6556448  74.5373979  73.9357642  67.7906448  76.3533979
  73.3967642  67.4256448  77.2303979  75.4417642  67.5596448  76.5603979
  75.6627642  66.4956448  76.4523979  75.9847642  68.1086448  75.7913979
  75.9297642  68.0006448  77.9503979  75.5157642  68.9726448  78.2013979
  75.5807642  67.2826448  78.6943979  77.4597642  68.1076448  78.0003979
  77.9077642  67.2346448  77.5263979  77.7667642  69.0016448  77.4543979
  77.9357642  68.1836448  79.4553979  77.2827642  68.8576448  80.0173979
  77.8547642  67.1826448  79.8923979  79.3377642  68.6426448  79.5583979
  79.4537642  69.5686448  79.1743979  79.6397642  68.6256448  80.5213979
  79.9557642  67.9966448  79.0633979  73.6157642  69.2826448  76.2233979
  73.2107642  69.8836448  77.1953979  73.7697642  69.9126448  75.0073979
  74.1417642  69.3626448  74.2363979  73.3957642  71.3156448  74.7723979
  73.8897642  71.9436448  75.5123979  73.8317642  71.7876448  73.3753979
  73.7297642  70.9576448  72.6803979  73.1707642  72.5856448  73.0343979
  75.2717642  72.3336448  73.3723979  75.2597642  73.3326448  73.8143979
  75.9007642  71.6966448  73.9973979  75.8827642  72.3916448  71.9653979
  75.5787642  71.5116448  71.1333979  76.6967642  73.2926448  71.6683979
  71.8957642  71.5506448  74.9623979  71.5387642  72.5486448  75.5643979
  71.0007642  70.5996448  74.5003979  71.3827642  69.8316448  73.9513979
  69.5627642  70.6466448  74.8183979  69.1657642  71.5906448  74.4493979
  68.7767642  69.4906448  74.1423979  69.1707642  68.5466448  74.5203979
  67.2847642  69.5316448  74.5273979  66.8157642  70.4746448  74.2253979
  66.7387642  68.7036448  74.0583979  67.1457642  69.4186448  75.6103979
  68.8977642  69.4396448  72.6003979  69.9127642  69.1566448  72.3313979
  68.2427642  68.6516448  72.2243979  68.5497642  70.7406448  71.8673979
  69.2547642  71.5356448  72.1353979  68.6057642  70.5886448  70.7823979
  67.5347642  71.0786448  72.1053979  69.3457642  70.6496448  76.3423979
  68.6927642  71.5336448  76.8653979  69.9347642  69.6556448  77.0923979
  70.4797642  68.9586448  76.5903979  69.6667642  69.4646448  78.5253979
  68.5857642  69.4706448  78.6793979  70.1877642  68.0726448  78.9253979
  69.6737642  67.3196448  78.3243979  71.2457642  68.0236448  78.6623979
  70.0677642  67.6956448  80.4143979  70.6357642  66.7726448  80.5533979
  70.5547642  68.4626448  81.0173979  68.6467642  67.4496448  80.9533979
  67.6727642  67.4116448  80.1763979  68.5417642  67.2026448  82.1833979
  70.2507642  70.6026448  79.3893979  69.5757642  71.1296448  80.2603979
  71.5227642  71.0666448  79.1083979  72.0347642  70.5776448  78.3763979
  72.1307642  72.2366448  79.7543979  72.1637642  72.0746448  80.8333979
  73.5637642  72.4836448  79.2513979  73.5477642  72.5326448  78.1623979
  73.9027642  73.4506448  79.6293979  74.5777642  71.4286448  79.7073979
  74.5597642  71.3926448  80.7973979  74.2627642  70.4526448  79.3453979
  76.3027642  71.7236448  79.1923979  76.1647642  71.7876448  77.3803979
  75.5187642  72.6176448  77.0723979  77.1557642  71.9396448  76.9343979
  75.7487642  70.8526448  76.9933979  71.3117642  73.5046448  79.5023979
  71.0117642  74.2206448  80.4413979  70.9307642  73.8276448  78.2133979
  71.1407642  73.1776448  77.4543979  70.2587642  75.1006448  77.9213979
  70.7617642  75.8606448  78.5143979  70.4547642  75.5326448  76.4653979
  70.2087642  76.5906448  76.3733979  71.5057642  75.4026448  76.1983979
  69.6487642  74.8046448  75.5713979  70.2317642  74.4816448  74.8543979
  68.7927642  75.1096448  78.3723979  68.2967642  76.1486448  78.7853979
  68.1067642  73.9126448  78.4433979  68.5427642  73.0956448  78.0113979
  66.7997642  73.7616448  79.0803979  66.1617642  74.5576448  78.7063979
  66.1837642  72.4326448  78.6383979  66.7837642  71.5796448  78.9843979
  65.1687642  72.3276448  79.0393979  66.1197642  72.3806448  77.5443979
  66.8407642  73.9076448  80.6193979  65.8597642  74.3426448  81.2033979
  68.0107642  73.6066448  81.2963979  68.7447642  73.1586448  80.7523979
  68.2587642  73.9056448  82.7173979  67.3327642  73.7606448  83.2773979
  69.3077642  72.9196448  83.2643979  70.0797642  72.7216448  82.5203979
  69.7937642  73.3596448  84.1343979  68.6817642  71.6146448  83.7203979
  68.1567642  71.5226448  84.8093979  68.7117642  70.5556448  82.8823979
  68.3047642  69.6836448  83.1853979  69.0947642  70.6816448  81.9463979
  68.6877642  75.3696448  82.9683979  68.2857642  75.9716448  83.9503979
  69.5187642  75.9846448  82.0523979  69.9087642  75.3786448  81.3323979
  69.9537642  77.3856448  82.1243979  70.3077642  77.5826448  83.1343979
  71.1477642  77.5636448  81.1613979  71.9397642  76.8866448  81.4843979
  70.8407642  77.2716448  80.1613979  71.7697642  78.9556448  81.0633979
  72.4467642  79.2756448  80.1133979  71.5637642  79.8916448  82.0133979
  72.0367642  80.7716448  81.9033979  71.0417642  79.6736448  82.8593979
  68.7817642  78.3536448  81.8623979  68.7117642  79.3976448  82.4873979
  67.8107642  77.9796448  80.9463979  68.0137642  77.1266448  80.4223979
  66.4837642  78.6036448  80.7713979  66.1347642  78.3186448  79.7793979
  65.5037642  77.9976448  81.7883979  65.6627642  76.9206448  81.7873979
  65.7297642  78.3666448  82.7903979  64.0337642  78.3016448  81.4353979
  63.8227642  79.3476448  81.6573979  63.8697642  78.1466448  80.3703979
  63.0467642  77.4276448  82.2233979  63.2797642  77.5096448  83.2863979
  62.0347642  77.8026448  82.0593979  63.1167642  75.9626448  81.7673979
  62.6537642  75.8746448  80.7803979  64.1647642  75.6756448  81.6653979
  62.4717642  75.0436448  82.7323979  61.4887642  75.2666448  82.8993979
  62.5367642  74.0856448  82.4203979  62.9077642  75.1036448  83.6413979
  66.5387642  80.1376448  80.7573979  65.9587642  80.8356448  81.5753979
  67.3457642  80.6636448  79.7773979  67.7867642  79.9786448  79.1813979
  67.5007642  82.0886448  79.4643979  67.7427642  82.6326448  80.3803979
  68.6327642  82.2646448  78.4393979  68.3757642  81.7076448  77.5363979
  68.7177642  83.3186448  78.1733979  69.9937642  81.7916448  78.9603979
  70.2847642  82.4066448  79.8133979  69.9297642  80.7506448  79.2813979
  71.0487642  81.9026448  77.8553979  70.7477642  81.2746448  77.0133979
  71.1117642  82.9396448  77.5183979  72.3547642  81.4536448  78.3553979
  72.3557642  80.9426448  79.2293979  73.5077642  81.4456448  77.7163979
  73.6607642  81.8506448  76.4943979  72.8987642  82.2476448  75.9603979
  74.5387642  81.7016448  76.0243979  74.5727642  81.0016448  78.3103979
  74.5037642  80.6456448  79.2463979  75.4377642  80.9896448  77.7853979
  66.2157642  82.6926448  78.8923979  65.3277642  81.9896448  78.4453979
  66.1857642  84.0676448  78.8553979  67.0107642  84.5156448  79.2273979
  65.3357642  84.8556448  77.9543979  64.3957642  84.3286448  77.7823979
  65.0497642  86.2476448  78.5513979  65.9767642  86.6626448  78.9523979
  64.7277642  86.9096448  77.7473979  63.9637642  86.2806448  79.6413979
  63.8667642  87.3106448  79.9833979  63.0077642  85.9726448  79.2173979
  64.3057642  85.3836448  80.8373979  64.1307642  84.3406448  80.5643979
  65.3607642  85.5186448  81.0793979  63.4847642  85.7046448  82.0823979
  63.5257642  86.7816448  82.2683979  62.4437642  85.4186448  81.9103979
  64.0427642  84.9596448  83.2343979  65.0107642  85.2056448  83.4003979
  63.5287642  85.1136448  84.0973979  64.0657642  83.9626448  83.0513979
  66.0297642  85.0006448  76.5983979  67.2457642  85.0366448  76.5323979
  65.2157642  85.1486448  75.5053979  64.2167642  85.1146448  75.6843979
  65.6737642  85.3226448  74.1273979  66.7607642  85.4296448  74.1393979
  65.3657642  84.0436448  73.3373979  64.2807642  83.8736448  73.3243979
  65.6727642  84.1726448  72.2903979  66.0757642  82.8236448  73.9183979
  67.4427642  82.6236448  73.6553979  67.9747642  83.3146448  73.0183979
  68.1207642  81.5196448  74.2023979  69.1657642  81.3586448  73.9713979
  67.4367642  80.6236448  75.0413979  67.9577642  79.7716448  75.4553979
  66.0797642  80.8406448  75.3403979  65.5567642  80.1676448  76.0033979
  65.3987642  81.9346448  74.7763979  64.3557642  82.0936448  75.0093979
  65.1157642  86.6096448  73.4963979  64.0637642  87.1016448  73.8663979
  65.9127642  87.2106448  72.5443979  66.7227642  86.6776448  72.2543979
  65.7317642  88.5506448  71.9653979  65.2797642  89.2126448  72.7053979
  67.1497642  89.0576448  71.6413979  67.7327642  88.9996448  72.5623979
  67.6127642  88.3886448  70.9133979  67.2457642  90.4926448  71.1043979
  66.9387642  90.5126448  70.0583979  66.5957642  91.1426448  71.6883979
  68.7027642  90.9736448  71.2363979  68.9427642  91.0686448  72.2943979
  69.3647642  90.2106448  70.8213979  69.0247642  92.2966448  70.5263979
  70.0587642  92.5626448  70.7653979  68.9707642  92.1316448  69.4473979
  68.1257642  93.4136448  70.9073979  68.1587642  93.6176448  71.9033979
  68.3897642  94.2606448  70.4093979  67.1607642  93.2066448  70.6523979
  64.8037642  88.4896448  70.7473979  65.2257642  88.0476448  69.6973979
  63.4937642  88.8926448  70.9073979  63.2347642  89.2396448  71.8203979
  62.4437642  88.6436448  69.8973979  62.3657642  87.5656448  69.7853979
  61.0577642  89.1126448  70.3833979  60.8527642  88.6256448  71.3363979
  60.8947642  90.6226448  70.5823979  61.0807642  91.1726448  69.6523979
  59.8777642  90.8616448  70.9163979  61.5927642  90.9886448  71.3443979
  60.0517642  88.7146448  69.4793979  59.2027642  88.9686448  69.8823979
  62.7957642  89.2106448  68.5153979  63.1477642  90.3736448  68.4003979
  62.6937642  88.3496448  67.4363979  62.4827642  87.3786448  67.6533979
  62.9097642  88.7366448  66.0373979  62.9297642  89.8226448  65.9913979
  64.2737642  88.2286448  65.5263979  64.3457642  87.1576448  65.7183979
  64.3257642  88.3806448  64.4473979  65.4737642  88.9416448  66.1853979
  65.4247642  88.8176448  67.2623979  66.7967642  88.3536448  65.6953979
  66.9197642  88.4966448  64.6153979  67.6387642  88.8386448  66.2063979
  66.8467642  87.2806448  65.9173979  65.5317642  90.4366448  65.8583979
  64.6437642  90.9646448  66.2243979  66.3957642  90.9006448  66.3453979
  65.6177642  90.5886448  64.7793979  61.7207642  88.3336448  65.1613979
  61.5447642  87.1946448  64.7563979  60.8347642  89.3526448  64.9063979
  61.1537642  90.2806448  65.2053979  59.5917642  89.2716448  64.1373979
  59.0707642  88.3516448  64.4103979  58.7277642  90.5076448  64.4873979
  59.1527642  91.3686448  63.9713979  57.7237642  90.3606448  64.0903979
  58.6267642  90.8956448  65.9813979  59.6187642  91.1566448  66.3553979
  58.0157642  91.7956448  66.0593979  58.0387642  89.8246448  66.9083979
  58.6787642  88.9426448  66.8813979  58.0417642  90.2116448  67.9293979
  56.5997642  89.4606448  66.5213979  55.9447642  90.2976448  66.7853979
  56.5477642  89.3156448  65.4423979  56.1537642  88.2286448  67.2073979
  56.1027642  88.3766448  68.2163979  55.2297642  87.9556448  66.9063979
  56.8117642  87.4716448  67.0283979  59.8907642  89.2356448  62.6303979
  60.9977642  89.5016448  62.1903979  58.8107642  89.0646448  61.7783979
  57.9237642  88.8406448  62.2063979  58.8917642  89.3406448  60.3293979
  59.5937642  88.6356448  59.8773979  57.5087642  89.1766448  59.6733979
  57.0747642  88.2216448  59.9703979  56.8567642  89.9716448  60.0363979
  57.5887642  89.2326448  58.1333979  58.0547642  90.1636448  57.8203979
  58.2147642  88.4156448  57.7853979  56.2217642  89.1346448  57.4433979
  56.3757642  89.1346448  56.3613979  55.7407642  88.1936448  57.7203979
  55.3547642  90.2656448  57.8123979  55.6647642  90.8816448  58.5573979
  54.1417642  90.5276448  57.3733979  53.5187642  89.8446448  56.4553979
  53.9367642  89.0346448  55.9963979  52.5627642  90.1036448  56.2483979
  53.5057642  91.5306448  57.8933979  53.9337642  92.0416448  58.6563979
  52.5327642  91.6636448  57.6343979  59.4447642  90.7466448  60.0823979
  60.2487642  90.9396448  59.1953979  59.0267642  91.7416448  60.9313979
  58.3117642  91.4926448  61.5993979  59.4037642  93.1536448  60.8473979
  59.1107642  93.5366448  59.8703979  58.6087642  93.9246448  61.9103979
  58.9607642  93.6526448  62.9083979  58.7377642  94.9976448  61.7643979
  57.2357642  93.5696448  61.7763979  56.6557642  94.1746448  62.3443979
  60.9167642  93.3736448  60.9853979  61.4767642  94.1856448  60.2723979
  61.6247642  92.5766448  61.8603979  61.1137642  91.9336448  62.4573979
  63.0877642  92.5916448  61.9673979  63.4167642  93.6276448  62.0303979
  63.5287642  91.9006448  63.2603979  63.2997642  90.8336448  63.2173979
  64.6057642  92.0256448  63.3703979  62.8167642  92.5446448  64.4433979
  63.1857642  93.6986448  64.7593979  61.7957642  91.9816448  64.8933979
  63.7747642  91.9816448  60.7433979  64.7607642  92.5216448  60.2793979
  63.2087642  90.8796448  60.1383979  62.4027642  90.4656448  60.5993979
  63.7017642  90.3246448  58.8733979  64.7697642  90.1336448  58.9763979
  63.0087642  88.9846448  58.6063979  63.3157642  88.2736448  59.3843979
  61.9247642  89.0996448  58.7203979  63.2847642  88.3676448  57.2433979
  64.4577642  87.6206448  57.0353979  65.1947642  87.5376448  57.8213979
  64.6737642  86.9816448  55.8033979  65.5777642  86.4136448  55.6513979
  63.7187642  87.0826448  54.7763979  63.8787642  86.5806448  53.8323979
  62.5637642  87.8586448  54.9683979  61.8397642  87.9576448  54.1703979
  62.3497642  88.5046448  56.1993979  61.4577642  89.0986448  56.3463979
  63.5447642  91.3046448  57.6973979  64.4977642  91.5386448  56.9743979
  62.3327642  91.9526448  57.5333979  61.5867642  91.6806448  58.1693979
  62.0847642  92.9796448  56.5133979  62.2187642  92.5356448  55.5273979
  60.6437642  93.5206448  56.6353979  60.4977642  93.8956448  57.6493979
  60.5477642  94.3726448  55.9623979  59.5087642  92.5266448  56.3153979
  59.4997642  91.7416448  57.0583979  58.1527642  93.2336448  56.3623979
  58.1007642  94.0216448  55.5993979  57.3367642  92.5216448  56.1883979
  57.9947642  93.6936448  57.3453979  59.6367642  91.8586448  54.9473979
  60.5357642  91.2336448  54.9113979  58.7787642  91.2036448  54.7573979
  59.6977642  92.6146448  54.1593979  63.1087642  94.1246448  56.6053979
  63.6407642  94.5296448  55.5853979  63.4347642  94.5996448  57.8673979
  62.9057642  94.2046448  58.6423979  64.4947642  95.5836448  58.1493979
  64.3577642  96.4546448  57.5053979  64.4307642  96.0186448  59.6263979
  64.2777642  95.1436448  60.2583979  65.3887642  96.4656448  59.8983979
  63.3317642  97.0536448  59.9063979  63.4947642  97.9126448  59.2533979
  62.3497642  96.6366448  59.6813979  63.3737642  97.5426448  61.3653979
  64.3977642  97.8396448  61.6063979  62.7607642  98.4396448  61.4453979
  62.9177642  96.5256448  62.3423979  63.6117642  95.8886448  62.7033979
  61.7097642  96.4076448  62.8683979  60.7107642  97.1756448  62.5373979
  60.8957642  97.9976448  61.9753979  59.8347642  97.0986448  63.0113979
  61.4587642  95.5196448  63.7803979  62.2077642  94.9126448  64.1373979
  60.5817642  95.4846448  64.2553979  65.8957642  95.0546448  57.8283979
  66.6687642  95.7406448  57.1963979  66.2587642  93.8076448  58.2733979
  65.5807642  93.3166448  58.8493979  67.5857642  93.2216448  58.0793979
  68.3327642  93.8706448  58.5393979  67.6067642  91.8686448  58.8003979
  66.8227642  91.2086448  58.4093979  68.5767642  91.3746448  58.6633979
  67.4377642  92.0016448  59.8763979  67.9577642  93.0686448  56.5923979
  69.0837642  93.3426448  56.2073979  66.9627642  92.6526448  55.7263979
  66.0567642  92.4416448  56.1483979  67.1447642  92.4486448  54.2793979
  68.0337642  91.8376448  54.1273979  65.9387642  91.6826448  53.6903979
  65.0167642  92.1706448  54.0083979  65.9297642  91.6116448  52.1573979
  66.8267642  91.1066448  51.7863979  65.0567642  91.0486448  51.8053979
  65.8797642  92.6096448  51.7073979  65.9417642  90.2336448  54.1973979
  65.8557642  90.1966448  55.2893979  65.0927642  89.6746448  53.7843979
  66.8677642  89.7176448  53.9153979  67.3927642  93.7706448  53.5473979
  68.2627642  93.8326448  52.6943979  66.6297642  94.8646448  53.8993979
  65.9277642  94.7376448  54.6243979  66.7487642  96.1996448  53.2943979
  66.8697642  96.0886448  52.2163979  65.4477642  96.9656448  53.5443979
  65.5007642  97.9446448  53.0673979  64.6147642  96.4066448  53.1143979
  65.2387642  97.1106448  54.9323979  64.3417642  97.5236448  55.0873979
  67.9597642  96.9946448  53.8103979  68.6807642  97.5766448  53.0213979
  68.2477642  96.9586448  55.1643979  67.5287642  96.5146448  55.7403979
  69.4237642  97.5556448  55.8323979  69.4997642  98.6026448  55.5383979
  69.1767642  97.4636448  57.3493979  68.1667642  97.8296448  57.5443979
  69.2177642  96.4116448  57.6373979  70.1187642  98.2606448  58.2683979
  71.1557642  97.9686448  58.1023979  70.0067642  99.3276448  58.0743979
  69.7397642  97.9436448  59.7223979  68.6687642  98.1066448  59.8653979
  69.9577642  96.8906448  59.9113979  70.4987642  98.8026448  60.7363979
  71.5607642  98.8216448  60.4763979  70.1127642  99.8256448  60.6933979
  70.3197642  98.2556448  62.0993979  70.7077642  97.3196448  62.1783979
  70.7817642  98.8186448  62.8063979  69.3307642  98.2266448  62.3413979
  70.7427642  96.8786448  55.4283979  71.8047642  97.4376448  55.6483979
  70.6757642  95.6396448  54.8313979  69.7487642  95.2446448  54.7353979
  71.8227642  94.8956448  54.3113979  71.4407642  94.0376448  53.7673979
  72.3837642  95.5246448  53.6193979  72.7657642  94.3956448  55.4103979
  73.9747642  94.4936448  55.2693979  72.1957642  93.9296448  56.5783979
  71.1817642  93.8286448  56.5753979  72.9357642  93.6546448  57.8153979
  73.9657642  93.4016448  57.5643979  72.9467642  94.9576448  58.6443979
  73.3507642  95.7576448  58.0093979  71.9127642  95.2516448  58.8633979
  73.7267642  94.9966448  59.9433979  74.0477642  96.1816448  60.6083979
  74.7577642  95.8386448  61.6933979  75.1827642  96.5386448  62.4043979
  74.8347642  94.5016448  61.7843979  75.2947642  93.9996448  62.5333979
  74.1967642  93.9516448  60.6913979  74.1007642  92.9006448  60.4713979
  72.3187642  92.4586448  58.5513979  71.2147642  92.5546448  59.0653979
  73.0637642  91.2996448  58.6313979  73.9757642  91.2936448  58.1703979
  72.5807642  90.0586448  59.2493979  72.4087642  90.2296448  60.3113979
  71.6237642  89.7976448  58.8003979  73.5207642  88.8536448  59.0923979
  74.6437642  88.9796448  58.6363979  73.0367642  87.6406448  59.5193979
  72.2097642  87.6626448  60.1083979  73.7267642  86.3466448  59.4163979
  74.7367642  86.4716448  59.8073979  73.0087642  85.2656448  60.2653979
  72.1157642  84.9486448  59.7233979  73.6587642  84.3946448  60.3303979
  72.5877642  85.6346448  61.7003979  72.5307642  86.8376448  62.0473979
  72.3357642  84.6976448  62.4833979  73.8137642  85.8486448  57.9543979
  73.0477642  86.2976448  57.1073979  74.7047642  84.8226448  57.6303979
  75.7637642  84.2946448  58.5023979  75.3307642  83.6056448  59.2373979
  76.3147642  85.0936448  59.0143979  76.6777642  83.5076448  57.5563979
  77.2037642  82.6916448  58.0683979  77.4267642  84.1836448  57.1233979
  75.7357642  83.0026448  56.4503979  75.2457642  82.0756448  56.7793979
  76.2607642  82.8136448  55.5053979  74.7137642  84.1446448  56.3283979
  75.0677642  84.8536448  55.5803979  73.3217642  83.6446448  55.9003979
  72.9407642  83.8356448  54.7583979  72.4917642  83.0926448  56.8603979
  72.9137642  82.8386448  57.7513979  71.1097642  82.6526448  56.6263979
  71.1267642  81.7856448  55.9663979  70.4057642  82.2626448  57.9513979
  70.1747642  83.1746448  58.5053979  69.4507642  81.8096448  57.6963979
  71.1347642  81.3226448  58.9233979  72.3607642  81.1146448  58.7823979
  70.4427642  80.8006448  59.8223979  70.2637642  83.7536448  55.9653979
  69.5487642  83.5286448  55.0003979  70.3587642  85.0076448  56.5263979
  71.0647642  85.1196448  57.2483979  69.5457642  86.1596448  56.1323979
  68.5147642  85.8236448  56.0233979  69.5877642  87.2546448  57.2263979
  70.5957642  87.6706448  57.2693979  68.6087642  88.3856448  56.8523979
  67.5797642  88.0096448  56.8043979  68.6487642  89.2036448  57.5783979
  68.8547642  88.8236448  55.8773979  69.2467642  86.6586448  58.6173979
  68.2867642  86.1446448  58.5613979  70.0047642  85.9226448  58.8853979
  69.1957642  87.6686448  59.7703979  68.3727642  88.3816448  59.6453979
  69.0367642  87.1426448  60.7203979  70.1387642  88.2226448  59.8443979
  70.0007642  86.6856448  54.7683979  69.1747642  87.0666448  53.9563979
  71.3477642  86.6286448  54.4803979  71.9517642  86.2646448  55.2143979
  71.9217642  86.9806448  53.1783979  71.6067642  87.9926448  52.9263979
  73.4477642  86.9746448  53.2853979  73.7387642  87.6356448  54.1003979
  73.7997642  85.9696448  53.5173979  74.0497642  87.4246448  52.0873979
  74.9647642  87.7066448  52.2953979  71.4157642  86.0476448  52.0703979
  71.0057642  86.5076448  51.0183979  71.3067642  84.6966448  52.3483979
  71.6797642  84.3736448  53.2413979  70.6617642  83.7396448  51.4333979
  71.1557642  83.8006448  50.4643979  70.7887642  82.2906448  51.9423979
  70.4307642  82.2286448  52.9673979  69.9687642  81.3076448  51.0943979
  70.2697642  81.3486448  50.0403979  70.1127642  80.2896448  51.4583979
  68.8937642  81.5116448  51.1593979  72.2477642  81.8376448  51.9063979
  72.8787642  82.4826448  52.5283979  72.3497642  80.8176448  52.2893979
  72.6367642  81.8586448  50.8853979  69.1937642  84.0876448  51.2013979
  68.7527642  84.1606448  50.0693979  68.3847642  84.3106448  52.2923979
  68.8117642  84.2406448  53.2163979  66.9417642  84.5336448  52.1493979
  66.5337642  83.7396448  51.5213979  66.2657642  84.4446448  53.5253979
  66.7007642  85.2186448  54.1543979  65.1997642  84.6476448  53.4163979
  66.4357642  83.0606448  54.1983979  65.5627642  82.4446448  53.9883979
  67.2937642  82.5386448  53.7773979  66.6347642  83.1166448  55.7123979
  66.2547642  84.0396448  56.4033979  67.1937642  82.0496448  56.3283979
  67.4367642  82.1606448  57.2973979  67.5917642  81.3066448  55.7693979
  66.6487642  85.8586448  51.4203979  65.7547642  85.9106448  50.5933979
  67.4857642  86.9316448  51.6533979  68.1857642  86.8166448  52.3853979
  67.4797642  88.1786448  50.8873979  66.4937642  88.6406448  50.9453979
  68.2047642  88.8516448  51.3393979  67.8537642  87.9946448  49.4103979
  67.1987642  88.5516448  48.5453979  68.8667642  87.1166448  49.0863979
  69.4117642  86.7266448  49.8543979  69.2487642  86.7846448  47.7093979
  69.4397642  87.7156448  47.1743979  70.5577642  85.9816448  47.7463979
  71.3407642  86.6146448  48.1853979  70.4437642  85.1346448  48.4323979
  71.0687642  85.4586448  46.4093979  71.5737642  86.3586448  45.4553979
  71.5557642  87.4186448  45.6563979  72.1177642  85.8836448  44.2493979
  72.4997642  86.5826448  43.5203979  72.1747642  84.5016448  44.0003979
  72.6027642  84.1396448  43.0743979  71.6637642  83.5966448  44.9493979
  71.6967642  82.5346448  44.7533979  71.1007642  84.0746448  46.1463979
  70.7117642  83.3756448  46.8733979  68.1257642  86.0496448  46.9553979
  67.8017642  86.4076448  45.8343979  67.4397642  85.0416448  47.6083979
  67.7787642  84.7956448  48.5393979  66.2767642  84.3326448  47.0353979
  66.5527642  83.9626448  46.0493979  65.8727642  83.1166448  47.8973979
  65.6007642  83.4566448  48.8973979  64.6907642  82.3326448  47.3043979
  64.9417642  81.9526448  46.3053979  64.4447642  81.4736448  47.9403979
  63.7947642  82.9566448  47.2233979  67.0207642  82.1086448  48.0073979
  67.9307642  82.5656448  48.4033979  66.7527642  81.2746448  48.6673979
  67.2557642  81.7006448  47.0213979  65.0937642  85.2886448  46.8373979
  64.4167642  85.2166448  45.8253979  64.8687642  86.2556448  47.7943979
  65.4457642  86.2246448  48.6313979  63.8707642  87.3166448  47.6673979
  62.8977642  86.8636448  47.4743979  63.7917642  88.0766448  48.9993979
  64.7447642  88.5626448  49.2333979  63.0127642  88.8476448  48.9573979
  63.5507642  87.3966448  49.8253979  64.1597642  88.2486448  46.4793979
  63.2587642  88.5396448  45.7133979  65.4567642  88.6716448  46.2603979
  66.1527642  88.4226448  46.9623979  65.8517642  89.4736448  45.0983979
  65.2057642  90.3476448  45.0593979  67.3067642  89.9526448  45.2513979
  67.3947642  90.5346448  46.1703979  67.9687642  89.0906448  45.3263979
  67.7507642  90.8316448  44.0733979  67.5907642  90.3016448  43.1353979
  67.1237642  91.7226448  44.0603979  69.4857642  91.3636448  44.1293979
  70.3017642  89.8826448  43.4813979  69.8767642  89.6216448  42.5053979
  71.3757642  90.0706448  43.3553979  70.1667642  89.0366448  44.1653979
  65.6267642  88.7146448  43.7843979  65.0267642  89.2456448  42.8693979
  66.0427642  87.4036448  43.7013979  66.5827642  87.0416448  44.4873979
  65.7987642  86.5576448  42.5293979  66.2807642  87.0146448  41.6643979
  66.4157642  85.1716448  42.7763979  66.1177642  84.8326448  43.7693979
  66.0177642  84.4606448  42.0523979  67.9497642  85.1796448  42.6743979
  68.3547642  86.0976448  43.0993979  68.5287642  83.9936448  43.4363979
  68.1387642  83.0426448  43.0583979  69.6157642  83.9926448  43.3313979
  68.2997642  84.0796448  44.5053979  68.3997642  85.0626448  41.2163979
  68.0117642  85.8956448  40.6193979  69.4937642  85.0786448  41.1613979
  68.0517642  84.1206448  40.7753979  64.3027642  86.4536448  42.1933979
  63.9147642  86.7046448  41.0633979  63.4127642  86.1316448  43.2033979
  63.8067642  85.9436448  44.1263979  61.9547642  86.0786448  42.9863979
  61.7527642  85.4146448  42.1433979  61.2277642  85.5436448  44.2273979
  61.4777642  86.1626448  45.0893979  60.1507642  85.6126448  44.0543979
  61.5647642  84.0766448  44.5193979  61.1907642  83.4546448  43.7113979
  62.6417642  83.9366448  44.5763979  60.9387642  83.6376448  45.8443979
  61.4297642  84.1896448  46.6443979  59.8767642  83.8836448  45.8483979
  61.1337642  82.1966448  46.0563979  61.8137642  81.7336448  45.4653979
  60.6227642  81.4406448  47.0073979  59.7127642  81.8326448  47.8463979
  59.2427642  82.7276448  47.7643979  59.4517642  81.2046448  48.5973979
  61.0507642  80.2196448  47.1203979  61.7617642  79.9046448  46.4743979
  60.7327642  79.6496448  47.8953979  61.3827642  87.4396448  42.5903979
  60.4757642  87.4836448  41.7813979  61.9547642  88.5766448  43.1153979
  62.6677642  88.4516448  43.8293979  61.5817642  89.9316448  42.7143979
  60.4987642  90.0216448  42.8003979  62.2157642  90.9256448  43.6903979
  63.3057642  90.9566448  43.5813979  61.8237642  91.9296448  43.5033979
  61.9757642  90.6596448  44.7263979  61.9447642  90.2376448  41.2473979
  61.2097642  90.9386448  40.5763979  63.0437642  89.6196448  40.6853979
  63.6647642  89.1186448  41.3183979  63.3347642  89.5986448  39.2453979
  63.1397642  90.5966448  38.8503979  64.8217642  89.2686448  39.0073979
  65.0267642  88.2566448  39.3563979  65.0287642  89.3076448  37.9363979
  65.9317642  90.4316448  39.8503979  67.0757642  89.8136448  39.5343979
  62.4297642  88.6236448  38.4543979  62.7467642  88.2966448  37.3263979
  61.3067642  88.0896448  39.0613979  61.0897642  88.4576448  39.9813979
  60.4467642  87.0086448  38.5583979  59.7927642  86.7526448  39.3923979
  59.5257642  87.5386448  37.4393979  59.0617642  88.4706448  37.7603979
  60.1217642  87.7396448  36.5503979  58.4067642  86.5656448  37.0893979
  57.8697642  85.8676448  37.9263979  58.0107642  86.4846448  35.7973979
  57.2767642  85.8266448  35.5963979  58.3927642  87.1196448  35.1103979
  61.1827642  85.6826448  38.2343979  60.6837642  84.8446448  37.4973979
  62.4047642  85.4396448  38.8293979  62.7607642  86.1376448  39.4793979
  63.1277642  84.1676448  38.6763979  63.0577642  83.8686448  37.6303979
  64.6277642  84.3076448  39.0083979  64.7377642  84.6306448  40.0383979
  65.4207642  83.0046448  38.8643979  65.3637642  82.6166448  37.8383979
  66.4787642  83.1766448  39.0993979  65.0627642  82.2356448  39.5573979
  65.2887642  85.3326448  38.0823979  64.8067642  86.3126448  38.1663979
  66.3457642  85.4536448  38.3403979  65.2207642  85.0126448  37.0333979
  62.4617642  83.0766448  39.5163979  62.0017642  83.3016448  40.6273979
  62.4227642  81.8146448  38.9733979  62.8337642  81.6956448  38.0563979
  62.0617642  80.6396448  39.7533979  61.2597642  80.9106448  40.4373979
  61.5227642  79.5596448  38.8063979  60.7337642  79.9856448  38.1893979
  62.3177642  79.2236448  38.1463979  60.9407642  78.3736448  39.5553979
  60.9037642  78.3196448  40.7633979  60.3547642  77.3956448  38.8293979
  60.0727642  76.5786448  39.3483979  60.3737642  77.4416448  37.8223979
  63.2527642  80.1896448  40.6183979  64.1507642  79.5136448  40.1433979
  63.2377642  80.6266448  41.9263979  62.4697642  81.2286448  42.1843979
  64.2747642  80.3756448  42.9203979  65.0017642  79.6806448  42.5003979
  65.0067642  81.6936448  43.2023979  64.3297642  82.4386448  43.6373979
  65.8357642  81.5296448  43.9033979  65.4237642  82.1076448  42.2753979
  63.6917642  79.7416448  44.1993979  62.7717642  80.2686448  44.8133979
  64.2587642  78.5596448  44.6123979  65.0417642  78.2476448  44.0353979
  64.0287642  77.8306448  45.8663979  62.9717642  77.8316448  46.1243979
  64.5067642  76.3826448  45.6653979  65.3957642  76.3836448  45.0363979
  64.7817642  75.9506448  46.6263979  63.4297642  75.4986448  45.0333979
  62.6507642  75.3186448  45.7753979  62.9927642  76.0026448  44.1703979
  64.0247642  74.1626448  44.5773979  64.7407642  74.3446448  43.7743979
  64.5597642  73.6966448  45.4073979  62.9677642  73.2566448  44.0983979
  62.0207642  73.5786448  44.1423979  63.1637642  72.0476448  43.6083979
  64.3397642  71.5326448  43.4603979  65.1867642  72.0726448  43.6703979
  64.4357642  70.5836448  43.1163979  62.1557642  71.3066448  43.2603979
  61.2117642  71.6236448  43.3293979  62.3577642  70.3756448  42.8823979
  64.8117642  78.4446448  47.0273979  65.9777642  78.7536448  46.8723979
  64.1787642  78.5196448  48.2473979  63.2267642  78.1636448  48.2683979
  64.9457642  78.4536448  49.4963979  65.8937642  78.9786448  49.3633979
  64.1657642  79.1256448  50.6483979  63.9877642  80.1716448  50.3963979
  63.1967642  78.6356448  50.7373979  64.8807642  79.0526448  52.0153979
  65.2297642  78.0386448  52.2043979  66.0777642  80.0056448  52.0573979
  65.7707642  81.0346448  51.8393979  66.5457642  79.9956448  53.0463979
  66.8417642  79.7056448  51.3303979  63.9257642  79.4116448  53.1533979
  63.0877642  78.7026448  53.1883979  64.4427642  79.3576448  54.1193979
  63.5197642  80.4206448  53.0323979  65.2567642  76.9776448  49.7913979
  64.3717642  76.1446448  49.6733979  66.5307642  76.6646448  50.2063979
  67.2137642  77.4196448  50.2383979  66.9797642  75.3356448  50.6403979
  66.1557642  74.6376448  50.5203979  68.1657642  74.8346448  49.7843979
  69.0307642  75.4586448  50.0173979  68.5427642  73.3876448  50.1413979
  67.6737642  72.7226448  50.0713979  69.3117642  73.0086448  49.4573979
  68.9637642  73.3186448  51.1513979  67.9337642  74.9406448  48.2633979
  67.8167642  75.9886448  47.9893979  68.8307642  74.5776448  47.7643979
  66.7277642  74.1576448  47.7293979  65.7977642  74.5166448  48.1783979
  66.6427642  74.2916448  46.6463979  66.8217642  73.0856448  47.9313979
  67.3727642  75.3666448  52.1213979  67.8797642  76.3716448  52.5933979
  67.1867642  74.2206448  52.8633979  66.6987642  73.4566448  52.3973979
  67.6787642  74.0316448  54.2303979  68.4657642  74.7616448  54.4213979
  66.5247642  74.2926448  55.2153979  65.9117642  75.1266448  54.8703979
  65.8897642  73.4066448  55.2643979  67.0457642  74.6106448  56.6183979
  67.9097642  73.9826448  56.8303979  67.3707642  75.6526448  56.6423979
  65.8357642  74.3336448  57.9383979  64.8617642  75.8526448  57.7863979
  64.3657642  75.8936448  56.8103979  64.1097642  75.9016448  58.5783979
  65.5087642  76.7256448  57.8983979  68.2597642  72.6226448  54.4433979
  67.5397642  71.6496448  54.3023979  69.5717642  72.4916448  54.8563979
  70.1297642  73.3466448  54.8833979  70.1207642  71.2646448  55.4603979
  69.7677642  70.4006448  54.9003979  71.6557642  71.2586448  55.3963979
  71.9727642  71.3706448  54.3603979  72.0527642  72.0916448  55.9793979
  72.1757642  70.0436448  55.9063979  73.0447642  70.2616448  56.3543979
  69.6127642  71.1346448  56.9003979  70.2247642  71.6256448  57.8343979
  68.3937642  70.5216448  57.0833979  67.9527642  70.1256448  56.2543979
  67.6677642  70.4876448  58.3513979  67.5987642  71.5136448  58.7173979
  66.2457642  69.9876448  58.0813979  65.7937642  70.5806448  57.2843979
  66.2807642  68.9406448  57.7773979  65.2677642  70.1606448  59.5933979
  64.1097642  69.6776448  59.1273979  68.3737642  69.6586448  59.4443979
  68.9247642  68.5996448  59.1853979  68.3017642  70.1576448  60.7313979
  67.7387642  70.9896448  60.8503979  69.0907642  69.6926448  61.8753979
  69.5747642  68.7546448  61.6123979  70.2007642  70.7196448  62.1843979
  69.7327642  71.6776448  62.4123979  70.7357642  70.3926448  63.0743979
  71.2287642  70.9466448  61.0673979  70.7427642  71.5166448  60.2813979
  72.0447642  71.5526448  61.4573979  71.8097642  69.6656448  60.4723979
  72.1537642  68.7186448  61.1483979  71.9417642  69.5766448  59.1313979
  72.2017642  68.6746448  58.7623979  71.5757642  70.3326448  58.5553979
  68.2497642  69.4066448  63.1373979  68.3107642  70.1486448  64.1053979
  67.4967642  68.2416448  63.2103979  67.1477642  67.3516448  62.0963979
  67.9967642  67.1836448  61.4223979  66.3127642  67.7926448  61.5363979
  66.7087642  66.0326448  62.7563979  67.5437642  65.3216448  62.7413979
  65.8627642  65.5646448  62.2363979  66.3627642  66.3896448  64.2153979
  66.5627642  65.5616448  64.9083979  65.3067642  66.6676448  64.2963979
  67.2417642  67.6136448  64.5053979  66.7147642  68.2996448  65.1653979
  68.5887642  67.1936448  65.1243979  69.4527642  66.7256448  64.3903979
  68.7947642  67.2876448  66.4963979  67.9787642  68.0336448  67.4553979
  67.0337642  67.5006448  67.6253979  67.7847642  69.0556448  67.1073979
  68.8267642  68.0436448  68.7383979  68.2167642  68.1196448  69.6463979
  69.5247642  68.8896448  68.7123979  69.6207642  66.7306448  68.6823979
  68.9967642  65.9156448  69.0623979  70.5567642  66.7596448  69.2543979
  69.8607642  66.5556448  67.1803979  70.8217642  66.9946448  66.9173979
  69.8427642  65.0806448  66.7763979  68.7917642  64.4916448  66.5763979
  71.0517642  64.4696448  66.5723979  71.8987642  64.9956448  66.7523979
  71.1337642  63.1306448  66.0053979  70.3987642  63.0776448  65.2043979
  72.4957642  62.8996448  65.3543979  72.6417642  63.6606448  64.5863979
  73.2887642  62.9946448  66.0973979  72.5347642  61.5306448  64.6803979
  71.4757642  61.0876448  64.1763979  73.6187642  60.9226448  64.6163979
  70.7537642  62.0376448  67.0133979  71.3717642  61.8606448  68.0493979
  69.6677642  61.2696448  66.6703979  69.2797642  61.4426448  65.7543979
  69.1007642  60.2006448  67.4853979  68.9647642  60.5796448  68.4983979
  67.7237642  59.8586448  66.8913979  67.0807642  60.7426448  66.9673979
  67.8447642  59.6486448  65.8203979  66.9887642  58.6976448  67.5423979
  66.3637642  57.7126448  66.7513979  66.3877642  57.7896448  65.6753979
  65.7427642  56.6066448  67.3623979  65.2907642  55.8336448  66.7593979
  65.7507642  56.4826448  68.7623979  65.3027642  55.6206448  69.2373979
  66.3527642  57.4796448  69.5453979  66.3787642  57.3906448  70.6153979
  66.9567642  58.5886448  68.9413979  67.4497642  59.3236448  69.5573979
  70.0247642  58.9726448  67.5943979  69.9027642  58.1966448  68.5243979
  71.0207642  58.8166448  66.6523979  71.0487642  59.4706448  65.8743979
  72.0227642  57.7396448  66.6893979  71.5077642  56.7826448  66.7693979
  72.8327642  57.7396448  65.3813979  73.4717642  58.6186448  65.3753979
  73.7007642  56.5076448  65.1403979  73.0827642  55.6026448  65.0853979
  74.2507642  56.6096448  64.1963979  74.4407642  56.3746448  65.9373979
  71.9607642  57.7916448  64.2743979  72.4637642  58.2056448  63.5543979
  72.9617642  57.8636448  67.8973979  73.6037642  56.8996448  68.2623979
  73.0537642  59.0696448  68.5733979  72.4747642  59.8346448  68.2483979
  73.8397642  59.2336448  69.7933979  74.7687642  58.6726448  69.6593979
  74.2317642  60.7076448  69.9853979  74.6277642  61.0886448  69.0443979
  73.3527642  61.2876448  70.2583979  75.3037642  60.8656448  71.0563979
  75.3587642  60.1556448  72.0323979  76.2867642  61.7796448  70.9043979
  77.0657642  61.6026448  71.5093979  76.3837642  62.3106448  70.0303979
  73.1237642  58.6346448  71.0203979  72.0937642  59.1066448  71.4803979
  73.7657642  57.5546448  71.5703979  74.5717642  57.2216448  71.0573979
  73.2787642  56.7026448  72.6553979  72.2077642  56.8606448  72.7843979
  73.4807642  55.2156448  72.2713979  74.5007642  54.9126448  72.5153979
  72.7917642  54.6056448  72.8543979  73.2277642  55.0466448  70.7503979
  72.2797642  55.5346448  70.5273979  74.0277642  55.5796448  70.2463979
  73.1877642  53.4636448  69.8883979  74.6987642  52.7516448  70.5313979
  74.7097642  52.8266448  71.6253979  74.6977642  51.6976448  70.2443979
  75.5907642  53.2436448  70.1253979  73.9517642  57.0896448  73.9753979
  73.4647642  56.7666448  75.0293979  75.0567642  57.9116448  73.9503979
  75.3217642  58.2776448  73.0423979  75.7287642  58.4376448  75.1443979
  75.9017642  57.6056448  75.8313979  77.0897642  59.0416448  74.7483979
  76.9147642  60.0226448  74.3043979  77.6877642  59.1776448  75.6503979
  77.8797642  58.1696448  73.7463979  77.9397642  57.1476448  74.1243979
  77.3567642  58.1466448  72.7883979  79.3017642  58.6806448  73.4853979
  79.8737642  58.6476448  74.4133979  79.7757642  58.0166448  72.7593979
  79.2747642  60.1106448  72.9323979  78.6777642  60.1146448  72.0173979
  78.7977642  60.7656448  73.6683979  80.6327642  60.6156448  72.6443979
  81.1057642  60.0256448  71.9613979  80.5937642  61.5596448  72.2943979
  81.1717642  60.6816448  73.5063979  74.8357642  59.4676448  75.8543979
  74.0027642  60.1196448  75.2353979  75.0137642  59.6776448  77.2013979
  75.6657642  59.0716448  77.6883979  74.4207642  60.8406448  77.8843979
  73.4257642  61.0226448  77.4873979  74.2777642  60.5876448  79.3983979
  75.2477642  60.2546448  79.7613979  73.9187642  61.8676448  80.1783979
  73.0007642  62.3276448  79.7923979  73.7777642  61.6426448  81.2423979
  74.7197642  62.6146448  80.1113979  73.2547642  59.4696448  79.6953979
  73.5257642  58.5756448  79.1363979  73.3297642  59.2226448  80.7493979
  71.7827642  59.7846448  79.4093979  71.6157642  59.9696448  78.3423979
  71.1587642  58.9336448  79.7023979  71.4407642  60.6516448  79.9863979
  75.2507642  62.0936448  77.5893979  74.7427642  63.0566448  77.0403979
  76.5677642  62.0616448  77.9853979  76.8937642  61.2036448  78.4183979
  77.4977642  63.1846448  77.9103979  76.9517642  64.1096448  78.1023979
  78.5447642  63.0056448  79.0213979  78.0297642  62.8586448  79.9733979
  79.1287642  62.1046448  78.8193979  79.4937642  64.1996448  79.1693979
  79.2057642  65.2976448  78.6383979  80.5167642  64.0556448  79.8723979
  78.1827642  63.2886448  76.5363979  78.9107642  62.3926448  76.1443979
  78.0087642  64.4546448  75.8193979  77.4177642  65.1586448  76.2403979
  78.7917642  64.8166448  74.6253979  79.7557642  64.3126448  74.6783979
  78.1037642  64.3886448  73.3163979  77.1377642  64.8896448  73.2433979
  78.9277642  64.7006448  72.0703979  79.9107642  64.2126448  72.1203979
  78.4127642  64.3366448  71.1753979  79.0787642  65.7776448  71.9403979
  77.8897642  63.0016448  73.2343979  77.1937642  62.8966448  72.5623979
  79.0537642  66.3206448  74.6093979  78.1547642  67.1116448  74.8473979
  80.3297642  66.7366448  74.3103979  81.0117642  66.0256448  74.0653979
  80.8137642  68.1126448  74.4333979  79.9747642  68.8036448  74.3463979
  81.4367642  68.2806448  75.8193979  80.7037642  67.9926448  76.5723979
  82.3077642  67.6276448  75.9033979  81.8317642  69.6166448  76.0493979
  82.4257642  69.5926448  76.8293979  81.8307642  68.4486448  73.3443979
  82.5377642  67.5786448  72.8753979  81.8877642  69.7636448  72.9283979
  81.2487642  70.4006448  73.3813979  82.8597642  70.2926448  71.9623979
  83.3207642  69.4566448  71.4323979  82.1307642  71.1766448  70.9243979
  81.4827642  71.8886448  71.4383979  82.8887642  71.7516448  70.3923979
  81.3117642  70.4066448  69.8613979  81.9457642  69.6486448  69.4013979
  80.0387642  69.7436448  70.3963979  79.3957642  70.4666448  70.9123979
  79.4587642  69.3066448  69.5753979  80.2787642  68.9186448  71.0733979
  80.8567642  71.3766448  68.7683979  81.7137642  71.8926448  68.3193979
  80.3297642  70.8346448  67.9723979  80.1777642  72.1276448  69.1863979
  84.0237642  71.0286448  72.6643979  84.9647642  71.4586448  72.0143979
  83.9587642  71.1676448  74.0403979  83.1507642  70.7546448  74.4883979
  85.0117642  71.7296448  74.8883979  85.1207642  72.7896448  74.6553979
  84.6197642  71.5786448  76.3753979  84.5317642  70.5156448  76.6023979
  85.4357642  71.9636448  76.9853979  83.3417642  72.2696448  76.8383979
  82.5787642  72.8606448  76.1043979  83.0767642  72.2126448  78.1663979
  82.2817642  72.7366448  78.5253979  83.7267642  71.7366448  78.7713979
  86.3577642  71.0216448  74.6163979  86.4327642  69.8076448  74.5953979
  87.4727642  71.8016448  74.3913979  87.3627642  72.8056448  74.4393979
  88.7977642  71.2356448  74.0943979  89.5397642  72.0326448  74.1313979
  89.0457642  70.5106448  74.8713979  88.9297642  70.5216448  72.7333979
  89.9797642  69.9596448  72.4593979  87.8597642  70.5296448  71.8533979
  87.0017642  70.9686448  72.1773979  87.8547642  69.8686448  70.5423979
  88.8137642  69.3726448  70.3953979  86.7537642  68.7876448  70.4793979
  85.7737642  69.2526448  70.5673979  86.8097642  68.3016448  69.5043979
  86.8397642  67.7006448  71.5313979  85.8697642  67.3546448  72.1613979
  88.0247642  67.0866448  71.7523979  88.0217642  66.3806448  72.4793979
  88.8237642  67.3136448  71.1863979  87.7187642  70.8436448  69.3623979
  88.6767642  71.0586448  68.6403979  86.4787642  71.4126448  69.1473979
  85.8067642  71.3346448  69.9033979  86.0327642  71.9456448  67.8563979
  86.8647642  71.8946448  67.1483979  84.8897642  71.0776448  67.2873979
  84.0707642  71.0636448  68.0023979  84.5297642  71.5306448  66.3633979
  85.2697642  69.6416448  66.9603979  86.4107642  69.2556448  66.8703979
  84.2637642  68.7566448  66.7663979  84.5547642  67.8136448  66.5553979
  83.3067642  69.0596448  66.8093979  85.6237642  73.4216448  67.9463979
  85.1977642  73.9066448  68.9823979  85.7457642  74.1546448  66.7923979
  86.0047642  73.6306448  65.9503979  85.7297642  75.6106448  66.7293979
  85.5837642  76.0106448  67.7333979  87.1177642  76.0416448  66.2453979
  87.3087642  75.6356448  65.2433979  87.2077642  77.1346448  66.2183979
  87.8947642  75.6496448  66.9143979  84.6087642  76.1736448  65.8393979
  84.0067642  75.4826448  65.0333979  84.3597642  77.5296448  65.9273979
  84.8797642  78.0606448  66.6223979  83.3597642  78.2096448  65.0943979
  82.3837642  77.7636448  65.2873979  83.3077642  79.6866448  65.5053979
  83.0997642  79.7456448  66.5813979  84.2967642  80.1426448  65.3623979
  82.2677642  80.5146448  64.7673979  82.5897642  81.1206448  63.5363979
  83.5727642  80.9876448  63.1053979  81.6317642  81.9006448  62.8633979
  81.8847642  82.3636448  61.9213979  80.3517642  82.0796448  63.4263979
  79.4317642  82.8396448  62.7793979  79.7347642  83.0586448  61.8803979
  80.0287642  81.4766448  64.6603979  79.0537642  81.6266448  65.0953979
  80.9877642  80.6906448  65.3263979  80.7457642  80.2336448  66.2773979
  83.6447642  78.0456448  63.5903979  82.7297642  77.8716448  62.8023979
  84.9717642  78.0256448  63.1903979  85.6547642  78.1706448  63.9213979
  85.4277642  77.7956448  61.8113979  84.9417642  78.5366448  61.1733979
  86.9517642  78.0416448  61.7043979  87.2347642  78.0056448  60.6503979
  87.1667642  79.0486448  62.0673979  87.8177642  77.0296448  62.4773979
  87.4717642  76.9766448  63.5063979  87.6837642  76.0486448  62.0203979
  89.3247642  77.3506448  62.4783979  89.8607642  76.4206448  62.6773979
  89.6217642  77.7046448  61.4903979  89.7357642  78.3736448  63.5523979
  89.1817642  79.3056448  63.4053979  89.4767642  77.9706448  64.5353979
  91.1937642  78.6456448  63.5013979  91.4497642  79.1136448  62.6473979
  91.5117642  79.2476448  64.2653979  91.7427642  77.7886448  63.5793979
  84.9827642  76.4336448  61.2473979  84.6957642  76.3506448  60.0693979
  84.8307642  75.3656448  62.1043979  85.0507642  75.5096448  63.0813979
  84.3047642  74.0596448  61.6803979  84.8167642  73.7526448  60.7663979
  84.5717642  72.9926448  62.7573979  83.9257642  73.1826448  63.6163979
  84.3007642  72.0156448  62.3523979  86.0257642  72.9366448  63.2323979
  86.2557642  72.6786448  64.4333979  86.9547642  73.1326448  62.4133979
  82.7997642  74.1266448  61.3753979  82.3357642  73.5536448  60.4073979
  82.0137642  74.9026448  62.2073979  82.4907642  75.3626448  62.9763979
  80.5707642  75.0846448  62.0263979  80.1087642  74.0976448  61.9783979
  79.9847642  75.8336448  63.2373979  80.2017642  75.2536448  64.1353979
  80.4547642  76.8106448  63.3393979  78.4667642  76.0326448  63.1463979
  78.2397642  76.7866448  62.3903979  78.0197642  75.0936448  62.8223979
  77.6817642  76.5006448  64.7193979  77.8787642  78.3046448  64.6973979
  77.4057642  78.7256448  63.8013979  77.3967642  78.7396448  65.5833979
  78.9417642  78.5756448  64.7043979  80.2487642  75.7876448  60.7043979
  79.4597642  75.2876448  59.9263979  80.8987642  76.9746448  60.4223979
  81.5607642  77.3146448  61.1173979  80.6067642  77.7806448  59.2203979
  79.5727642  77.5646448  58.9463979  80.6527642  79.2966448  59.4863979
  80.3437642  79.8146448  58.5783979  79.6387642  79.6646448  60.5733979
  79.9117642  79.2266448  61.5423979  79.5777642  80.7526448  60.6893979
  78.6497642  79.2866448  60.2943979  82.0367642  79.8186448  59.8733979
  82.7667642  79.5966448  59.0863979  82.0107642  80.9066448  60.0023979
  82.3847642  79.3686448  60.8073979  81.3927642  77.3726448  57.9723979
  81.2687642  78.0196448  56.9473979  82.1417642  76.2106448  58.0083979
  82.2647642  75.7686448  58.9143979  82.6707642  75.5486448  56.8063979
  83.3987642  76.2076448  56.3353979  83.3637642  74.2416448  57.2163979
  84.0097642  74.4346448  58.0753979  82.6107642  73.5076448  57.5093979
  84.2167642  73.6786448  56.0693979  83.5797642  73.3936448  55.2303979
  84.9207642  74.4426448  55.7363979  84.9967642  72.4526448  56.5413979
  85.5447642  72.7016448  57.4513979  84.2937642  71.6516448  56.7563979
  85.9807642  71.9806448  55.4703979  85.4307642  71.7136448  54.5623979
  86.6637642  72.7996448  55.2283979  86.7407642  70.8166448  55.9663979
  86.1207642  70.0416448  56.1743979  87.4247642  70.4816448  55.2873979
  87.2577642  71.0526448  56.8093979  81.5807642  75.2586448  55.7653979
  81.8547642  75.3436448  54.5853979  80.3247642  74.9306448  56.2353979
  80.2107642  74.9156448  57.2413979  79.1747642  74.5766448  55.3963979
  79.3857642  74.8816448  54.3723979  78.9347642  73.0636448  55.4243979
  78.5497642  72.7826448  56.4143979  78.1377642  72.8206448  54.7093979
  80.1457642  72.2076448  55.1183979  80.7747642  71.4916448  56.1533979
  80.4007642  71.5756448  57.1653979  81.8877642  70.6806448  55.8673979
  82.3667642  70.1246448  56.6553979  82.3867642  70.6116448  54.5483979
  83.4897642  69.8686448  54.2793979  83.8697642  69.4356448  55.0743979
  81.7477642  71.3256448  53.5143979  82.1187642  71.2586448  52.5013979
  80.6277642  72.1256448  53.8013979  80.1427642  72.6826448  53.0093979
  77.8947642  75.2546448  55.8903979  77.5997642  75.1656448  57.0723979
  77.0567642  75.8936448  54.9933979  77.1297642  75.8186448  53.5263979
  76.9367642  74.7916448  53.1893979  78.1107642  76.1366448  53.1613979
  76.0287642  76.7656448  53.0183979  75.1897642  76.1786448  52.6263979
  76.3887642  77.4196448  52.2153979  75.5807642  77.5746448  54.2523979
  74.5307642  77.8706448  54.2253979  76.1897642  78.4786448  54.3543979
  75.8797642  76.6346448  55.4183979  76.1067642  77.2216448  56.3083979
  74.6967642  75.7046448  55.7223979  74.5717642  74.6246448  55.1693979
  73.7417642  76.1656448  56.6023979  73.9557642  77.0126448  57.1133979
  72.4157642  75.5386448  56.7193979  72.5327642  74.4546448  56.7173979
  71.7187642  75.9636448  58.0313979  71.7377642  77.0536448  58.0873979
  70.2387642  75.5376448  58.0353979  70.1317642  74.4656448  57.8243979
  69.7797642  75.7416448  59.0043979  69.6617642  76.0966448  57.2873979
  72.4497642  75.4276448  59.2823979  73.4707642  75.8076448  59.2893979
  71.9547642  75.8216448  60.1693979  72.4997642  73.8986448  59.4053979
  73.0487642  73.4446448  58.5733979  73.0067642  73.6106448  60.3323979
  71.4887642  73.4806448  59.4293979  71.5487642  75.8776448  55.5043979
  70.9367642  74.9986448  54.9223979  71.4697642  77.2026448  55.1353979
  72.0257642  77.8596448  55.6633979  70.6767642  77.6906448  54.0113979
  69.9047642  76.9576448  53.7863979  69.9897642  79.0096448  54.3663979
  70.7467642  79.7576448  54.6393979  69.4907642  79.4006448  53.4723979
  68.9497642  78.9066448  55.4623979  67.6327642  78.5356448  55.1413979
  67.3867642  78.2486448  54.1303979  66.6387642  78.5326448  56.1323979
  65.6267642  78.2466448  55.8843979  66.9697642  78.8856448  57.4503979
  66.2107642  78.8786448  58.2173979  68.2967642  79.2076448  57.7813979
  68.5607642  79.4516448  58.8003979  69.2897642  79.2096448  56.7893979
  70.3107642  79.4506448  57.0503979  71.5047642  77.8876448  52.7473979
  72.6357642  78.3286448  52.7993979  70.8497642  77.6566448  51.5673979
  69.8907642  77.3306448  51.6413979  71.3117642  78.1006448  50.2543979
  71.7257642  79.1056448  50.3413979  72.4567642  77.2026448  49.7583979
  72.8497642  77.6076448  48.8183979  73.2937642  77.2936448  50.4623979
  72.1927642  75.7446448  49.5693979  71.7737642  75.1766448  48.4183979
  71.5407642  75.7136448  47.5073979  71.7517642  73.8076448  48.5643979
  71.4367642  73.1786448  47.8333979  72.1857642  73.4166448  49.8093979
  72.4067642  72.1606448  50.3933979  72.2777642  71.2616448  49.8123979
  72.8097642  72.0946448  51.7363979  72.9917642  71.1376448  52.2043979
  72.9807642  73.2816448  52.4703979  73.2907642  73.2346448  53.5043979
  72.7877642  74.5376448  51.8623979  72.9587642  75.4376448  52.4343979
  72.3977642  74.6406448  50.5093979  70.1097642  78.1906448  49.3003979
  68.9637642  78.1786448  49.7313979  70.3687642  78.3506448  47.9633979
  71.3467642  78.3446448  47.6713979  69.3637642  78.5106448  46.9213979
  68.3677642  78.4266448  47.3573979  69.5347642  79.9336448  46.3653979
  69.3387642  80.6436448  47.1693979  70.5667642  80.0596448  46.0423979
  68.4337642  80.2936448  44.9653979  68.8347642  81.5536448  44.7593979
  69.4917642  77.4116448  45.8543979  70.5697642  76.9036448  45.5903979
  68.3567642  77.0766448  45.1593979  67.5127642  77.5746448  45.4263979
  68.4257642  76.5306448  43.8013979  69.4597642  76.5646448  43.4643979
  67.9397642  75.0796448  43.7023979  66.8827642  75.0946448  43.9573979
  68.0297642  74.7666448  42.6623979  68.6387642  74.0106448  44.5583979
  69.6157642  73.7876448  44.1233979  68.8017642  74.3986448  45.5603979
  67.7897642  72.7236448  44.6333979  66.7577642  72.6286448  43.9313979
  68.1407642  71.7696448  45.3613979  67.5967642  77.3966448  42.8453979
  66.5667642  77.9336448  43.2133979  68.0287642  77.4986448  41.5493979
  68.8767642  76.9806448  41.3203979  67.3657642  78.2516448  40.4823979
  66.4097642  78.6226448  40.8493979  68.2167642  79.4676448  40.0743979
  69.2407642  79.1416448  39.8873979  67.6817642  80.1456448  38.8083979
  66.6247642  80.4106448  38.9253979  68.2417642  81.0556448  38.5813979
  67.7807642  79.4866448  37.9373979  68.2277642  80.4966448  41.2093979
  68.6607642  80.0616448  42.1173979  68.8307642  81.3706448  40.9463979
  67.2117642  80.8306448  41.4403979  67.0727642  77.3376448  39.2983979
  67.9017642  76.5396448  38.9003979  65.8457642  77.4556448  38.6953979
  65.2057642  78.1526448  39.0713979  65.4777642  76.6796448  37.5143979
  65.8887642  75.6756448  37.6133979  63.9597642  76.5536448  37.4343979
  63.5997642  76.0006448  38.3113979  63.5197642  77.5526448  37.4903979
  63.4507642  75.8776448  36.2033979  62.8037642  76.4756448  35.1773979
  62.5987642  77.5386448  35.1043979  62.4357642  75.5236448  34.2483979
  61.9187642  75.7406448  33.4093979  62.8747642  74.2666448  34.6093979
  62.7297642  72.9956448  34.0353979  62.1617642  72.8716448  33.1283979
  63.3187642  71.8906448  34.6733979  63.2177642  70.8976448  34.2553979
  64.0787642  72.0746448  35.8423979  64.5547642  71.2216448  36.3063979
  64.2067642  73.3526448  36.4163979  64.7737642  73.4836448  37.3253979
  63.5757642  74.4726448  35.8333979  66.0237642  77.2776448  36.2133979
  65.7707642  78.4336448  35.9093979  66.7027642  76.4216448  35.3743979
  66.9097642  75.4916448  35.7183979  66.9557642  76.6866448  33.9583979
  66.8897642  77.7586448  33.7693979  68.3737642  76.2326448  33.5923979
  69.1017642  76.7736448  34.1913979  68.4817642  75.1736448  33.8203979
  68.6407642  76.4426448  32.1013979  68.1607642  77.4556448  31.5503979
  69.2247642  75.5166448  31.4863979  65.9407642  75.9716448  33.0443979
  65.9207642  74.7496448  32.9513979  65.1087642  76.7636448  32.2743979
  65.1457642  77.7666448  32.4563979  64.1487642  76.2236448  31.3013979
  63.5217642  75.5026448  31.8213979  63.2457642  77.3396448  30.7503979
  62.4717642  76.8626448  30.1453979  62.7537642  77.8296448  31.5913979
  63.9377642  78.4126448  29.8823979  64.6757642  78.9566448  30.4753979
  64.4317642  77.9536448  29.0253979  62.8487642  79.3776448  29.3873979
  62.1177642  78.8076448  28.8103979  62.3497642  79.8006448  30.2603979
  63.3667642  80.5236448  28.5143979  64.2177642  81.0036448  29.0103979
  63.7187642  80.1146448  27.5623979  62.2867642  81.5156448  28.2833979
  61.9377642  81.8926448  29.1683979  62.5977642  82.3086448  27.7393979
  61.4787642  81.0966448  27.8453979  64.7867642  75.4456448  30.1553979
  64.1337642  74.5826448  29.5903979  66.0647642  75.7646448  29.7683979
  66.5627642  76.4736448  30.3053979  66.6787642  75.2066448  28.5673979
  65.9237642  75.1586448  27.7813979  67.7797642  76.1536448  28.0863979
  68.5267642  76.2846448  28.8793979  68.3047642  75.7026448  27.2343979
  67.2287642  77.5116448  27.6723979  66.4607642  77.6256448  26.4983979
  66.2727642  76.7516448  25.8923979  65.9607642  78.8756448  26.0943979
  65.4047642  78.9636448  25.1743979  66.1957642  80.0096448  26.8873979
  65.8337642  80.9776448  26.5723979  66.8987642  79.8866448  28.0963979
  67.0557642  80.7546448  28.7183979  67.4337642  78.6446448  28.4803979
  68.0057642  78.5646448  29.3943979  67.1527642  73.7696448  28.7853979
  66.6747642  72.8706448  28.1183979  68.0487642  73.5316448  29.8023979
  68.3587642  74.3466448  30.3393979  68.6237642  72.2106448  30.1043979
  68.8367642  71.7076448  29.1603979  69.9457642  72.3926448  30.8503979
  70.3917642  71.4146448  31.0323979  70.6357642  72.9736448  30.2403979
  69.7347642  73.0546448  32.0813979  69.6097642  74.0506448  31.8843979
  67.7027642  71.2786448  30.9063979  68.0777642  70.1516448  31.1793979
  66.4827642  71.7736448  31.3383979  66.3067642  72.7386448  31.0873979
  65.5457642  71.0986448  32.2563979  64.8047642  71.8416448  32.5343979
  64.8057642  69.9206448  31.5703979  65.5257642  69.1446448  31.3053979
  64.1157642  69.4796448  32.2913979  63.9857642  70.2716448  30.3153979
  64.6647642  70.4716448  29.4863979  63.3777642  69.4026448  30.0553979
  63.0517642  71.4746448  30.5263979  62.4017642  71.2626448  31.3743979
  63.6427642  72.3576448  30.7653979  62.1827642  71.7846448  29.3013979
  61.7067642  70.8636448  28.9523979  61.3917642  72.4716448  29.6133979
  62.9817642  72.4196448  28.2223979  63.7127642  71.8096448  27.8843979
  62.4137642  72.7096448  27.4263979  63.4277642  73.2656448  28.5703979
  66.1687642  70.7126448  33.6083979  65.7547642  69.7426448  34.2213979
  67.1837642  71.5056448  34.1193979  67.4427642  72.3206448  33.5713979
  67.8737642  71.2236448  35.3903979  67.2747642  70.4896448  35.9283979
  69.2447642  70.5706448  35.1323979  69.7827642  71.1586448  34.3923979
  69.8247642  70.5656448  36.0583979  69.0907642  69.1146448  34.6533979
  68.7787642  68.5006448  35.4993979  68.3107642  69.0536448  33.8963979
  70.3577642  68.5046448  34.0393979  71.1757642  68.5246448  34.7613979
  70.1277642  67.4656448  33.7963979  70.7607642  69.2566448  32.7613979
  69.8567642  69.6766448  32.3183979  71.4167642  70.0936448  33.0253979
  71.4077642  68.3596448  31.7733979  70.7777642  67.6216448  31.4883979
  71.6307642  68.8316448  30.8963979  72.2617642  67.9546448  32.1243979
  67.9747642  72.4316448  36.3233979  68.3097642  73.5386448  35.9453979
  67.7087642  72.1356448  37.6333979  67.3937642  71.1956448  37.8063979
  67.9417642  72.9946448  38.7883979  67.4637642  73.9626448  38.6293979
  67.2647642  72.3186448  39.9873979  67.5607642  71.2646448  40.0333979
  67.6267642  72.7786448  40.9173979  65.7707642  72.4286448  39.9653979
  64.8817642  71.5266448  39.4833979  65.1297642  70.5636448  39.0573979
  63.5997642  72.0396448  39.5863979  62.7777642  71.5486448  39.2503979
  63.6007642  73.2926448  40.1683979  62.5907642  74.2056448  40.5103979
  61.5567642  73.9636448  40.3233979  62.9477642  75.4316448  41.1053979
  62.1867642  76.1426448  41.3903979  64.3027642  75.7386448  41.3273979
  64.5797642  76.6826448  41.7763979  65.3047642  74.8176448  40.9733979
  66.3427642  75.0526448  41.1513979  64.9797642  73.5706448  40.4023979
  69.4427642  73.2376448  39.0183979  70.1957642  72.3106448  39.2723979
  69.8667642  74.5426448  38.9113979  69.1357642  75.2266448  38.7223979
  71.1797642  75.0736448  39.2933979  71.9537642  74.3516448  39.0353979
  71.4637642  76.4126448  38.5573979  70.7177642  77.1406448  38.8833979
  72.8577642  76.9506448  38.9283979  73.6387642  76.2506448  38.6143979
  73.0597642  77.9126448  38.4473979  72.9567642  77.1086448  40.0083979
  71.3727642  76.2836448  37.0183979  72.2727642  75.8026448  36.6483979
  70.5157642  75.6716448  36.7383979  71.2197642  77.6156448  36.2813979
  72.0847642  78.2646448  36.4433979  71.1467642  77.4376448  35.2013979
  70.3137642  78.1396448  36.6103979  71.1887642  75.2816448  40.8133979
  70.2887642  75.8976448  41.3483979  72.2417642  74.7876448  41.5323979
  73.0037642  74.3886448  40.9893979  72.5027642  75.0686448  42.9493979
  71.5607642  75.1936448  43.4823979  73.2567642  73.8826448  43.5683979
  74.1307642  73.6626448  42.9533979  73.6997642  74.0646448  45.0123979
  72.8337642  74.1846448  45.6763979  74.2777642  73.1896448  45.3273979
  74.3537642  74.9356448  45.1253979  72.4267642  72.7416448  43.6133979
  73.0207642  71.9726448  43.6043979  73.3047642  76.3676448  43.0693979
  74.2247642  76.5986448  42.2993979  72.9377642  77.2576448  44.0563979
  72.1547642  77.0026448  44.6593979  73.5467642  78.5816448  44.2383979
  74.5327642  78.5616448  43.7743979  72.7267642  79.7196448  43.5793979
  72.0157642  80.1126448  44.3053979  73.6627642  80.8626448  43.1703979
  74.3827642  80.5096448  42.4243979  73.0997642  81.6956448  42.7323979
  74.2217642  81.2466448  44.0333979  71.9127642  79.3296448  42.3383979
  71.1667642  78.5646448  42.5863979  71.3697642  80.1996448  41.9503979
  72.5677642  78.9426448  41.5493979  73.7357642  78.9106448  45.7183979
  72.8047642  78.8426448  46.5023979  74.9627642  79.3896448  46.0853979
  75.6987642  79.3766448  45.3763979  75.2527642  80.0706448  47.3453979
  74.3407642  80.1686448  47.9313979  76.2327642  79.2336448  48.1723979
  75.7167642  78.3646448  48.5813979  77.0357642  78.8816448  47.5193979
  76.8447642  80.0656448  49.2973979  78.0837642  80.1566448  49.3243979
  76.1247642  80.7386448  50.0673979  75.8277642  81.4686448  47.0463979
  76.7487642  81.5836448  46.2523979  75.2917642  82.5856448  47.6743979
  74.0587642  82.6196448  48.4673979  74.1897642  82.0746448  49.4073979
  73.2337642  82.1806448  47.8913979  73.7957642  84.1096448  48.7353979
  74.1657642  84.3856448  49.7313979  72.7297642  84.3526448  48.6883979
  74.6107642  84.8446448  47.6563979  74.8727642  85.8726448  47.9373979
  74.0557642  84.8646448  46.7093979  75.8317642  83.9296448  47.5123979
  76.2577642  84.0426448  46.5183979  76.9127642  84.2926448  48.5453979
  77.5047642  85.3516448  48.4123979  77.1557642  83.4696448  49.6373979
  76.6837642  82.5606448  49.6643979  77.8747642  83.9356448  50.8413979
  78.4717642  84.7986448  50.5563979  76.8757642  84.4416448  51.9123979
  76.3497642  85.2956448  51.4863979  75.8127642  83.4186448  52.3383979
  76.2577642  82.5466448  52.8293979  75.1017642  83.8736448  53.0383979
  75.2397642  83.0616448  51.4753979  77.5787642  84.9316448  53.1863979
  78.3367642  85.6856448  52.9443979  76.8567642  85.3756448  53.8823979
  78.0807642  84.1046448  53.7073979  78.8987642  82.9656448  51.4323979
  80.0157642  83.3826448  51.6783979  78.5307642  81.6756448  51.7333979
  77.6437642  81.3396448  51.3523979  79.3667642  80.7776448  52.5353979
  79.6917642  81.3106448  53.4303979  78.4827642  79.6016448  52.9653979
  77.6377642  79.9806448  53.5353979  78.1047642  79.0856448  52.0823979
  79.2587642  78.6096448  53.8063979  79.9017642  77.7216448  53.3093979
  79.2307642  78.7616448  55.1483979  79.9247642  78.2086448  55.6493979
  78.7687642  79.5536448  55.5483979  80.6527642  80.3206448  51.8123979
  81.7087642  80.2396448  52.4193979  80.5527642  80.0636448  50.4673979
  79.5977642  80.1166448  50.1123979  81.6137642  79.6446448  49.5503979
  82.5607642  79.9986448  49.9583979  81.6237642  78.0986448  49.5303979
  81.6307642  77.7346448  50.5603979  80.6927642  77.7596448  49.0723979
  82.8137642  77.4586448  48.7883979  82.9307642  77.9066448  47.8073979
  84.1217642  77.6246448  49.5653979  84.0457642  77.1556448  50.5553979
  84.9527642  77.1616448  49.0213979  84.3557642  78.6866448  49.7043979
  82.5787642  75.9646448  48.5653979  81.6557642  75.8066448  47.9933979
  83.4127642  75.5326448  48.0013979  82.4877642  75.4336448  49.5223979
  81.4667642  80.2916448  48.1493979  82.3927642  80.2586448  47.3543979
  80.2957642  80.9716448  47.8563979  79.5397642  80.8436448  48.5333979
  80.0187642  81.7876448  46.6603979  78.9817642  82.1036448  46.7403979
  80.8567642  83.0856448  46.6623979  81.9137642  82.8456448  46.5323979
  80.5377642  83.6966448  45.8173979  80.6677642  83.8866448  47.9653979
  79.6517642  83.7326448  48.3203979  81.3437642  83.4986448  48.7293979
  80.8757642  85.4036448  47.8183979  80.2087642  85.7786448  47.0413979
  80.5957642  85.8706448  48.7643979  82.3247642  85.7786448  47.4853979
  82.9797642  85.3496448  48.2513979  82.5967642  85.3336448  46.5243979
  82.5247642  87.2496448  47.4283979  82.2947642  87.7036448  48.3003979
  83.5017642  87.4616448  47.2233979  82.0167642  87.6866448  46.6633979
  80.0707642  80.9906448  45.3503979  80.6647642  81.4216448  44.3753979
  79.4477642  79.7616448  45.3363979  78.9437642  79.4976448  46.1753979
  79.4457642  78.8336448  44.1923979  80.1197642  79.2426448  43.4423979
  80.0257642  77.4596448  44.5673979  79.8757642  76.7716448  43.7333979
  81.5257642  77.5636448  44.8423979  81.7167642  78.2086448  45.7093979
  81.9557642  76.5766448  45.0433979  82.0457642  77.9946448  43.9773979
  79.4167642  76.9276448  45.7183979  79.6477642  75.9836448  45.7733979
  78.0867642  78.7296448  43.4883979  77.0317642  78.9246448  44.0663979
  78.1527642  78.4696448  42.1333979  79.0737642  78.2746448  41.7643979
  77.0677642  78.5906448  41.1493979  76.0977642  78.5146448  41.6423979
  77.1827642  79.9586448  40.4183979  78.1527642  79.9926448  39.9173979
  76.1237642  80.0946448  39.3103979  75.1087642  80.0176448  39.7193979
  76.2277642  81.0606448  38.7993979  76.2537642  79.3206448  38.5423979
  77.0987642  81.1836448  41.3623979  76.5047642  81.9746448  40.9053979
  76.6157642  80.9096448  42.2993979  78.4807642  81.7716448  41.6673979
  78.9767642  82.0976448  40.7453979  78.3817642  82.6346448  42.3333979
  79.1277642  81.0366448  42.1573979  77.2247642  77.4356448  40.1523979
  78.1447642  77.4576448  39.3533979  76.3557642  76.3656448  40.2123979
  75.6117642  76.3876448  40.9123979  76.6127642  75.1266448  39.4573979
  76.9897642  75.4156448  38.4753979  77.7327642  74.3186448  40.1623979
  78.1977642  73.6656448  39.4243979  78.5007642  75.0146448  40.5053979
  77.2767642  73.4656448  41.3643979  76.5447642  74.0296448  41.9463979
  76.7827642  72.5706448  40.9763979  78.4317642  73.0336448  42.2883979
  79.4827642  72.5936448  41.7663979  78.2547642  73.0776448  43.5323979
  75.3597642  74.2616448  39.2263979  74.5237642  74.1146448  40.0993979
  75.2227642  73.5966448  38.0233979  75.9597642  73.7176448  37.3403979
  74.3707642  72.4036448  37.9283979  73.4947642  72.5366448  38.5653979
  73.8667642  72.1376448  36.5033979  74.7047642  71.9666448  35.8263979
  73.2507642  71.2366448  36.5333979  73.0017642  73.2866448  35.9843979
  72.3007642  73.5626448  36.7703979  73.6317642  74.1426448  35.7483979
  72.1887642  72.9156448  34.7523979  72.5347642  72.0626448  33.9633979
  71.0097642  73.5486448  34.5653979  70.4897642  73.2626448  33.7393979
  70.6297642  74.1776448  35.2543979  75.1507642  71.1956448  38.4443979
  76.2287642  70.8936448  37.9603979  74.5817642  70.4606448  39.4573979
  73.6827642  70.7656448  39.8093979  75.2657642  69.3196448  40.0723979
  76.3227642  69.5766448  40.1643979  74.7587642  69.0436448  41.4973979
  73.6867642  68.8526448  41.4673979  75.4767642  67.8346448  42.1063979
  76.5617642  67.9946448  42.1433979  75.1227642  67.6546448  43.1253979
  75.2787642  66.9216448  41.5363979  75.0227642  70.2426448  42.4173979
  74.5407642  71.1526448  42.0383979  74.6377642  70.0416448  43.4243979
  76.1007642  70.4426448  42.4973979  75.1777642  68.0896448  39.1653979
  74.2397642  67.3076448  39.2343979  76.2397642  67.9176448  38.3013979
  76.8657642  68.7166448  38.2253979  76.5257642  66.6966448  37.5363979
  75.6257642  66.3856448  37.0013979  77.6327642  67.0306448  36.5173979
  77.2857642  67.8606448  35.8973979  78.5217642  67.3656448  37.0523979
  78.0127642  65.8726448  35.5813979  78.3017642  64.9926448  36.1573979
  77.1467642  65.6176448  34.9683979  79.1717642  66.2846448  34.6593979
  79.2227642  65.5906448  33.8223979  78.9597642  67.2696448  34.2373979
  80.4737642  66.3226448  35.3603979  80.7387642  67.1996448  35.8003979
  81.4017642  65.3796448  35.3553979  81.2437642  64.2166448  34.7863979
  80.3837642  63.9896448  34.2973979  81.9927642  63.5476448  34.8193979
  82.5427642  65.5866448  35.9383979  82.7167642  66.4266448  36.4713979
  83.2977642  64.9106448  35.8463979  76.8967642  65.5506448  38.4833979
  76.2307642  64.5326448  38.5083979  77.9487642  65.7816448  39.3453979
  78.3927642  66.6846448  39.2563979  78.4487642  64.8396448  40.3523979
  77.9337642  63.8866448  40.2293979  79.9567642  64.5756448  40.1613979
  80.4927642  65.5216448  40.2583979  80.2937642  63.9166448  40.9643979
  80.3567642  63.9406448  38.8193979  80.0237642  64.5796448  38.0003979
  81.8777642  63.8326448  38.7663979  82.2567642  63.1966448  39.5783979
  82.2047642  63.3906448  37.8183979  82.3447642  64.8206448  38.8603979
  79.7747642  62.5406448  38.6293979  78.6787642  62.5586448  38.6103979
  80.1137642  62.1116448  37.6783979  80.0987642  61.8686448  39.4333979
  78.1047642  65.2976448  41.7743979  77.0347642  64.9876448  42.2673979
  79.0217642  66.0646448  42.4553979  79.8797642  66.3156448  41.9783979
  78.9127642  66.3696448  43.8793979  77.8587642  66.4746448  44.1413979
  79.4657642  65.1836448  44.6763979  78.9757642  64.2596448  44.3423979
  80.5397642  65.0626448  44.4823979  79.2237642  65.3256448  46.1493979
  77.9687642  65.2696448  46.7533979  78.1967642  65.4636448  48.0613979
  77.4367642  65.4746448  48.8263979  79.5027642  65.6676448  48.2933979
  79.9007642  65.8966448  49.1933979  80.1717642  65.5816448  47.0943979
  81.2307642  65.7096448  46.9183979  79.6117642  67.6866448  44.2273979
  80.7157642  67.9496448  43.7793979  78.8897642  68.5596448  45.0043979
  78.0257642  68.2036448  45.3903979  79.2947642  69.9286448  45.3333979
  79.7517642  70.3856448  44.4533979  78.0517642  70.7416448  45.6953979
  77.3257642  70.6896448  44.8853979  77.6067642  70.3236448  46.6013979
  78.3957642  72.0916448  45.9113979  78.2787642  72.5816448  45.0153979
  80.2907642  69.9916448  46.4953979  80.1807642  69.2456448  47.4533979
  81.2177642  71.0166448  46.4623979  81.1927642  71.5946448  45.6313979
  82.0417642  71.4406448  47.6133979  82.5867642  70.5826448  48.0123979
  83.0437642  72.5066448  47.1433979  82.5077642  73.3166448  46.6463979
  83.5567642  72.9176448  48.0163979  84.1037642  71.9206448  46.2033979
  84.7057642  71.2066448  46.7683979  83.6367642  71.3896448  45.3713979
  85.0297642  73.0076448  45.6503979  85.2337642  73.7516448  46.4223979
  85.9717642  72.5276448  45.3973979  84.4617642  73.6936448  44.3993979
  84.1667642  72.9306448  43.6723979  83.5717642  74.2676448  44.6723979
  85.4867642  74.5776448  43.7993979  86.2947642  74.0346448  43.5013979
  85.1427642  75.1146448  43.0063979  85.8297642  75.2466448  44.4883979
  81.2047642  71.9996448  48.7773979  81.6887642  72.0826448  49.8873979
  79.9257642  72.4196448  48.4803979  79.6467642  72.3166448  47.5103979
  78.9497642  73.0036448  49.4023979  79.4387642  73.7756448  49.9993979
  77.8547642  73.6256448  48.5123979  78.3257642  74.1556448  47.6823979
  77.2747642  72.8016448  48.0953979  76.8617642  74.5896448  49.1753979
  76.4347642  74.1366448  50.0693979  77.5407642  75.9116448  49.5283979
  77.9547642  76.3906448  48.6313979  76.8177642  76.5996448  49.9793979
  78.3547642  75.7566448  50.2463979  75.7357642  74.8826448  48.1803979
  75.2307642  73.9566448  47.8793979  74.9847642  75.5406448  48.6333979
  76.1257642  75.3736448  47.2783979  78.3277642  71.9686448  50.3563979
  77.9337642  72.3096448  51.4573979  78.1937642  70.6706448  49.9013979
  78.6407642  70.4386448  49.0243979  77.5627642  69.6106448  50.6833979
  76.6077642  69.9906448  51.0373979  77.2787642  68.4116448  49.7723979
  78.2187642  68.0016448  49.3823979  76.7647642  67.6196448  50.3343979
  76.6447642  68.6986448  48.9253979  78.4477642  69.2096448  51.8833979
  79.6227642  68.9366448  51.6863979  77.8927642  69.1326448  53.1593979
  76.5047642  69.4356448  53.5333979  75.8767642  68.5606448  53.3243979
  76.1097642  70.3166448  53.0133979  76.5577642  69.6926448  55.0433979
  75.6207642  69.4166448  55.5423979  76.7507642  70.7576448  55.2223979
  77.7457642  68.8656448  55.5483979  77.4077642  67.8506448  55.7993979
  78.2237642  69.3066448  56.4333979  78.6927642  68.8306448  54.3423979
  79.4337642  69.6216448  54.4493979  79.4067642  67.4796448  54.2713979
  78.8507642  66.4856448  53.8303979  80.6637642  67.4406448  54.8333979
  81.0397642  68.3346448  55.1303979  81.4277642  66.2206448  55.1273979
  80.7107642  65.4406448  55.3893979  82.1967642  65.7436448  53.8713979
  82.8387642  64.9076448  54.1533979  81.4737642  65.3756448  53.1423979
  83.0587642  66.8306448  53.2013979  82.4137642  67.6046448  52.7803979
  83.6907642  67.2806448  53.9643979  83.9857642  66.3086448  52.0923979
  84.6917642  67.1036448  51.8483979  84.5487642  65.4576448  52.4743979
  83.2527642  65.8986448  50.8103979  82.6597642  65.0006448  51.0133979
  82.5687642  66.7016448  50.5203979  84.2167642  65.6306448  49.7123979
  84.9107642  64.9526448  49.9953979  83.7467642  65.2486448  48.8983979
  84.7277642  66.4766448  49.4513979  82.3257642  66.4076448  56.3573979
  82.6257642  67.5266448  56.7423979  82.8147642  65.2706448  56.9563979
  82.4967642  64.3906448  56.5713979  83.7117642  65.2386448  58.1193979
  84.2827642  64.3096448  58.0913979  84.4157642  66.0686448  58.0723979
  82.9807642  65.3246448  59.4623979  82.1027642  66.1476448  59.6483979
  83.3817642  64.4476448  60.4473979  84.1577642  63.8366448  60.2163979
  82.6177642  64.1626448  61.6763979  81.6127642  63.8536448  61.3903979
  83.2657642  62.9806448  62.4263979  84.3237642  63.1946448  62.5823979
  82.6237642  62.6846448  63.7853979  81.5467642  62.5026448  63.6823979
  83.0857642  61.8006448  64.2423979  82.7727642  63.5206448  64.4813979
  83.1377642  61.7146448  61.5753979  83.6207642  61.8326448  60.5973979
  83.6197642  60.8606448  62.0663979  82.0837642  61.4596448  61.4083979
  82.4547642  65.3876448  62.5793979  81.3897642  65.5996448  63.1293979
  83.5087642  66.2696448  62.6753979  84.3637642  66.0056448  62.2073979
  83.4767642  67.4926448  63.4743979  83.1837642  67.2356448  64.4943979
  84.8957642  68.0706448  63.4943979  85.2467642  68.2976448  62.4803979
  84.9277642  68.9976448  64.0793979  85.5937642  67.3566448  63.9503979
  82.4547642  68.5116448  62.9413979  81.6107642  68.9936448  63.6743979
  82.4817642  68.8006448  61.5953979  83.2427642  68.4146448  61.0543979
  81.4997642  69.6506448  60.9223979  81.4547642  70.6196448  61.4253979
  81.9657642  69.8666448  59.4783979  81.9397642  68.9176448  58.9383979
  81.2887642  70.5736448  58.9963979  83.6587642  70.5286448  59.4543979
  83.7017642  70.8066448  58.1503979  80.0917642  69.0276448  60.9653979
  79.1047642  69.7216448  61.1423979  79.9877642  67.6586448  60.8533979
  80.8417642  67.1506448  60.6353979  78.7407642  66.9056448  60.9733979
  77.9737642  67.4276448  60.3993979  78.9177642  65.5196448  60.3433979
  79.8587642  65.0806448  60.6763979  78.0967642  64.8706448  60.6513979
  78.9067642  65.6766448  58.5303979  79.1917642  64.3966448  58.2573979
  78.1927642  66.8276448  62.4103979  77.0167642  66.5816448  62.5653979
  78.9747642  67.1616448  63.4953979  79.9767642  67.2536448  63.3473979
  78.4147642  67.4376448  64.8333979  77.8017642  66.5886448  65.1443979
  79.5777642  67.5886448  65.8343979  80.2967642  66.7856448  65.6633979
  80.0807642  68.5306448  65.6233979  79.2177642  67.5936448  67.3283979
  80.1127642  67.9096448  67.8693979  78.4467642  68.3376448  67.5303979
  78.7847642  66.2146448  67.8533979  79.6647642  65.4346448  68.2853979
  77.5767642  65.8926448  67.8183979  77.5007642  68.6876448  64.8093979
  76.7457642  68.9336448  65.7323979  77.5397642  69.5076448  63.6873979
  78.2157642  69.2336448  62.9803979  76.7757642  70.7526448  63.5033979
  76.0747642  70.8496448  64.3323979  77.7557642  71.9446448  63.5283979
  78.4727642  71.8336448  62.7133979  77.1907642  72.8566448  63.3413979
  78.5457642  72.1416448  64.8383979  79.3277642  71.3836448  64.9103979
  79.0287642  73.1176448  64.7953979  77.6607642  72.0546448  66.0903979
  76.6167642  72.2086448  65.8173979  77.7647642  71.0506448  66.5053979
  77.9997642  73.0436448  67.1293979  78.5787642  73.8226448  66.8743979
  77.5397642  72.9856448  68.3673979  76.7177642  72.0546448  68.7403979
  76.2987642  71.4436448  68.0543979  76.4067642  72.0066448  69.7133979
  77.8897642  73.8586448  69.2643979  78.4927642  74.6236448  69.0543979
  77.4797642  73.7506448  70.2023979  75.8897642  70.7926448  62.2493979
  74.8417642  71.4116448  62.2863979  76.2837642  70.1206448  61.1163979
  77.2207642  69.7276448  61.1473979  75.5597642  70.1266448  59.8353979
  74.5267642  70.4246448  60.0223979  76.1907642  71.1966448  58.9143979
  76.3927642  72.0896448  59.5043979  77.1427642  70.8376448  58.5233979
  75.3097642  71.6256448  57.7443979  74.3617642  70.9746448  57.3503979
  75.6047642  72.8106448  57.1553979  75.0287642  73.1096448  56.3723979
  76.3747642  73.3796448  57.4883979  75.4957642  68.7046448  59.2353979
  76.0307642  68.4306448  58.1773979  74.8757642  67.7276448  59.9893979
  74.4307642  68.0236448  60.8513979  74.7847642  66.3216448  59.5803979
  75.7617642  66.0166448  59.2003979  74.4597642  65.4386448  60.7883979
  75.2807642  65.4856448  61.4853979  73.5697642  65.8176448  61.2883979
  74.2507642  63.9646448  60.4283979  73.4237642  63.8736448  59.7263979
  75.1507642  63.5746448  59.9503979  73.8667642  62.9526448  61.8703979
  75.5247642  62.7946448  62.5943979  75.9687642  63.7806448  62.7783979
  75.4697642  62.2606448  63.5503979  76.1757642  62.2296448  61.9153979
  73.7547642  66.1046448  58.4693979  72.5597642  66.3026448  58.6583979
  74.2437642  65.5846448  57.2933979  75.2467642  65.4486448  57.2423979
  73.4507642  65.3556448  56.0923979  72.8807642  66.2706448  55.9183979
  74.4117642  65.1606448  54.9023979  75.3617642  65.6476448  55.1323979
  74.6157642  64.1006448  54.7423979  73.8787642  65.7996448  53.6123979
  73.5847642  66.8296448  53.8163979  74.9637642  65.8206448  52.5423979
  75.2447642  64.8036448  52.2413979  74.6147642  66.3606448  51.6543979
  75.8667642  66.3246448  52.9083979  72.6747642  65.0486448  53.0533979
  71.8137642  65.1196448  53.7243979  72.3877642  65.4796448  52.0873979
  72.9167642  63.9886448  52.9043979  72.4487642  64.1996448  56.2823979
  72.8017642  63.0356448  56.3433979  71.1247642  64.5756448  56.3783979
  70.9967642  65.5796448  56.3893979  69.9597642  63.6916448  56.5893979
  70.1967642  62.6726448  56.2743979  69.6057642  63.6966448  58.0903979
  69.7517642  64.7106448  58.4633979  68.5507642  63.4526448  58.2263979
  70.4377642  62.6856448  58.9043979  70.0147642  61.6906448  58.7513979
  71.4657642  62.6716448  58.5493979  70.4567642  62.9836448  60.4103979
  69.4567642  62.8116448  60.8143979  71.1407642  62.2856448  60.8983979
  70.8847642  64.3716448  60.6943979  71.3337642  64.8906448  59.9513979
  70.6497642  65.0436448  61.8023979  70.1867642  64.4766448  62.8763979
  70.2287642  63.4776448  62.9583979  70.0147642  65.0756448  63.6793979
  70.8497642  66.3216448  61.8673979  71.3077642  66.8456448  61.1293979
  70.7357642  66.7736448  62.7643979  68.7497642  64.1406448  55.7763979
  68.0537642  63.3256448  55.1963979  68.4957642  65.4886448  55.7453979
  69.1347642  66.0746448  56.2653979  67.2667642  66.0996448  55.2483979
  66.8607642  65.5066448  54.4283979  66.2347642  66.1386448  56.3943979
  66.7067642  66.5916448  57.2773979  65.4177642  66.8146448  56.1123979
  65.6047642  64.8046448  56.7863979  64.7917642  64.1216448  55.8613979
  64.6567642  64.5196448  54.8653979  64.1107642  62.9486448  56.2403979
  63.4647642  62.4526448  55.5323979  64.2437642  62.4496448  57.5533979
  63.5467642  61.3416448  57.9273979  62.7327642  61.2766448  57.3963979
  65.0777642  63.1166448  58.4753979  65.1607642  62.7416448  59.4833979
  65.7527642  64.2946448  58.0923979  66.3557642  64.8296448  58.8143979
  67.5567642  67.4966448  54.6843979  67.2967642  68.4996448  55.3253979
  68.1367642  67.5586448  53.4373979  68.3177642  66.6766448  52.9613979
  68.1707642  68.7926448  52.6453979  68.3577642  69.6226448  53.3223979
  69.3007642  68.7976448  51.5993979  69.0197642  68.1646448  50.7583979
  69.5087642  70.2256448  51.0933979  69.8197642  70.8946448  51.9073979
  70.2837642  70.2506448  50.3213979  68.5897642  70.6206448  50.6513979
  70.6427642  68.2936448  52.1493979  70.5717642  67.2436448  52.4533979
  71.4227642  68.3616448  51.3803979  70.9627642  68.8886448  53.0153979
  66.7957642  68.9936448  51.9933979  66.3357642  68.1426448  51.2473979
  66.1037642  70.1396448  52.3143979  66.5787642  70.7816448  52.9473979
  64.7057642  70.4256448  51.9563979  64.2957642  69.5906448  51.3873979
  63.8547642  70.6196448  53.2343979  64.2767642  71.4626448  53.7853979
  62.4007642  70.9856448  52.8883979  61.9507642  70.2596448  52.2013979
  61.7807642  71.0276448  53.7903979  62.3397642  71.9716448  52.4113979
  63.8677642  69.4146448  54.1973979  64.8827642  69.2556448  54.5573979
  63.2597642  69.6626448  55.0683979  63.3487642  68.0996448  53.6103979
  63.9837642  67.7556448  52.7863979  63.3597642  67.3316448  54.3913979
  62.3187642  68.2006448  53.2443979  64.6107642  71.6776448  51.0833979
  65.2057642  72.6876448  51.4183979  63.7897642  71.6276448  49.9793979
  63.3177642  70.7426448  49.8013979  63.3877642  72.7916448  49.1923979
  64.1387642  73.5706448  49.3143979  63.3317642  72.3986448  47.7153979
  62.5957642  71.5986448  47.5553979  63.0307642  73.2616448  47.1123979
  64.3127642  72.0566448  47.3683979  62.0287642  73.3816448  49.6103979
  61.1257642  72.6576448  49.9923979  61.8717642  74.7336448  49.3813979
  62.7177642  75.2326448  49.1183979  60.6397642  75.5186448  49.5163979
  59.7817642  74.8446448  49.5453979  60.6667642  76.3376448  50.8133979
  61.4837642  77.0676448  50.7573979  59.7407642  76.9196448  50.8833979
  60.8307642  75.5196448  52.0803979  62.1237642  75.2276448  52.5583979
  62.9927642  75.5926448  52.0273979  62.2847642  74.4086448  53.6873979
  63.2737642  74.1436448  54.0263979  61.1467642  73.8866448  54.3383979
  61.3117642  73.0416448  55.3833979  62.2427642  72.9776448  55.6413979
  59.8517642  74.2156448  53.8873979  58.9927642  73.8176448  54.4043979
  59.6947642  75.0266448  52.7483979  58.7047642  75.2416448  52.3683979
  60.4857642  76.4766448  48.3283979  61.4427642  77.1356448  47.9343979
  59.2437642  76.5906448  47.7413979  58.4927642  76.0096448  48.1213979
  59.0287642  77.3146448  46.4823979  59.9447642  77.8606448  46.2653979
  58.8937642  76.3176448  45.3153979  59.0607642  76.8626448  44.3863979
  59.6957642  75.5796448  45.3953979  57.5467642  75.5996448  45.1903979
  56.4957642  76.2746448  45.2873979  57.5567642  74.3926448  44.8603979
  57.9497642  78.4156448  46.5273979  57.2587642  78.6356448  47.5103979
  57.8837642  79.2036448  45.3923979  58.4627642  78.8896448  44.6253979
  57.1077642  80.4466448  45.2413979  57.4267642  81.1786448  45.9853979
  57.3377642  81.0126448  43.8303979  57.1497642  80.2266448  43.0963979
  56.6197642  81.8156448  43.6543979  58.7507642  81.5816448  43.6333979
  58.9327642  82.3146448  44.4133979  59.4947642  80.7906448  43.7243979
  58.8967642  82.2806448  42.2753979  58.1507642  83.0766448  42.2143979
  59.8817642  82.7386448  42.2083979  58.7157642  81.3456448  41.1503979
  58.5427642  80.3826448  41.3773979  58.6527642  81.6836448  39.8753979
  58.9917642  82.8556448  39.4323979  59.3807642  83.5436448  40.0523979
  58.8757642  83.0686448  38.4473979  58.2587642  80.8236448  38.9863979
  57.9437642  79.9086448  39.2413979  58.1967642  81.1596448  38.0253979
  55.6057642  80.2616448  45.4443979  54.9497642  81.1686448  45.9213979
  55.0567642  79.0626448  45.0393979  55.7197642  78.3366448  44.7733979
  53.6307642  78.7126448  45.0903979  53.0527642  79.6216448  45.2733979
  53.1757642  78.1386448  43.7303979  53.7887642  77.2726448  43.4813979
  52.1357642  77.8146448  43.8123979  53.2607642  79.1706448  42.5913979
  52.6517642  80.0356448  42.8543979  54.2947642  79.4956448  42.4653979
  52.7687642  78.5826448  41.2573979  53.4687642  77.8106448  40.9343979
  51.7887642  78.1206448  41.3903979  52.6777642  79.6526448  40.1603979
  53.5877642  80.2586448  40.1603979  52.6087642  79.1536448  39.1893979
  51.4907642  80.5196448  40.3353979  51.5187642  81.0536448  41.1883979
  51.3927642  81.1596448  39.5463979  50.6297642  79.9726448  40.3803979
  53.3147642  77.8066448  46.2903979  52.3797642  77.0366448  46.2353979
  54.1287642  77.9106448  47.4003979  54.9137642  78.5406448  47.3193979
  53.9577642  77.1746448  48.6593979  54.7867642  77.4756448  49.2983979
  52.6767642  77.6366448  49.3893979  51.7957642  77.3346448  48.8103979
  52.5987642  77.1216448  50.3563979  52.6197642  79.1426448  49.6293979
  53.2767642  79.6996448  50.7443979  53.7517642  79.0516448  51.4683979
  53.3197642  81.0986448  50.9133979  53.8247642  81.5326448  51.7633979
  52.7047642  81.9456448  49.9663979  52.8127642  83.2976448  50.0823979
  52.9807642  83.5856448  51.0513979  52.0207642  81.3836448  48.8663979
  51.5467642  82.0326448  48.1463979  51.9637642  79.9846448  48.7093979
  51.4277642  79.5536448  47.8733979  54.1227642  75.6476448  48.5213979
  53.5647642  74.8926448  49.2963979  54.9407642  75.1706448  47.5133979
  55.3707642  75.8556448  46.8943979  55.4077642  73.7856448  47.4163979
  54.6057642  73.1196448  47.7223979  55.6437642  73.5496448  46.3833979
  56.6537642  73.4886448  48.2613979  57.4127642  74.3846448  48.6073979
  56.8747642  72.1616448  48.5693979  56.2297642  71.4856448  48.1603979
  57.9447642  71.6416448  49.4243979  58.8177642  72.2836448  49.3213979
  57.4677642  71.7026448  50.8793979  57.2277642  72.7396448  51.1183979
  56.5647642  71.0986448  50.9833979  58.7247642  71.1016448  52.0443979
  58.0717642  71.4616448  53.1553979  58.3517642  70.2186448  49.0023979
  57.5287642  69.4356448  48.5563979  59.6867642  69.8746448  49.1093979
  60.2877642  70.5576448  49.5703979  60.2707642  68.6416448  48.5513979
  59.5707642  67.8226448  48.7253979  60.4167642  68.8366448  47.0223979
  59.4187642  68.9016448  46.5833979  60.9267642  69.7836448  46.8313979
  61.2007642  67.7186448  46.3183979  62.2477642  67.8306448  46.5923979
  60.8527642  66.7446448  46.6623979  61.1237642  67.7716448  44.7853979
  61.1307642  68.8096448  44.4473979  62.0197642  67.2806448  44.3993979
  59.9437642  67.0656448  44.2503979  59.2397642  66.7806448  44.9063979
  59.8197642  66.6126448  43.0123979  60.6197642  66.9446448  42.0473979
  61.3497642  67.6366448  42.2093979  60.4567642  66.5806448  41.1143979
  58.8667642  65.7896448  42.7103979  58.2377642  65.4576448  43.4073979
  58.9607642  65.2666448  41.8373979  61.5937642  68.2766448  49.2343979
  62.4107642  69.1376448  49.5053979  61.8327642  66.9396448  49.4623979
  61.1197642  66.2946448  49.1563979  63.1617642  66.4026448  49.7863979
  63.6137642  66.9986448  50.5803979  63.0387642  64.9506448  50.2703979
  62.3837642  64.9376448  51.1413979  62.5577642  64.3576448  49.4883979
  64.3707642  64.2766448  50.6523979  65.3917642  64.9386448  50.9623979
  64.3897642  63.0336448  50.7513979  64.0597642  66.4716448  48.5493979
  63.7257642  65.9276448  47.5103979  65.2437642  67.1536448  48.6713979
  65.4527642  67.5576448  49.5853979  66.2197642  67.3106448  47.5833979
  65.8417642  66.7786448  46.7133979  66.3817642  68.7826448  47.1603979
  67.1517642  68.8346448  46.3933979  65.0857642  69.3226448  46.5443979
  64.2777642  69.3556448  47.2863979  65.2487642  70.3356448  46.1573979
  64.7617642  68.6916448  45.7063979  66.8137642  69.6796448  48.3233979
  67.7347642  69.2986448  48.7793979  67.0107642  70.6966448  47.9623979
  66.0357642  69.7326448  49.0933979  67.5537642  66.6416448  47.9103979
  68.5077642  66.7706448  47.1653979  67.6287642  65.8436448  49.0353979
  66.7787642  65.7756448  49.5973979  68.8697642  65.2456448  49.5513979
  69.5217642  66.0486448  49.8933979  68.5447642  64.3536448  50.7663979
  67.8067642  63.6176448  50.4563979  69.7487642  63.6266448  51.3493979
  70.4877642  64.3426448  51.7083979  69.4427642  62.9866448  52.1853979
  70.2297642  62.9916448  50.5993979  67.9897642  65.0926448  51.8353979
  67.0067642  65.1416448  51.6433979  69.6517642  64.4686448  48.4743979
  70.8647642  64.5176448  48.4643979  68.9757642  63.8046448  47.4603979
  67.9647642  63.8696448  47.4953979  69.6167642  63.0766448  46.3353979
  70.2827642  62.3176448  46.7533979  68.5197642  62.3906448  45.4923979
  67.5797642  62.9216448  45.6393979  68.7647642  62.4586448  44.4313979
  68.2917642  60.9096448  45.8353979  68.2437642  60.7946448  46.9173979
  67.3327642  60.6036448  45.4163979  69.3837642  60.0006448  45.2503979
  69.4077642  60.1356448  44.1683979  70.3527642  60.2916448  45.6623979
  69.1147642  58.5796448  45.5353979  68.1727642  58.3046448  45.7593979
  69.9927642  57.5976448  45.5953979  71.2607642  57.7376448  45.3393979
  71.6367642  58.5636448  44.9313979  71.8527642  56.9276448  45.5283979
  69.6277642  56.4246448  45.9893979  68.6707642  56.1436448  46.1683979
  70.3817642  55.7686448  46.2083979  70.5227642  63.9376448  45.4313979
  71.4117642  63.4026448  44.7893979  70.3317642  65.3046448  45.3883979
  69.5587642  65.6646448  45.9463979  71.2267642  66.2736448  44.7163979
  71.5177642  65.8836448  43.7383979  70.4217642  67.5736448  44.4993979
  69.5897642  67.3346448  43.8393979  70.0067642  67.8996448  45.4513979
  71.2037642  68.7566448  43.8993979  71.9687642  69.0706448  44.6093979
  71.6907642  68.4496448  42.9743979  70.3047642  69.9736448  43.6313979
  69.8147642  70.2566448  44.5613979  70.9337642  70.8056448  43.3233979
  69.3227642  69.7286448  42.5613979  69.6767642  69.7216448  41.6223979
  68.0287642  69.5126448  42.7113979  67.3797642  69.6316448  43.8253979
  67.7547642  70.2906448  44.5203979  66.3767642  69.5006448  43.8003979
  67.3217642  69.1266448  41.6973979  67.7147642  69.0196448  40.7883979
  66.3267642  69.0026448  41.8873979  72.5397642  66.5076448  45.4863979
  73.4867642  67.0106448  44.9163979  72.6037642  66.1016448  46.8003979
  71.7727642  65.6536448  47.1653979  73.6577642  66.4656448  47.7583979
  74.4917642  66.9196448  47.2203979  73.0847642  67.5026448  48.7333979
  72.3237642  67.0196448  49.3603979  73.8807642  67.8276448  49.4153979
  72.4867642  68.7356448  48.0723979  73.3467642  69.7236448  47.5623979
  74.4177642  69.6046448  47.6463979  72.8157642  70.8796448  46.9653979
  73.4747642  71.6556448  46.6223979  71.4217642  71.0486448  46.8683979
  70.9237642  72.1866448  46.3213979  71.3967642  72.4856448  45.5183979
  70.5557642  70.0596448  47.3803979  69.4867642  70.2096448  47.3063979
  71.0887642  68.8986448  47.9783979  70.4257642  68.1406448  48.3693979
  74.2337642  65.2786448  48.5463979  75.1897642  65.4426448  49.2763979
  73.6337642  64.0516448  48.4053979  72.7877642  64.0316448  47.8513979
  74.1177642  62.7866448  48.9383979  75.0667642  62.9516448  49.4523979
  73.0997642  62.2446448  49.9473979  72.1417642  62.0406448  49.4523979
  73.4557642  61.3076448  50.3963979  72.9307642  62.9676448  50.7533979
  74.3577642  61.7786448  47.8073979  73.8537642  61.9296448  46.7043979
  75.1127642  60.6776448  48.1393979  75.4687642  60.6446448  49.0843979
  75.4477642  59.6006448  47.2083979  74.8527642  59.7236448  46.3013979
  76.9247642  59.7396448  46.8163979  77.1137642  60.7736448  46.5193979
  77.5567642  59.5046448  47.6743979  77.2817642  58.8186448  45.6423979
  77.1097642  57.7816448  45.9273979  76.6367642  59.0556448  44.7953979
  78.7307642  58.9596448  45.1873979  79.4747642  59.8176448  45.6033979
  79.1917642  58.0856448  44.2613979  80.1747642  58.1556448  44.0643979
  78.5847642  57.3556448  43.9213979  75.0937642  58.2206448  47.7773979
  74.3757642  57.4786448  47.1393979  75.5267642  57.9216448  49.0533979
  76.1787642  58.5716448  49.4673979  75.2287642  56.7026448  49.8283979
  75.2647642  55.8456448  49.1523979  76.3177642  56.5366448  50.8943979
  76.1007642  57.2006448  51.7413979  76.2957642  55.5166448  51.2893979
  77.6977642  56.8346448  50.4083979  78.4457642  57.8916448  50.7913979
  78.1587642  58.6236448  51.5383979  79.6507642  57.8666448  50.1243979
  80.3947642  58.5246448  50.3103979  79.7497642  56.7736448  49.2913979
  80.7707642  56.2916448  48.4633979  81.7107642  56.8176448  48.3933979
  80.5627642  55.1016448  47.7453979  81.3507642  54.6946448  47.1273979
  79.3317642  54.4276448  47.8433979  79.1797642  53.5096448  47.2903979
  78.3087642  54.9256448  48.6733979  77.3747642  54.3916448  48.7473979
  78.4997642  56.0996448  49.4353979  73.8177642  56.7416448  50.4313979
  73.5917642  56.6276448  51.6273979  72.8267642  57.1226448  49.5723979
  73.0387642  57.0446448  48.5763979  71.5307642  57.5976448  50.0153979
  71.6757642  58.3006448  50.8333979  70.8977642  58.3276448  48.8383979
  71.5617642  59.1236448  48.4943979  70.7817642  57.6056448  48.0413979
  69.5307642  58.9126448  49.1693979  69.0837642  59.2566448  48.2413979
  68.8877642  58.1366448  49.5823979  69.6017642  60.3036448  50.3193979
  67.8557642  60.7556448  50.2963979  67.2467642  59.9026448  50.6163979
  67.6807642  61.5886448  50.9833979  67.5567642  61.0536448  49.2843979
  70.6627642  56.4406448  50.5133979  70.0467642  56.5336448  51.5653979
  70.6517642  55.3106448  49.7293979  71.2787642  55.3036448  48.9193979
  69.9507642  54.0846448  50.0773979  69.0097642  54.3346448  50.5693979
  69.6447642  53.2996448  48.7903979  70.5797642  53.0896448  48.2713979
  69.1817642  52.3516448  49.0543979  68.7147642  54.0166448  47.8263979
  68.0887642  55.0116448  48.1293979  68.6007642  53.4986448  46.5833979
  67.9637642  53.9866448  45.9403979  69.1667642  52.7216448  46.2943979
  70.7797642  53.2466448  51.0563979  70.2447642  52.7836448  52.0483979
  72.1197642  53.0886448  50.7683979  72.4657642  53.5456448  49.9163979
  73.0747642  52.2766448  51.5313979  72.7047642  51.2556448  51.5963979
  74.4037642  52.2486448  50.7683979  75.1477642  51.6846448  51.3223979
  74.2457642  51.7656448  49.8023979  74.9127642  53.5446448  50.5523979
  75.5497642  53.4656448  49.8173979  73.2847642  52.7596448  52.9683979
  73.4767642  51.9496448  53.8553979  73.1937642  54.1156448  53.2373979
  73.1577642  54.7136448  52.4153979  73.4837642  54.6926448  54.5653979
  73.6077642  53.8886448  55.2943979  74.7867642  55.4856448  54.5213979
  74.7597642  56.2486448  53.7463979  74.9737642  55.9676448  55.4823979
  75.9017642  54.5196448  54.2233979  75.9377642  53.7506448  54.9963979
  75.7487642  54.0566448  53.2473979  77.1977642  55.2946448  54.2063979
  77.1047642  56.2526448  53.6963979  77.5457642  55.4626448  55.2253979
  78.1387642  54.4176448  53.4223979  77.7607642  54.2296448  52.4173979
  79.0437642  55.0026448  53.3223979  78.3667642  53.1346448  54.1243979
  77.5787642  52.4886448  54.0313979  79.1437642  52.6366448  53.7173979
  78.5617642  53.2746448  55.1063979  72.4057642  55.5996448  55.0913979
  71.8807642  55.4006448  56.1753979  72.0937642  56.6816448  54.3083979
  72.5867642  56.7546448  53.4183979  71.2987642  57.7946448  54.8283979
  71.7527642  58.1096448  55.7683979  71.3497642  58.9976448  53.8713979
  71.0217642  58.6836448  52.8843979  70.4537642  60.1506448  54.3353979
  70.7467642  60.4846448  55.3393979  70.5377642  60.9986448  53.6453979
  69.4027642  59.8436448  54.3583979  72.7837642  59.5436448  53.7763979
  73.4827642  58.7786448  53.4153979  72.8317642  60.3886448  53.0793979
  73.1377642  59.8896448  54.7563979  69.8797642  57.3306448  55.1743979
  69.3137642  57.8136448  56.1363979  69.3167642  56.2866448  54.4583979
  69.8257642  55.9926448  53.6233979  68.0227642  55.6576448  54.7813979
  67.2677642  56.4406448  54.7653979  67.6817642  54.6176448  53.7003979
  67.8837642  55.0746448  52.7303979  68.3307642  53.7446448  53.7943979
  66.2067642  54.1786448  53.6883979  65.5777642  55.0396448  53.9103979
  65.9757642  53.8626448  52.6713979  65.8407642  53.0196448  54.6313979
  66.5867642  52.2286448  54.5313979  65.8387642  53.3646448  55.6673979
  64.5047642  52.4896448  54.2903979  63.9327642  53.0426448  53.6783979
  63.9557642  51.3666448  54.7223979  64.5567642  50.5606448  55.5423979
  65.5107642  50.7396448  55.8233979  64.1397642  49.6716448  55.8043979
  62.7747642  51.0176448  54.3003979  62.2207642  51.6566448  53.7623979
  62.3447642  50.2086448  54.7113979  67.9777642  55.0646448  56.1923979
  67.0257642  55.3346448  56.9023979  69.0537642  54.3206448  56.6403979
  69.8107642  54.1756448  55.9803979  69.1927642  53.8126448  58.0183979
  68.3237642  53.1956448  58.2563979  70.4537642  52.9296448  58.0923979
  70.4487642  52.2506448  57.2383979  71.3397642  53.5616448  58.0173979
  70.5437642  52.0896448  59.3793979  70.4407642  52.7406448  60.2473979
  69.7347642  51.3566448  59.3983979  71.8947642  51.3666448  59.4893979
  72.6967642  52.1006448  59.3953979  71.9747642  50.9026448  60.4753979
  72.0647642  50.2796448  58.4223979  71.4777642  49.4026448  58.7133979
  71.6847642  50.6236448  57.4573979  73.4807642  49.8956448  58.2733979
  73.8837642  49.5656448  59.1473979  73.5757642  49.1336448  57.6073979
  74.0867642  50.6256448  57.9043979  69.2197642  54.9646448  59.0363979
  68.6937642  54.8386448  60.1263979  69.7787642  56.1666448  58.6343979
  70.2017642  56.1536448  57.7103979  69.8007642  57.4176448  59.4203979
  69.7877642  57.1076448  60.4673979  71.1107642  58.1936448  59.1623979
  71.8257642  57.5756448  58.6133979  70.9117642  59.0866448  58.5653979
  71.7207642  58.5766448  60.5183979  70.9467642  58.9756448  61.1743979
  72.1257642  57.6696448  60.9703979  72.8307642  59.6206448  60.4123979
  73.5217642  59.3446448  59.6133979  72.3917642  60.5826448  60.1463979
  73.5477642  59.7386448  61.6993979  73.1827642  60.3786448  62.4013979
  74.6807642  59.1376448  62.0153979  75.2467642  58.2746448  61.2263979
  74.8397642  58.0376448  60.3463979  76.1287642  57.8256448  61.4543979
  75.2547642  59.3876448  63.1453979  74.7947642  60.0246448  63.8033979
  76.1557642  58.9766448  63.3703979  68.5577642  58.3186448  59.2763979
  68.5997642  59.4826448  59.6463979  67.4047642  57.7846448  58.7383979
  67.4457642  56.7976448  58.4923979  66.1217642  58.4916448  58.5723979
  66.1817642  59.4726448  59.0453979  65.8067642  58.6686448  57.0803979
  65.9787642  57.7256448  56.5613979  64.7487642  58.9186448  56.9843979
  66.5947642  59.7866448  56.3923979  66.3797642  60.7306448  56.8903979
  67.6647642  59.6046448  56.4523979  66.1617642  59.8586448  54.9213979
  66.6917642  59.0926448  54.3513979  65.0887642  59.6656448  54.8563979
  66.4347642  61.1846448  54.3573979  67.0587642  61.7946448  54.8743979
  65.8897642  61.7306448  53.2913979  65.0717642  61.1036448  52.4993979
  64.8417642  60.1426448  52.6403979  64.7007642  61.6406448  51.7073979
  66.1667642  62.9596448  52.9993979  66.8387642  63.4546448  53.5673979
  65.7367642  63.3826448  52.1723979  64.9827642  57.7306448  59.2423979
  65.0437642  56.5336448  59.4183979  63.8517642  58.4496448  59.5523979
  63.8907642  59.4466448  59.3753979  62.6527642  57.8746448  60.1913979
  62.9437642  57.4606448  61.1583979  61.6557642  59.0296448  60.4563979
  61.5737642  59.6136448  59.5373979  60.2457642  58.5436448  60.8193979
  60.2677642  57.8876448  61.6993979  59.5837642  59.3906448  61.0393979
  59.7957642  57.9846448  59.9903979  62.1807642  59.9486448  61.5933979
  61.7547642  59.6406448  62.5503979  63.2647642  59.8756448  61.6843979
  61.8447642  61.4216448  61.3573979  60.7657642  61.5496448  61.2543979
  62.1737642  62.0346448  62.2053979  62.3337642  61.7956448  60.4493979
  62.0547642  56.6886448  59.3893979  61.6087642  55.7296448  59.9863979
  62.1427642  56.7016448  58.0063979  62.5277642  57.5426448  57.6083979
  61.7017642  55.6246448  57.0773979  60.6497642  55.4196448  57.2783979
  61.7977642  56.1316448  55.6193979  61.2427642  57.0656448  55.5383979
  63.2447642  56.3836448  55.1943979  63.8417642  55.4696448  55.2973979
  63.2877642  56.7106448  54.1483979  63.6997642  57.1616448  55.8113979
  61.2537642  55.2286448  54.6923979  61.4187642  55.5566448  53.7653979
  62.4287642  54.2686448  57.2353979  62.0747642  53.2926448  56.6003979
  63.4877642  54.1706448  58.1213979  63.7937642  55.0226448  58.5803979
  64.1247642  52.8996448  58.5083979  64.6207642  52.4726448  57.6373979
  65.1997642  53.1856448  59.5753979  65.7177642  52.2566448  59.8163979
  65.9297642  53.8876448  59.1703979  64.5967642  53.7536448  60.8693979
  63.9807642  54.6236448  60.6523979  63.9597642  52.9956448  61.3093979
  65.6507642  54.1576448  61.8983979  66.3137642  53.3176448  62.1113979
  66.2427642  54.9836448  61.4983979  64.9357642  54.6076448  63.1773979
  65.6727642  55.0686448  63.8403979  64.1937642  55.3636448  62.9043979
  64.2737642  53.4726448  63.8723979  64.9407642  52.7856448  64.2143979
  63.7757642  53.7696448  64.6903979  63.5877642  52.9736448  63.2943979
  63.1187642  51.8416448  59.0003979  63.3187642  50.6676448  58.7543979
  62.0257642  52.2926448  59.7083979  61.9457642  53.2976448  59.7793979
  60.9257642  51.4806448  60.2393979  61.2667642  50.4536448  60.3873979
  60.4497642  52.0696448  61.5943979  59.9737642  53.0256448  61.3823979
  59.6827642  51.4086448  62.0003979  61.5087642  52.3366448  62.6873979
  61.3827642  53.3286448  63.4553979  62.4877642  51.5776448  62.8203979
  59.7297642  51.4826448  59.2603979  59.3647642  52.5336448  58.7613979
  58.9867642  50.3326448  59.0663979  59.3917642  49.4506448  59.3543979
  57.7327642  50.3336448  58.2863979  57.9577642  50.7336448  57.2973979
  57.1477642  48.9226448  58.0883979  56.8427642  48.5246448  59.0573979
  56.2457642  49.0176448  57.4793979  58.0567642  47.8966448  57.4073979
  57.5997642  46.7366448  57.2783979  59.1867642  48.2256448  56.9933979
  56.6567642  51.2406448  58.9153979  55.9567642  51.9486448  58.2063979
  56.5297642  51.2886448  60.2913979  57.0527642  50.5966448  60.8313979
  55.6757642  52.2756448  60.9713979  54.7227642  52.2976448  60.4443979
  55.3837642  51.8306448  62.4153979  55.1677642  50.7536448  62.4253979
  56.2767642  51.9706448  63.0393979  54.1887642  52.5516448  63.0323979
  52.8927642  52.2826448  62.5463979  52.7497642  51.5356448  61.7793979
  51.7857642  52.9956448  63.0403979  50.7987642  52.7986448  62.6483979
  51.9667642  53.9696448  64.0383979  51.1197642  54.5266448  64.4113979
  53.2537642  54.2206448  64.5473979  53.3917642  54.9706448  65.3133979
  54.3627642  53.5146448  64.0443979  55.3497642  53.7286448  64.4253979
  56.2337642  53.7146448  60.8803979  55.5107642  54.6766448  61.0563979
  57.5517642  53.8796448  60.5093979  58.0777642  53.0316448  60.3183979
  58.1747642  55.1526448  60.1383979  57.8287642  55.9426448  60.8023979
  59.2507642  55.0426448  60.2643979  57.9307642  55.5836448  58.6833979
  58.1497642  56.7386448  58.3563979  57.4427642  54.6626448  57.7753979
  57.3127642  53.7166448  58.1303979  57.4627642  54.8566448  56.3143979
  58.4957642  55.0346448  56.0123979  56.9907642  53.5536448  55.6303979
  57.4237642  52.7106448  56.1693979  55.9067642  53.4666448  55.7093979
  57.4137642  53.3746448  54.1623979  58.5037642  53.3906448  54.1153979
  57.0877642  52.3836448  53.8353979  56.8387642  54.4156448  53.1963979
  55.6437642  54.7756448  53.3093979  57.5887642  54.8936448  52.3123979
  56.6357642  56.0816448  55.8813979  57.1147642  56.9606448  55.1833979
  55.3487642  56.1846448  56.3783979  55.0477642  55.4206448  56.9733979
  54.3937642  57.2316448  55.9723979  54.5327642  57.4146448  54.9063979
  52.9477642  56.7516448  56.2093979  52.7747642  56.6866448  57.2843979
  52.2637642  57.5016448  55.8053979  52.6087642  55.4006448  55.5503979
  52.4317642  55.5586448  54.4853979  53.4357642  54.6986448  55.6573979
  51.3737642  54.7576448  56.1953979  51.6107642  54.4886448  57.2273979
  50.5367642  55.4586448  56.1833979  51.0117642  53.4966448  55.4043979
  50.7627642  53.7886448  54.3803979  51.8877642  52.8416448  55.3683979
  49.8707642  52.7596448  55.9923979  49.0067642  53.2926448  55.9493979
  49.7037642  51.9106448  55.4673979  50.0507642  52.4856448  56.9463979
  54.6367642  58.5706448  56.6803979  54.0967642  59.5876448  56.2733979
  55.4507642  58.5816448  57.7933979  55.9267642  57.7106448  58.0103979
  55.5357642  59.7026448  58.7343979  54.5357642  59.9206448  59.1123979
  56.4107642  59.2996448  59.9293979  55.9897642  58.3966448  60.3943979
  57.4147642  59.0286448  59.5803979  56.5327642  60.3676448  60.9683979
  55.7487642  60.4576448  62.0623979  54.9787642  59.7446448  62.3353979
  56.0397642  61.6176448  62.7443979  55.5377642  61.8936448  63.5863979
  57.0037642  62.3646448  62.1083979  57.5727642  63.6186448  62.3693979
  57.2367642  64.2026448  63.2133979  58.5747642  64.1056448  61.5153979
  59.0257642  65.0706448  61.7023979  58.9887642  63.3336448  60.4143979
  59.7657642  63.7086448  59.7633979  58.4087642  62.0736448  60.1683979
  58.7607642  61.4746448  59.3473979  57.3807642  61.5646448  60.9903979
  56.0517642  60.9866448  58.0783979  55.4397642  62.0356448  58.1703979
  57.2037642  60.8986448  57.3313979  57.6427642  59.9856448  57.2763979
  57.8247642  62.0666448  56.7003979  57.8937642  62.8696448  57.4363979
  59.2377642  61.6646448  56.2663979  59.7897642  61.3086448  57.1453979
  59.1627642  60.8066448  55.5863979  60.0707642  62.7526448  55.6043979
  60.3917642  63.9346448  56.3013979  60.0017642  64.1106448  57.2943979
  61.2277642  64.8966448  55.7063979  61.4837642  65.7976448  56.2443979
  61.7367642  64.6816448  54.4133979  62.3807642  65.4136448  53.9533979
  61.4127642  63.5076448  53.7143979  61.8077642  63.3416448  52.7223979
  60.5757642  62.5486448  54.3073979  60.3277642  61.6496448  53.7593979
  56.9827642  62.6026448  55.5343979  56.9657642  63.7916448  55.2693979
  56.1967642  61.6946448  54.8513979  56.2307642  60.7376448  55.1823979
  55.3097642  62.0346448  53.7343979  55.8737642  62.6426448  53.0243979
  54.9047642  60.7286448  53.0403979  55.8267642  60.1636448  52.8973979
  54.2447642  60.1456448  53.6823979  54.2347642  60.9476448  51.6723979
  53.2587642  61.4096448  51.8213979  54.8477642  61.6256448  51.0763979
  54.0467642  59.6366448  50.8873979  53.2667642  59.0486448  51.3723979
  53.6997642  59.8786448  49.8813979  55.3007642  58.8616448  50.7973979
  56.0607642  59.2456448  50.2463979  55.6127642  57.7816448  51.4883979
  54.7467642  57.0876448  52.1643979  53.7777642  57.3216448  52.1233979
  55.0737642  56.2316448  52.6313979  56.8437642  57.3966448  51.5273979
  57.5417642  57.9066448  51.0093979  57.0727642  56.5226448  52.0103979
  54.1297642  62.8956448  54.1843979  53.8317642  63.8726448  53.5273979
  53.5337642  62.6186448  55.4003979  53.8307642  61.7586448  55.8563979
  52.5937642  63.5266448  56.0893979  51.6907642  63.6426448  55.4883979
  52.2147642  62.9226448  57.4553979  53.0507642  62.3366448  57.8293979
  52.0327642  63.7156448  58.1793979  50.9647642  62.0316448  57.3943979
  50.0807642  62.6596448  57.4903979  50.9157642  61.5166448  56.4343979
  51.0037642  60.9846448  58.5183979  51.8417642  60.3146448  58.3203979
  51.1797642  61.4736448  59.4753979  49.7227642  60.1456448  58.5973979
  49.3617642  59.9506448  57.5833979  49.9697642  59.1896448  59.0673979
  48.6737642  60.8096448  59.4063979  48.5047642  61.7696448  59.0983979
  47.7857642  60.3296448  59.3423979  48.9517642  60.8596448  60.3823979
  53.1747642  64.9396448  56.2463979  52.5177642  65.9016448  55.8913979
  54.4607642  65.0706448  56.7333979  54.9327642  64.2166448  57.0063979
  55.1207642  66.3776448  56.9373979  54.4457642  67.0046448  57.5193979
  56.4337642  66.2456448  57.7363979  57.1577642  65.6686448  57.1603979
  57.0487642  67.6146448  58.0593979  56.3547642  68.2266448  58.6483979
  57.9767642  67.4966448  58.6343979  57.2967642  68.1666448  57.1453979
  56.1987642  65.5406448  59.0753979  55.8497642  64.5116448  58.9333979
  57.1297642  65.4926448  59.6503979  55.4547642  66.0826448  59.6703979
  55.3647642  67.1136448  55.6163979  55.0887642  68.2936448  55.5283979
  55.8367642  66.4006448  54.5323979  56.0827642  65.4256448  54.6933979
  55.9837642  66.9796448  53.1863979  56.6277642  67.8556448  53.2523979
  56.6407642  65.9516448  52.2323979  56.1327642  64.9966448  52.3783979
  56.4717642  66.3116448  50.7433979  56.8237642  67.3316448  50.5323979
  57.0297642  65.6126448  50.1073979  55.4187642  66.2546448  50.4393979
  58.1377642  65.7306448  52.5623979  58.2417642  65.4936448  53.6213979
  58.4857642  64.8596448  52.0043979  59.0757642  66.9056448  52.2403979
  58.7877642  67.8096448  52.7883979  60.1047642  66.6526448  52.5243979
  59.0747642  67.1326448  51.1673979  54.6347642  67.4876448  52.6603979
  54.5567642  68.6026448  52.1763979  53.5177642  66.6896448  52.8083979
  53.6477642  65.7606448  53.2053979  52.1907642  67.0796448  52.3053979
  52.3007642  67.3756448  51.2633979  51.2087642  65.8946448  52.3453979
  51.0397642  65.5956448  53.3813979  49.8737642  66.1896448  51.6673979
  50.0317642  66.4106448  50.6033979  49.2067642  65.3226448  51.7463979
  49.3717642  67.0486448  52.1273979  51.7177642  64.8016448  51.6113979
  51.3107642  63.9946448  51.9783979  51.6427642  68.2996448  53.0593979
  51.0797642  69.1866448  52.4453979  51.9027642  68.4226448  54.4123979
  52.3697642  67.6416448  54.8683979  51.5487642  69.5996448  55.2163979
  50.4737642  69.7676448  55.1333979  51.8927642  69.3126448  56.6793979
  52.9777642  69.2366448  56.8183979  51.5157642  70.1196448  57.3193979
  51.4427642  68.3766448  57.0053979  52.2547642  70.8986448  54.7883979
  51.8547642  71.9756448  55.1993979  53.3507642  70.7986448  53.9583979
  53.6347642  69.8566448  53.7003979  54.1837642  71.9156448  53.5143979
  53.8197642  72.8396448  53.9643979  55.6227642  71.6686448  54.0003979
  55.9687642  70.7346448  53.5533979  56.2607642  72.4726448  53.6343979
  55.7887642  71.5676448  55.5283979  55.1417642  70.7956448  55.9343979
  57.2357642  71.1986448  55.8303979  57.9297642  71.9656448  55.4653979
  57.3727642  71.0866448  56.9113979  57.4777642  70.2446448  55.3493979
  55.4897642  72.8716448  56.2583979  54.4487642  73.1776448  56.1003979
  55.6527642  72.7586448  57.3363979  56.1457642  73.6616448  55.8963979
  54.1297642  72.1386448  51.9943979  54.7817642  73.0406448  51.5033979
  53.3487642  71.3016448  51.2233979  52.8467642  70.5676448  51.7143979
  53.2927642  71.3306448  49.7593979  53.9267642  72.1416448  49.4093979
  53.8847642  70.0266448  49.2093979  54.9087642  69.9146448  49.5873979
  53.3167642  69.1716448  49.5983979  53.9267642  69.9516448  47.7053979
  54.8547642  70.5916448  46.8773979  54.5497642  70.2096448  45.6273979
  55.1017642  70.4996448  44.7443979  53.4727642  69.4066448  45.6283979
  53.0277642  69.0136448  44.8123979  53.0667642  69.2336448  46.9313979
  52.2247642  68.6576448  47.2903979  51.8747642  71.6526448  49.2683979
  51.0977642  70.7956448  48.8913979  51.5157642  72.9786448  49.3303979
  52.2597642  73.6216448  49.6023979  50.1647642  73.5326448  49.1603979
  49.4437642  72.7966448  49.5193979  50.0127642  74.8036448  50.0203979
  50.6997642  75.5596448  49.6303979  49.0037642  75.2116448  49.8843979
  50.2527642  74.6836448  51.5103979  50.0427642  75.7246448  52.4243979
  50.4037642  75.2386448  53.6233979  50.3887642  75.8006448  54.5463979
  50.8177642  73.9686448  53.5113979  51.1627642  73.3836448  54.2733979
  50.7117642  73.5936448  52.1953979  50.9527642  72.6226448  51.7893979
  49.8037642  73.7986448  47.6883979  49.0337642  74.6926448  47.3843979
  50.3877642  73.0036448  46.7213979  50.9357642  72.2166448  47.0623979
  50.1937642  73.1716448  45.2743979  49.2417642  73.6846448  45.1203979
  51.3037642  74.0586448  44.6893979  51.0517642  74.2876448  43.6523979
  51.3227642  74.9986448  45.2373979  52.7037642  73.4196448  44.7303979
  53.0297642  73.3066448  45.7643979  52.6807642  72.4386448  44.2573979
  53.6867642  74.3156448  43.9703979  53.2947642  74.5266448  42.9743979
  53.7727642  75.2566448  44.5163979  55.0277642  73.7226448  43.8493979
  55.7687642  74.1616448  44.3993979  55.4387642  72.7246448  43.0873979
  54.6707642  72.0506448  42.2773979  53.6867642  72.2476448  42.1893979
  55.0797642  71.2646448  41.7643979  56.6867642  72.3816448  43.1483979
  57.2787642  72.9186448  43.7833979  57.0557642  71.6456448  42.5373979
  50.1077642  71.8386448  44.5453979  50.5607642  70.8206448  45.0383979
  49.5687642  71.8636448  43.2803979  49.2557642  72.7586448  42.9303979
  49.6057642  70.6946448  42.3963979  49.5307642  69.8146448  43.0343979
  48.3977642  70.6506448  41.4493979  48.3457642  71.5546448  40.8413979
  48.4897642  69.7846448  40.7903979  47.1267642  70.4946448  42.2953979
  47.2757642  69.6906448  43.0183979  46.9537642  71.4216448  42.8413979
  45.8867642  70.1636448  41.4663979  45.6977642  70.9586448  40.7433979
  46.0377642  69.2156448  40.9453979  44.7097642  70.0466448  42.4353979
  44.9637642  69.3396448  43.2303979  44.5437642  71.0226448  42.8973979
  43.4807642  69.6016448  41.7503979  43.5417642  68.6396448  41.4403979
  42.6807642  69.6806448  42.3723979  43.2807642  70.1766448  40.9343979
  50.9497642  70.5386448  41.6903979  51.7337642  71.4756448  41.5873979
  51.2097642  69.2696448  41.2303979  50.4897642  68.5756448  41.4263979
  52.3907642  68.8776448  40.4583979  53.2787642  69.1456448  41.0303979
  52.3787642  67.3496448  40.2853979  52.4097642  66.8936448  41.2773979
  51.4507642  67.0436448  39.7973979  53.5657642  66.8336448  39.4573979
  53.4007642  67.0826448  38.4083979  54.4817642  67.3196448  39.7883979
  53.7207642  65.3136448  39.5793979  52.7337642  64.8566448  39.6663979
  54.1727642  64.9296448  38.6653979  54.5387642  64.9236448  40.7433979
  54.0467642  64.7626448  41.6163979  55.8257642  64.6246448  40.7333979
  56.6007642  64.7566448  39.7003979  56.2267642  65.0276448  38.7823979
  57.5737642  64.4746448  39.7813979  56.4057642  64.1396448  41.7903979
  55.8697642  63.8866448  42.6023979  57.3657642  63.8276448  41.6493979
  52.4637642  69.6306448  39.1253979  51.4867642  69.7306448  38.4073979
  53.6897642  70.1476448  38.7973979  54.4277642  69.9646448  39.4803979
  54.0917642  70.6796448  37.4853979  53.2217642  70.7156448  36.8283979
  54.6497642  72.1136448  37.6123979  53.8327642  72.7826448  37.8803979
  55.7597642  72.2456448  38.6543979  56.5757642  71.5406448  38.4603979
  56.1667642  73.2626448  38.6633979  55.3667642  72.0406448  39.6543979
  55.2167642  72.5576448  36.3983979  55.1847642  73.5546448  36.3993979
  55.1207642  69.7466448  36.8493979  55.8067642  69.0166448  37.5423979
  55.3207642  69.8136448  35.4873979  54.7677642  70.4936448  34.9773979
  56.3507642  69.0226448  34.8023979  56.1817642  67.9796448  35.0753979
  56.1637642  69.1556448  33.2863979  55.0987642  69.0816448  33.0583979
  56.5327642  70.1236448  32.9433979  56.8957642  68.0226448  32.5583979
  57.9717642  68.1766448  32.6183979  56.6507642  67.0796448  33.0433979
  56.4707642  67.9486448  31.0903979  55.3927642  67.7876448  31.0293979
  56.7077642  68.8956448  30.6023979  57.2007642  66.8186448  30.3593979
  56.8897642  66.8346448  29.3103979  58.2737642  67.0256448  30.3903979
  56.9357642  65.4826448  30.9513979  55.9487642  65.2656448  30.9403979
  57.4377642  64.7626448  30.4403979  57.2607642  65.4416448  31.9103979
  57.7797642  69.3586448  35.2573979  58.6797642  68.5546448  35.1093979
  58.0087642  70.5626448  35.8903979  57.2127642  71.1836448  35.9873979
  59.3017642  70.8976448  36.5123979  60.0877642  70.7076448  35.7843979
  59.3557642  72.4026448  36.8583979  58.4997642  72.6446448  37.4893979
  60.6377642  72.7576448  37.6313979  61.5247642  72.4486448  37.0623979
  60.7067642  73.8376448  37.8083979  60.6657642  72.2546448  38.6053979
  59.3087642  73.2546448  35.5623979  60.3067642  73.6066448  35.3123979
  58.9677642  72.6556448  34.7183979  58.3807642  74.4666448  35.6673979
  58.6887642  75.1316448  36.4823979  58.3987642  75.0356448  34.7293979
  57.3487642  74.1446448  35.8453979  59.6087642  69.9736448  37.7093979
  60.7637642  69.6696448  37.9603979  58.5467642  69.4516448  38.4213979
  57.6097642  69.6886448  38.1123979  58.6817642  68.4076448  39.4403979
  59.4737642  68.7016448  40.1293979  57.3717642  68.2896448  40.2533979
  56.6027642  67.8856448  39.6003979  57.5177642  67.5566448  41.0453979
  56.8527642  69.5936448  40.8943979  57.6487642  70.4126448  41.4073979
  55.6157642  69.7986448  40.9413979  59.0877642  67.0536448  38.8053979
  59.8807642  66.3286448  39.3853979  58.5837642  66.7256448  37.5563979
  57.9017642  67.3696448  37.1743979  58.8457642  65.4726448  36.8183979
  58.6537642  64.6356448  37.4903979  57.8987642  65.3246448  35.6063979
  58.1287642  66.1026448  34.8803979  58.1117642  64.3716448  35.1193979
  56.3957642  65.3716448  35.9003979  55.9997642  65.2196448  37.0793979
  55.6467642  65.5586448  34.9163979  60.2947642  65.3256448  36.3143979
  60.8647642  64.2476448  36.4023979  60.9367642  66.4246448  35.7653979
  60.3967642  67.2816448  35.6703979  62.3087642  66.3256448  35.2353979
  62.3467642  65.4656448  34.5663979  62.7097642  67.5756448  34.4343979
  62.7777642  68.4326448  35.1163979  63.7307642  67.4216448  34.0573979
  61.8387642  67.9426448  33.2383979  61.8367642  67.1326448  32.0873979
  62.4177642  66.2206448  32.0693979  61.1007642  67.5136448  30.9493979
  61.1117642  66.8896448  30.0683979  60.3697642  68.7196448  30.9543979
  59.6877642  69.1046448  29.8433979  59.6877642  68.4036448  29.1543979
  60.3637642  69.5316448  32.1093979  59.7897642  70.4446448  32.1183979
  61.0997642  69.1406448  33.2453979  61.0967642  69.7566448  34.1313979
  63.3447642  66.0846448  36.3463979  64.3467642  65.4226448  36.1223979
  63.0797642  66.6366448  37.5833979  62.2097642  67.1536448  37.6583979
  63.8877642  66.4336448  38.7893979  64.9367642  66.6136448  38.5543979
  63.4357642  67.4556448  39.8433979  63.6547642  68.4586448  39.4733979
  62.3587642  67.3716448  39.9833979  64.1367642  67.2536448  41.1943979
  63.7977642  66.3236448  41.6523979  65.2137642  67.1896448  41.0223979
  63.8467642  68.4006448  42.1563979  64.8157642  68.9596448  42.7183979
  62.6697642  68.7876448  42.3273979  63.7807642  65.0016448  39.3363979
  64.7677642  64.4376448  39.7793979  62.5547642  64.3796448  39.2713979
  61.7787642  64.9106448  38.8853979  62.3377642  62.9956448  39.6973979
  62.7067642  62.8856448  40.7193979  60.8257642  62.6926448  39.6953979
  60.3787642  63.1006448  38.7873979  60.6887642  61.6106448  39.6703979
  60.0787642  63.2346448  40.9273979  60.5547642  63.0686448  42.0713979
  58.9607642  63.7896448  40.7793979  63.1487642  62.0026448  38.8333979
  63.7727642  61.0996448  39.3663979  63.2347642  62.2056448  37.4653979
  62.6807642  62.9656448  37.0763979  64.0837642  61.3746448  36.5913979
  63.8217642  60.3306448  36.7663979  63.7797642  61.6876448  35.1143979
  62.7337642  61.4346448  34.9303979  63.8927642  62.7556448  34.9383979
  64.6407642  60.8946448  34.1043979  64.7267642  59.8596448  34.4343979
  64.1267642  60.8886448  33.1423979  66.0327642  61.4846448  33.8623979
  66.1967642  62.6606448  33.6073979  67.1137642  60.6746448  33.9243979
  68.0167642  61.1006448  33.8313979  66.9817642  59.6886448  34.1783979
  65.5807642  61.5156448  36.9273979  66.2997642  60.5336448  36.9683979
  66.0657642  62.7696448  37.2313979  65.4137642  63.5436448  37.1523979
  67.4347642  63.0216448  37.6923979  68.1307642  62.7106448  36.9123979
  67.5887642  64.5366448  37.9013979  67.6107642  65.0216448  36.9173979
  66.6857642  64.9186448  38.3823979  68.7877642  65.0226448  38.7083979
  70.0987642  64.7406448  38.2773979  70.2557642  64.1226448  37.4023979
  71.2037642  65.2666448  38.9773979  72.2067642  65.0676448  38.6323979
  70.9967642  66.0636448  40.1233979  72.0517642  66.5956448  40.7943979
  72.8467642  66.7016448  40.2113979  69.6847642  66.3276448  40.5673979
  69.5437642  66.9326448  41.4473979  68.5807642  65.8116448  39.8583979
  67.5717642  66.0146448  40.1953979  67.7807642  62.1986448  38.9483979
  68.8137642  61.5516448  38.9963979  66.8707642  62.1476448  39.9843979
  66.0387642  62.7326448  39.9153979  67.0837642  61.3026448  41.1663979
  68.0957642  61.4706448  41.5363979  66.1007642  61.6826448  42.2833979
  65.0787642  61.5946448  41.8923979  66.1837642  60.9276448  43.0763979
  66.2487642  63.0566448  42.9393979  67.1987642  64.0116448  42.5153979
  67.8807642  63.7966448  41.7073979  67.2507642  65.2776448  43.1223979
  67.9467642  66.0186448  42.7683979  66.3747642  65.5986448  44.1693979
  66.3967642  66.5876448  44.6013979  65.4597642  64.6376448  44.6303979
  64.7817642  64.8756448  45.4383979  65.3947642  63.3756448  44.0133979
  64.6717642  62.6496448  44.3573979  66.9967642  59.7996448  40.8523979
  67.7277642  59.0356448  41.4573979  66.1447642  59.3556448  39.8603979
  65.5357642  60.0486448  39.4293979  66.0567642  57.9536448  39.4263979
  65.8437642  57.3366448  40.2993979  64.8867642  57.8126448  38.4333979
  63.9637642  58.1526448  38.9203979  65.0537642  58.4976448  37.5973979
  64.6407642  56.4226448  37.8553979  64.4397642  56.2666448  36.4683979
  64.4737642  57.1256448  35.8123979  64.2107642  54.9906448  35.9223979
  64.0837642  54.8686448  34.8553979  64.1767642  53.8646448  36.7633979
  64.0337642  52.8796448  36.3413979  64.3577642  54.0166448  38.1483979
  64.3517642  53.1466448  38.7923979  64.5877642  55.2916448  38.6943979
  64.7457642  55.3906448  39.7593979  67.3837642  57.4486448  38.8313979
  67.8207642  56.3536448  39.1363979  68.1077642  58.3106448  38.0313979
  67.6737642  59.2046448  37.8093979  69.4287642  57.9876448  37.4773979
  69.3547642  57.0326448  36.9523979  69.8037642  59.0726448  36.4523979
  69.0787642  59.0196448  35.6403979  69.7077642  60.0596448  36.9053979
  71.2087642  58.9086448  35.8423979  71.4607642  57.8486448  35.7843979
  71.1887642  59.2876448  34.8213979  72.3127642  59.6646448  36.5883979
  72.1407642  60.7416448  37.1163979  73.5497642  59.1146448  36.6433979
  74.2497642  59.6636448  37.1133979  73.7067642  58.2066448  36.2383979
  70.5047642  57.8066448  38.5643979  71.3947642  56.9876448  38.4103979
  70.4107642  58.5806448  39.7063979  69.6687642  59.2736448  39.7063979
  71.2747642  58.4306448  40.8943979  72.3097642  58.2966448  40.5773979
  71.1607642  59.6776448  41.7823979  70.1197642  59.8526448  42.0523979
  71.7367642  59.5106448  42.6943979  71.7197642  60.8986448  41.0563979
  72.7087642  60.6406448  40.6723979  71.0787642  61.1606448  40.2153979
  71.8527642  62.1116448  41.9743979  70.8687642  62.5386448  42.1793979
  72.3057642  61.7906448  42.9153979  72.7167642  63.0946448  41.3093979
  72.6737642  63.1056448  40.3043979  73.7287642  63.7326448  41.8583979
  73.8337642  63.9176448  43.1453979  73.0887642  63.5986448  43.7563979
  74.6377642  64.3916448  43.5213979  74.6877642  64.1736448  41.1033979
  74.7377642  63.9656448  40.1173979  75.5127642  64.5476448  41.5553979
  70.9527642  57.2006448  41.7343979  71.8157642  56.7036448  42.4273979
  69.6607642  56.7576448  41.7233979  68.9997642  57.2826448  41.1623979
  69.1697642  55.6436448  42.5223979  69.5997642  55.7046448  43.5203979
  67.6537642  55.8176448  42.6373979  67.4397642  56.8226448  43.0053979
  67.1867642  55.7076448  41.6583979  67.0377642  54.8406448  43.6143979
  67.1507642  55.0876448  44.8373979  66.3727642  53.8926448  43.1533979
  69.6007642  54.2856448  41.9423979  70.1717642  53.4686448  42.6443979
  69.4217642  54.0826448  40.5893979  68.9097642  54.8006448  40.0803979
  69.7927642  52.8366448  39.9023979  69.4007642  51.9896448  40.4693979
  69.1777642  52.8096448  38.4923979  69.5207642  53.6966448  37.9553979
  69.5517642  51.9376448  37.9543979  67.6407642  52.7866448  38.4763979
  67.2367642  53.2856448  39.3603979  67.3067642  53.3546448  37.6063979
  67.0827642  51.3616448  38.3673979  67.0767642  50.7766448  37.2573979
  66.5767642  50.8026448  39.3683979  71.3127642  52.6356448  39.7853979
  71.7687642  51.5076448  39.7223979  72.1407642  53.7436448  39.7323979
  71.7087642  54.6606448  39.7523979  73.6077642  53.6366448  39.7223979
  73.8847642  52.7786448  39.1103979  74.2537642  54.8706448  39.0953979
  75.3307642  54.7096448  39.0733979  73.8997642  54.9876448  38.0703979
  73.9837642  56.0436448  39.8403979  74.0887642  56.8006448  39.2343979
  74.2297642  53.4076448  41.1013979  75.3717642  52.9826448  41.1573979
  73.4917642  53.6886448  42.2373979  72.5607642  54.0726448  42.1083979
  73.9687642  53.3636448  43.5883979  74.9927642  53.7266448  43.6853979
  73.0987642  54.0636448  44.6483979  72.8717642  55.0776448  44.3203979
  72.1587642  53.5196448  44.7563979  73.8047642  54.1406448  46.0143979
  74.1917642  53.1556448  46.2793979  74.6527642  54.8236448  45.9243979
  72.8697642  54.6386448  47.1283979  71.9627642  55.4556448  46.8533979
  73.0137642  54.2226448  48.2973979  73.9977642  51.8416448  43.7943979
  74.9877642  51.2946448  44.2473979  72.8927642  51.1386448  43.3513979
  72.1237642  51.6976448  43.0003979  72.8537642  49.6896448  43.1693979
  71.9367642  49.4126448  42.6523979  73.6947642  49.4156448  42.5313979
  72.9517642  48.8586448  44.4523979  72.6747642  49.3086448  45.5543979
  73.3457642  47.5486448  44.2703979  73.4967642  47.2526448  43.3173979
  73.7707642  46.6646448  45.3613979  72.9477642  46.5756448  46.0653979
  74.0857642  45.2516448  44.8203979  74.7417642  45.3626448  43.9543979
  74.8057642  44.3536448  45.8453979  74.2047642  44.2236448  46.7533979
  75.0107642  43.3616448  45.4253979  75.7747642  44.7796448  46.1333979
  72.7747642  44.5646448  44.3803979  72.2837642  44.1126448  45.2433979
  72.0857642  45.2966448  43.9583979  73.0117642  43.5026448  43.3073979
  73.6647642  42.7006448  43.6693979  72.0557642  43.0616448  43.0163979
  73.4607642  43.9476448  42.4103979  74.9827642  47.3106448  46.0543979
  75.9877642  47.5606448  45.3953979  74.8977642  47.5886448  47.4143979
  73.8097642  47.1866448  48.3063979  73.6737642  46.1006448  48.2473979
  72.8817642  47.6956448  48.0163979  74.2327642  47.5956448  49.7263979
  74.4947642  46.7066448  50.3143979  73.4237642  48.1216448  50.2463979
  75.4687642  48.4946448  49.5673979  76.2297642  48.2786448  50.3273979
  75.1807642  49.5486448  49.6523979  75.9807642  48.2146448  48.1493979
  76.2427642  49.1576448  47.6703979  77.2037642  47.3076448  48.1413979
  77.1037642  46.0936448  48.1363979  78.4117642  47.9496448  48.1853979
  78.3797642  48.9606448  48.2213979  79.7227642  47.2946448  48.1893979
  79.8157642  46.6666448  47.3043979  80.7677642  48.4126448  48.1253979
  80.5917642  49.1276448  48.9343979  81.7697642  47.9996448  48.2533979
  80.7107642  49.1276448  46.7823979  80.7337642  50.3726448  46.7403979
  80.8207642  48.4766448  45.7183979  79.9727642  46.3776448  49.3923979
  81.0247642  45.7666448  49.4903979  78.9967642  46.3206448  50.3623979
  78.1237642  46.7986448  50.1773979  79.2347642  45.8146448  51.6953979
  79.8047642  44.8906448  51.6163979  80.1287642  46.8596448  52.3623979
  80.8287642  47.3086448  51.6583979  79.5197642  47.6686448  52.7723979
  80.8587642  46.1956448  53.3553979  80.2437642  46.3186448  54.1433979
  77.9157642  45.5056448  52.4473979  76.8987642  46.1436448  52.2213979
  77.8877642  44.4176448  53.3093979  78.7677642  43.9376448  53.4393979
  76.6487642  43.8646448  53.9083979  75.8917642  43.8566448  53.1253979
  76.8397642  42.3966448  54.3583979  77.7077642  42.3326448  55.0143979
  75.6297642  41.8186448  55.1093979  74.7107642  41.9246448  54.5163979
  75.7827642  40.7566448  55.3363979  75.4847642  42.3326448  56.0673979
  77.0647642  41.4876448  53.1433979  77.9807642  41.7676448  52.6113979
  77.1677642  40.4396448  53.4533979  76.2207642  41.5566448  52.4453979
  76.0317642  44.6986448  55.0423979  74.8197642  44.7036448  55.1563979
  76.8077642  45.4376448  55.9073979  77.7777642  45.5966448  55.6313979
  76.2007642  46.3326448  56.9123979  75.4207642  45.7556448  57.3913979
  77.0977642  46.7476448  58.1073979  77.5997642  47.6856448  57.9463979
  76.4817642  46.9376448  58.9833979  78.1507642  45.7146448  58.4643979
  78.6307642  45.4026448  57.5483979  78.9117642  46.1696448  59.0983979
  77.5997642  44.4666448  59.1193979  77.0917642  44.4836448  60.2173979
  77.7447642  43.3096448  58.4273979  77.9237642  42.4966448  59.0233979
  78.2997642  43.3626448  57.5923979  75.4817642  47.5066448  56.2363979
  74.4887642  47.9416448  56.7773979  75.8397642  47.9366448  54.9733979
  76.7527642  47.6366448  54.6263979  75.0007642  48.8406448  54.1593979
  74.6007642  49.6276448  54.7993979  75.8257642  49.4936448  53.0523979
  76.4587642  48.7526448  52.5673979  75.1337642  49.8726448  52.3043979
  76.6747642  50.6746448  53.4883979  76.5877642  51.1576448  54.6433979
  77.3787642  51.2116448  52.6053979  73.7917642  48.1546448  53.5003979
  72.8797642  48.8046448  53.0113979  73.7747642  46.7796448  53.4553979
  74.5797642  46.3096448  53.8553979  72.6217642  46.0036448  53.0093979
  72.1487642  46.5506448  52.1963979  73.1107642  44.6536448  52.4753979
  74.0677642  44.7746448  51.9643979  73.2617642  43.9846448  53.3213979
  72.0927642  44.0346448  51.5093979  71.0737642  44.2406448  51.8363979
  72.2877642  44.5866448  50.0993979  73.3207642  44.4336448  49.7663979
  71.6247642  44.0896448  49.3873979  72.0687642  45.6616448  50.0813979
  72.2837642  42.5266448  51.4883979  72.1467642  42.1256448  52.4963979
  71.5417642  42.0586448  50.8393979  73.2907642  42.2686448  51.1423979
  71.5897642  45.8246448  54.1363979  70.3947642  45.7646448  53.8893979
  72.0597642  45.7666448  55.4343979  73.0727642  45.7646448  55.5343979
  71.2027642  45.8316448  56.6253979  70.5157642  44.9846448  56.6113979
  72.0507642  45.7726448  57.9083979  72.6837642  46.6576448  57.9473979
  71.3777642  45.8216448  58.7633979  72.9587642  44.5426448  58.0783979
  73.7247642  44.5526448  57.3143979  73.4547642  44.6216448  59.0463979
  72.2387642  43.1946448  58.0023979  71.4457642  43.1736448  58.7503979
  71.8047642  43.0646448  57.0093979  73.2437642  42.0636448  58.2563979
  73.8247642  41.9006448  57.3453979  73.9327642  42.3686448  59.0513979
  72.5537642  40.8176448  58.6573979  71.7987642  40.5846448  58.0033979
  73.1857642  40.0376448  58.7353979  72.1227642  40.9406448  59.5623979
  70.3677642  47.1206448  56.5973979  70.8997642  48.2106448  56.4903979
  69.0037642  46.9856448  56.7233979  68.6717642  46.0306448  56.8383979
  68.0097642  48.0586448  56.5723979  67.0427642  47.5726448  56.6943979
  68.1517642  49.0816448  57.7213979  68.3257642  48.5596448  58.6613979
  69.0017642  49.7336448  57.5203979  66.9107642  49.9426448  57.8823979
  66.9097642  51.1326448  57.6533979  65.7617642  49.3196448  58.2343979
  64.9277642  49.8956448  58.3573979  65.7597642  48.3306448  58.4093979
  67.9357642  48.7176448  55.1723979  67.2847642  49.7396448  55.0153979
  68.5657642  48.1226448  54.0973979  69.1067642  47.2756448  54.2543979
  68.4597642  48.6616448  52.7363979  68.8037642  49.6956448  52.7733979
  69.3897642  47.8936448  51.7943979  70.3567642  47.7706448  52.2903979
  68.9927642  46.8866448  51.6063979  69.6447642  48.5896448  50.4863979
  68.8007642  48.6006448  49.3703979  69.4367642  49.3536448  48.4523979
  69.0687642  49.5496448  47.4533979  70.6027642  49.8176448  48.9383979
  71.2807642  50.3716448  48.4253979  70.7407642  49.3546448  50.2253979
  71.5567642  49.5386448  50.9153979  67.0057642  48.6206448  52.2353979
  66.3117642  47.6366448  52.4603979  66.4837642  49.6926448  51.5233979
  67.1667642  50.9656448  51.2663979  68.1807642  50.8266448  50.8743979
  67.2107642  51.5426448  52.2003979  66.2717642  51.6736448  50.2453979
  66.5627642  51.3676448  49.2313979  66.3467642  52.7666448  50.3113979
  64.8557642  51.1596448  50.5553979  64.1987642  51.1866448  49.6753979
  64.4027642  51.7696448  51.3473979  65.0877642  49.7326448  51.0793979
  64.4367642  49.5636448  51.9383979  64.7287642  48.6776448  50.0193979
  63.5667642  48.3386448  49.8983979  65.7147642  48.1536448  49.2053979
  66.6687642  48.4666448  49.3713979  65.4217642  47.3536448  48.0033979
  64.3577642  47.3976448  47.7693979  66.2027642  47.9316448  46.8193979
  67.2737642  47.9136448  47.0583979  66.0807642  47.2586448  45.9603979
  65.8267642  49.3306448  46.3513979  66.6267642  49.9326448  45.3623979
  67.5037642  49.4216448  44.9853979  66.2587642  51.1776448  44.8193979
  66.8537642  51.6196448  44.0323979  65.0897642  51.8266448  45.2763979
  64.6617642  52.9836448  44.7163979  65.3937642  53.3316448  44.0783979
  64.3107642  51.2446448  46.2913979  63.4257642  51.7546448  46.6373979
  64.6697642  49.9946448  46.8183979  64.0267642  49.5496448  47.5613979
  65.7687642  45.8746448  48.1273979  65.1127642  45.0306448  47.5343979
  66.8517642  45.5516448  48.9013979  67.3297642  46.3156448  49.3653979
  67.4487642  44.2246448  48.9423979  66.8887642  43.5596448  48.2863979
  68.8857642  44.2936448  48.4103979  69.4987642  44.7896448  49.1713979
  69.2817642  43.2766448  48.2973979  69.0407642  45.0316448  47.0853979
  68.2977642  44.6286448  45.9583979  67.6587642  43.7656448  46.0243979
  68.3627642  45.3686448  44.7613979  67.7697642  45.0776448  43.9073979
  69.2047642  46.4996448  44.6823979  69.2757642  47.2306448  43.5403979
  68.6847642  46.9046448  42.8413979  69.9667642  46.8866448  45.8033979
  70.6027642  47.7556448  45.7343979  69.8817642  46.1576448  47.0043979
  70.4457642  46.4816448  47.8693979  67.3897642  43.6156448  50.3403979
  67.0987642  44.2746448  51.3233979  67.6727642  42.2796448  50.4053979
  67.8157642  41.7986448  49.5173979  67.7447642  41.4906448  51.6273979
  68.0707642  42.1476448  52.4343979  66.3497642  40.9576448  52.0093979
  65.7207642  41.8136448  52.2543979  65.6477642  40.1726448  50.8973979
  66.2337642  39.2976448  50.5933979  64.6777642  39.8256448  51.2643979
  65.4697642  40.7996448  50.0143979  66.3977642  40.0616448  53.2443979
  66.8937642  40.5716448  54.0773979  65.3877642  39.7866448  53.5713979
  66.9347642  39.1336448  53.0273979  68.8057642  40.4046448  51.4633979
  68.9257642  39.7756448  50.4223979  69.6417642  40.2046448  52.5343979
  69.4657642  40.7556448  53.3643979  70.6027642  39.1106448  52.6143979
  71.1917642  39.0916448  51.6973979  71.5037642  39.3686448  53.8323979
  71.7997642  40.4156448  53.8633979  70.9167642  39.1766448  54.7313979
  72.7687642  38.5006448  53.8653979  72.5127642  37.4546448  53.6973979
  73.7707642  38.9536448  52.8023979  74.0067642  40.0186448  52.9143979
  74.7027642  38.3876448  52.8873979  73.3767642  38.7886448  51.7933979
  73.4057642  38.6256448  55.2433979  72.7187642  38.2676448  56.0193979
  74.3227642  38.0316448  55.3053979  73.6477642  39.6706448  55.4653979
  69.8657642  37.7756448  52.7713979  68.8797642  37.7206448  53.4793979
  70.3837642  36.6406448  52.1883979  71.1947642  36.7516448  51.5783979
  69.7327642  35.3226448  52.2933979  68.7967642  35.3606448  51.7343979
  70.6507642  34.2766448  51.6413979  70.9547642  34.6536448  50.6663979
  71.5507642  34.1696448  52.2493979  69.9727642  32.9126448  51.4223979
  68.8997642  32.9946448  51.6063979  70.0887642  32.6406448  50.3713979
  70.5647642  31.7726448  52.2583979  71.8027642  31.5936448  52.2793979
  69.7767642  30.9646448  52.8043979  69.3747642  34.9156448  53.7403979
  68.3427642  34.3126448  53.9693979  70.2397642  35.3096448  54.7443979
  71.0607642  35.8116448  54.4413979  70.0377642  35.0866448  56.1823979
  69.7187642  34.0556448  56.3413979  71.3717642  35.3176448  56.9103979
  71.7667642  36.2856448  56.6053979  71.1937642  35.3516448  57.9863979
  72.4167642  34.2256448  56.6313979  72.0847642  33.2976448  57.0963979
  72.5007642  34.0556448  55.5573979  73.8047642  34.5676448  57.1733979
  74.0417642  35.5706448  57.8063979  74.8147642  33.6956448  56.9403979
  75.6747642  33.9026448  57.4323979  74.6277642  32.8306448  56.4683979
  68.9727642  35.9896448  56.8293979  68.3667642  35.5896448  57.8073979
  68.7397642  37.2416448  56.3013979  69.1937642  37.4666448  55.4223979
  67.8037642  38.2196448  56.8803979  67.6847642  37.9906448  57.9403979
  68.3597642  39.6486448  56.7933979  68.3657642  39.9566448  55.7473979
  67.6847642  40.3156448  57.3343979  69.7677642  39.8476448  57.3573979
  70.3997642  40.8556448  56.9773979  70.2737642  39.0466448  58.1783979
  66.3957642  38.1336448  56.2703979  65.4977642  38.8536448  56.6713979
  66.1727642  37.1836448  55.2963979  66.9797642  36.6556448  54.9873979
  64.8307642  36.7256448  54.9373979  64.2337642  37.5996448  54.6703979
  64.8507642  35.7626448  53.7263979  65.3047642  34.8186448  54.0333979
  63.3987642  35.4866448  53.2963979  62.9017642  36.4166448  52.9933979
  63.3467642  34.7756448  52.4653979  62.8327642  35.0426448  54.1223979
  65.6907642  36.3506448  52.5673979  65.3127642  37.3416448  52.3163979
  66.7207642  36.4516448  52.9013979  65.7397642  35.5066448  51.2913979
  64.7457642  35.4156448  50.8473979  66.3947642  35.9846448  50.5523979
  66.1247642  34.5016448  51.4983979  64.2137642  36.0806448  56.1883979
  64.7607642  35.1426448  56.7533979  63.0417642  36.6296448  56.6633979
  62.6587642  37.3936448  56.1073979  62.3627642  36.2106448  57.8993979
  63.0767642  36.3146448  58.7183979  61.1867642  37.1716448  58.1263979
  61.5487642  38.1846448  57.9333979  60.4007642  36.9526448  57.4053979
  60.5817642  37.1396448  59.5363979  59.9497642  36.2566448  59.6433979
  61.3797642  37.1056448  60.2803979  59.7527642  38.4176448  59.7423979
  60.4127642  39.2796448  59.6213979  58.9757642  38.4796448  58.9783979
  59.1167642  38.5176448  61.1313979  59.8837642  38.3506448  61.8943979
  58.7437642  39.5386448  61.2603979  57.9957642  37.5646448  61.3043979
  58.3047642  36.6136448  61.1903979  57.6297642  37.6526448  62.2543979
  57.2567642  37.7356448  60.6213979  61.9357642  34.7406448  57.8223979
  61.6797642  34.2266448  56.7483979  61.7927642  34.0196448  58.9893979
  62.0277642  34.4726448  59.8633979  61.5067642  32.5766448  58.9473979
  62.3017642  32.1176448  58.3573979  61.5547642  31.9606448  60.3553979
  62.4407642  32.3226448  60.8803979  60.6657642  32.2556448  60.9163979
  61.6277642  30.4246448  60.2493979  60.7427642  30.0516448  59.7373979
  62.5017642  30.1556448  59.6563979  61.7147642  29.6926448  61.5863979
  61.5587642  30.2516448  62.6453979  61.9397642  28.3536448  61.5553979
  62.0547642  27.9106448  62.4603979  62.1767642  27.9136448  60.6873979
  60.1757642  32.2576448  58.2363979  60.0807642  31.2746448  57.5243979
  59.1477642  33.1606448  58.3853979  59.3187642  33.9496448  58.9933979
  57.8337642  33.1156448  57.7243979  57.4297642  32.1066448  57.7993979
  56.8827642  34.0726448  58.4643979  55.9347642  34.1326448  57.9333979
  56.6257642  33.6066448  59.8993979  57.5387642  33.6556448  60.5053979
  55.8697642  34.2476448  60.3693979  56.2537642  32.5756448  59.9123979
  57.4517642  35.3616448  58.5753979  56.8947642  35.9436448  57.9813979
  57.8787642  33.4676448  56.2293979  57.0087642  33.0596448  55.4803979
  58.9467642  34.1946448  55.7503979  59.6827642  34.4156448  56.4093979
  59.1307642  34.5936448  54.3543979  58.1547642  34.8376448  53.9463979
  60.0027642  35.8566448  54.2853979  60.8737642  35.7066448  54.9153979
  60.3467642  36.0086448  53.2643979  59.2837642  37.1336448  54.7383979
  58.5367642  37.4036448  53.9933979  58.7747642  36.9546448  55.6843979
  60.2377642  38.3106448  54.9283979  61.4367642  38.2266448  54.7713979
  59.7227642  39.4966448  55.3323979  60.3887642  40.2496448  55.4083979
  58.7297642  39.5866448  55.4673979  59.7067642  33.4846448  53.4563979
  60.3057642  32.5136448  53.9053979  59.5367642  33.6646448  52.1003979
  59.0147642  34.4956448  51.8163979  60.0447642  32.7676448  51.0583979
  61.0017642  32.3846448  51.4093979  59.0897642  31.5616448  50.8973979
  58.9687642  31.1166448  51.8863979  57.6917642  31.9676448  50.3963979
  57.7447642  32.4516448  49.4143979  57.0427642  31.0926448  50.2933979
  57.2117642  32.6616448  51.0993979  59.7037642  30.4886448  49.9753979
  59.5147642  30.7436448  48.9313979  60.7827642  30.4546448  50.1293979
  59.1577642  29.0846448  50.2653979  58.0717642  29.0436448  50.1233979
  59.6177642  28.3546448  49.5883979  59.3877642  28.7846448  51.2953979
  60.3197642  33.5106448  49.7383979  59.5967642  34.4136448  49.3543979
  61.4277642  33.1156448  49.0173979  61.9717642  32.3546448  49.3953979
  61.8027642  33.6666448  47.7033979  61.7337642  34.7536448  47.7643979
  63.2587642  33.3106448  47.3263979  63.3067642  32.2576448  47.0473979
  63.7417642  34.1566448  46.1433979  63.7047642  35.2276448  46.3843979
  64.7767642  33.9026448  45.8863979  63.1287642  33.9816448  45.2513979
  64.2517642  33.5356448  48.4763979  64.0307642  32.8936448  49.3363979
  65.2757642  33.3056448  48.1533979  64.2297642  34.5806448  48.8013979
  60.8207642  33.1826448  46.6233979  60.5407642  31.9966448  46.5223979
  60.2657642  34.1436448  45.8023979  60.5967642  35.0936448  45.9583979
  59.2457642  33.9106448  44.7663979  58.4277642  33.3756448  45.2463979
  58.7167642  35.2566448  44.2433979  59.5527642  35.8516448  43.8773979
  58.0437642  35.0696448  43.4063979  57.9527642  36.0686448  45.3013979
  57.1747642  35.4516448  45.7513979  58.6317642  36.3996448  46.0843979
  57.3077642  37.2866448  44.6323979  58.0717642  37.8596448  44.1023979
  56.5687642  36.9366448  43.9083979  56.6247642  38.1936448  45.6573979
  55.9147642  37.6016448  46.2413979  57.3817642  38.6056448  46.3323979
  55.9187642  39.2896448  44.9613979  55.1617642  38.9046448  44.3973979
  55.5097642  39.9486448  45.6203979  56.5757642  39.8066448  44.3893979
  59.7467642  33.0116448  43.6113979  60.9417642  32.9216448  43.3793979
  58.8157642  32.2916448  42.8653979  57.3567642  32.4446448  42.9063979
  57.0497642  33.0956448  42.0743979  56.9797642  32.8546448  43.8493979
  56.8357642  31.0256448  42.6733979  55.8207642  31.0166448  42.2583979
  56.8307642  30.4846448  43.6283979  57.8627642  30.3886448  41.7233979
  57.5657642  30.5666448  40.6823979  57.9587642  29.3066448  41.8833979
  59.1727642  31.1256448  42.0533979  59.7877642  30.4726448  42.6713979
  59.9497642  31.4816448  40.7833979  59.5007642  32.2766448  39.9713979
  61.1477642  30.8276448  40.5953979  61.4217642  30.1766448  41.3293979
  62.0467642  31.0316448  39.4533979  62.8347642  30.2806448  39.4953979
  61.4887642  30.8926448  38.5273979  62.7287642  32.4066448  39.3963979
  63.4987642  32.6476448  38.4773979  62.4877642  33.3156448  40.4113979
  61.8527642  33.0346448  41.1493979  63.2677642  34.5366448  40.5913979
  63.1947642  35.1346448  39.6823979  62.7337642  35.3606448  41.7683979
  62.7517642  34.7516448  42.6753979  63.3787642  36.2296448  41.9213979
  61.0437642  35.9266448  41.4373979  60.8917642  36.5186448  42.6293979
  64.7397642  34.1906448  40.8273979  65.0607642  33.2436448  41.5263979
  65.6667642  35.0026448  40.2163979  65.3167642  35.8046448  39.7083979
  67.1117642  34.8366448  40.3793979  67.3247642  33.7936448  40.6253979
  67.8437642  35.1756448  39.0703979  67.7627642  36.2496448  38.8873979
  68.9027642  34.9426448  39.1913979  67.3167642  34.4406448  37.8223979
  66.3867642  34.9186448  37.5133979  68.0427642  34.5866448  37.0213979
  67.0597642  32.9306448  37.9703979  67.9937642  32.4106448  38.1903979
  66.3387642  32.7366448  38.7653979  66.4687642  32.4546448  36.6393979
  65.4987642  32.9446448  36.5083979  67.1237642  32.7766448  35.8243979
  66.2737642  30.9896448  36.5843979  65.6457642  30.6766448  37.3113979
  65.8477642  30.7316448  35.7043979  67.1427642  30.4716448  36.6913979
  67.6377642  35.6536448  41.5563979  67.0277642  36.6176448  41.9963979
  68.8477642  35.2576448  42.0483979  69.2597642  34.4166448  41.6393979
  69.6737642  36.0516448  42.9443979  69.1647642  36.1546448  43.9033979
  71.0257642  35.3516448  43.1703979  71.5757642  35.2756448  42.2313979
  71.6067642  35.9846448  43.8423979  70.9227642  33.9606448  43.8183979
  71.8397642  33.8156448  44.3913979  70.0947642  33.9596448  44.5243979
  70.7777642  32.7706448  42.8493979  71.1757642  31.6486448  43.2433979
  70.2777642  32.9316448  41.7113979  69.8997642  37.4516448  42.3543979
  70.2767642  37.6006448  41.2023979  69.6697642  38.5246448  43.1813979
  69.4047642  38.3236448  44.1393979  70.0017642  39.8986448  42.8123979
  69.6097642  40.1106448  41.8173979  69.3107642  40.8206448  43.8263979
  68.2767642  40.4966448  43.9533979  69.8277642  40.7636448  44.7853979
  69.3107642  42.5286448  43.2253979  68.8567642  43.1046448  44.3463979
  71.5327642  40.0786448  42.7643979  72.0797642  40.7546448  41.9063979
  72.2697642  39.3766448  43.6943979  71.7527642  38.8116448  44.3653979
  73.7247642  39.3456448  43.7153979  74.0947642  39.0256448  42.7413979
  74.0887642  40.3546448  43.9043979  74.3097642  38.4206448  44.7753979
  73.6287642  37.6076448  45.3783979  75.6447642  38.6096448  45.0183979
  76.1077642  39.3296448  44.4763979  76.4287642  37.9666448  46.0643979
  75.7627642  37.5496448  46.8193979  77.2897642  36.8366448  45.4693979
  77.9597642  37.2666448  44.7133979  77.9487642  36.4686448  46.2653979
  76.5747642  35.6356448  44.8463979  75.9827642  35.7196448  43.5673979
  75.9797642  36.6596448  43.0333979  75.4057642  34.5796448  42.9693979
  74.9457642  34.6566448  41.9943979  75.4587642  33.3346448  43.6343979
  74.9177642  32.2176448  43.0783979  74.4907642  32.4096448  42.2233979
  76.0777642  33.2416448  44.8963979  76.1407642  32.2846448  45.3883979
  76.6097642  34.3926448  45.5083979  77.0727642  34.3156448  46.4783979
  77.3267642  39.0276448  46.7213979  77.8907642  39.8596448  46.0273979
  77.4917642  38.9786448  48.0873979  77.0027642  38.2336448  48.5853979
  78.4387642  39.8056448  48.8443979  79.1637642  40.2316448  48.1493979
  77.7297642  40.9666448  49.5763979  76.9907642  40.5316448  50.2483979
  78.4647642  41.4906448  50.1893979  77.0367642  42.0086448  48.6773979
  76.4537642  41.5036448  47.9083979  76.0847642  42.8736448  49.5053979
  76.6337642  43.4876448  50.2303979  75.5247642  43.5516448  48.8493979
  75.3697642  42.2546448  50.0553979  78.0467642  42.9426448  48.0123979
  78.7917642  42.3866448  47.4353979  77.5317642  43.6256448  47.3263979
  78.5647642  43.5586448  48.7593979  79.2237642  38.9406448  49.8383979
  78.7117642  37.9766448  50.3863979  80.5247642  39.3186448  50.0793979
  80.8477642  40.1486448  49.5973979  81.3757642  38.7446448  51.1233979
  81.0407642  37.7296448  51.3373979  82.8267642  38.6956448  50.6153979
  82.8347642  38.3706448  49.5733979  83.2417642  39.7036448  50.6523979
  83.7117642  37.7216448  51.4133979  83.4347642  37.7226448  52.4673979
  83.5437642  36.7146448  51.0293979  85.2047642  38.0676448  51.2833979
  85.7907642  37.1916448  51.5643979  85.4307642  38.3206448  50.2453979
  85.5797642  39.2366448  52.2083979  84.9597642  40.1026448  51.9603979
  85.3487642  38.9466448  53.2383979  87.0177642  39.5806448  52.1043979
  87.2987642  39.7706448  51.1413979  87.2607642  40.3936448  52.6533979
  87.5937642  38.8246448  52.4443979  81.2567642  39.5766448  52.4063979
  81.4287642  40.7816448  52.3683979  80.9977642  38.8976448  53.5683979
  80.8397642  37.9006448  53.4683979  81.1667642  39.4446448  54.9323979
  80.5387642  40.3276448  55.0503979  80.6697642  38.3656448  55.9293979
  80.7237642  38.6966448  56.9313979  79.1877642  38.0256448  55.7563979
  78.9767642  37.5716448  54.7823979  78.8727642  37.3326448  56.5473979
  78.5877642  38.9376448  55.8703979  81.5247642  37.1126448  55.9263979
  82.5417642  37.3846448  56.2293979  81.1437642  36.3836448  56.6523979
  81.5377642  36.6776448  54.9293979  82.6417642  39.8956448  55.1423979
  83.5287642  39.3206448  54.5223979  82.9697642  40.9696448  55.9643979
  82.2537642  41.2786448  56.6263979  84.3857642  41.3066448  56.2353979
  84.8867642  41.4316448  55.2783979  84.6407642  42.5956448  57.0413979
  83.8827642  42.7036448  57.8173979  85.5827642  42.5036448  57.5963979
  84.7257642  43.8886448  56.2683979  84.9767642  45.1096448  56.8833979
  84.5507642  46.0606448  56.0403979  84.4307642  47.1026448  56.3163979
  84.0977642  45.4986448  54.9033979  83.5557642  45.9896448  54.2003979
  84.2037642  44.1276448  55.0273979  83.7717642  43.3896448  54.3683979
  85.0737642  40.1476448  56.9453979  84.5357642  39.4846448  57.8103979
  86.3547642  39.8976448  56.5363979  86.7327642  40.4976448  55.8173979
  87.1227642  38.7656448  57.0163979  87.8977642  39.1356448  57.6863979
  86.4837642  38.0866448  57.5823979  87.7597642  37.9736448  55.8863979
  87.3677642  38.0236448  54.7283979  88.8207642  37.1986448  56.2803979
  89.0727642  37.2816448  57.2583979  89.7307642  36.4836448  55.3763979
  89.7247642  36.9796448  54.4023979  91.1447642  36.6126448  55.9643979
  91.1427642  36.2646448  56.9993979  91.8407642  36.0016448  55.3883979
  91.5917642  38.0896448  55.8973979  91.7457642  38.3516448  54.8523979
  90.8097642  38.7456448  56.2813979  92.8557642  38.4006448  56.7053979
  92.6077642  38.3606448  57.7683979  93.6367642  37.6666448  56.5003979
  93.3407642  39.8176448  56.3603979  92.4777642  40.4816448  56.2413979
  93.9447642  40.1996448  57.1883979  94.1567642  39.8266448  55.1253979
  93.7327642  39.2846448  54.3813979  94.2857642  40.7776448  54.7883979
  95.0867642  39.4676448  55.3363979  89.2897642  35.0396448  55.0943979
  89.7027642  34.4636448  54.1083979  88.3487642  34.5076448  55.9523979
  88.1657642  35.0676448  56.7713979  87.4747642  33.3366448  55.7253979
  87.6967642  32.9186448  54.7423979  87.6977642  32.2266448  56.7743979
  86.9477642  31.4486448  56.6323979  89.0517642  31.5496448  56.5733979
  89.8777642  32.2576448  56.6923979  89.1777642  30.7386448  57.3033979
  89.1047642  31.1056448  55.5703979  87.5587642  32.7536448  58.2093979
  86.5637642  33.1876448  58.3733979  87.6797642  31.9326448  58.9273979
  88.3157642  33.5126448  58.4393979  85.9967642  33.7436448  55.6843979
  85.1177642  32.9166448  55.8593979  85.6987642  35.0746448  55.4703979
  86.4647642  35.7076448  55.2913979  84.3327642  35.5676448  55.3453979
  83.8347642  35.4866448  56.3123979  84.3477642  36.6176448  55.0473979
  83.5487642  34.7736448  54.2963979  84.0227642  34.5616448  53.1903979
  82.3097642  34.2886448  54.6693979  82.0007642  34.5046448  55.6093979
  81.3887642  33.6336448  53.7363979  81.8707642  32.7376448  53.3433979
  80.0647642  33.2436448  54.4233979  79.5297642  34.1526448  54.7003979
  79.4527642  32.7136448  53.6903979  80.1687642  32.3626448  55.6753979
  80.5977642  32.9436448  56.4933979  79.1587642  32.0636448  55.9623979
  81.0177642  31.1096448  55.4513979  80.7167642  30.6146448  54.5263979
  82.0607642  31.4136448  55.3683979  80.8517642  30.1436448  56.6263979
  81.0577642  30.6716448  57.5623979  79.8147642  29.7956448  56.6553979
  81.7667642  28.9906448  56.4943979  82.7407642  29.2876448  56.5043979
  81.6217642  28.2956448  57.2233979  81.6477642  28.5036448  55.6163979
  81.0657642  34.5506448  52.5583979  80.7157642  35.7056448  52.7393979
  81.0717642  33.9686448  51.3173979  81.4257642  33.0226448  51.2583979
  80.2447642  34.4826448  50.2233979  80.3397642  35.5686448  50.1813979
  80.6967642  33.9116448  48.8673979  80.6787642  32.8216448  48.9073979
  79.7787642  34.3756448  47.7333979  79.7337642  35.4706448  47.6883979
  80.1417642  34.0016448  46.7673979  78.7667642  33.9846448  47.8783979
  82.1207642  34.3696448  48.5363979  82.8317642  34.0036448  49.2853979
  82.4367642  33.9716448  47.5633979  82.1887642  35.4646448  48.5003979
  78.7827642  34.1386448  50.5283979  78.4317642  32.9746448  50.6653979
  77.9077642  35.1956448  50.6463979  78.2997642  36.1356448  50.5633979
  76.4667642  35.0776448  50.8603979  76.2027642  34.0226448  50.9273979
  76.0567642  35.7586448  52.1803979  76.2727642  36.8246448  52.0893979
  74.9777642  35.6466448  52.3053979  76.7567642  35.2306448  53.4453979
  77.8317642  35.3846448  53.3623979  76.2547642  35.9966448  54.6663979
  75.1787642  35.8446448  54.8123979  76.7727642  35.6626448  55.5743979
  76.4447642  37.0706448  54.5533979  76.4787642  33.7456448  53.6893979
  76.9007642  33.1316448  52.8863979  76.9397642  33.4216448  54.6303979
  75.4007642  33.5526448  53.7483979  75.6827642  35.6676448  49.6833979
  76.0347642  36.6966448  49.1293979  74.5467642  34.9856448  49.3093979
  74.3467642  34.1376448  49.8213979  73.5777642  35.4706448  48.3193979
  74.1217642  35.8206448  47.4383979  72.6437642  34.3286448  47.8923979
  72.1377642  33.9276448  48.7693979  71.8947642  34.7276448  47.2053979
  73.4037642  33.2036448  47.1793979  73.8707642  33.6236448  46.2903979
  74.1757642  32.7936448  47.8323979  72.4567642  32.0776448  46.7603979
  72.0327642  31.5996448  47.6463979  71.6477642  32.4976448  46.1663979
  73.2157642  31.0426448  45.9263979  73.8387642  31.5676448  45.1963979
  73.8647642  30.4626448  46.5893979  72.2767642  30.1516448  45.2103979
  71.7177642  30.6946448  44.5453979  72.7617642  29.4506448  44.6733979
  71.6467642  29.6906448  45.8653979  72.7657642  36.6596448  48.8453979
  72.4887642  36.7756448  50.0293979  72.3167642  37.5286448  47.8853979
  72.6137642  37.3256448  46.9313979  71.5217642  38.7426448  48.0923979
  71.1437642  38.7656448  49.1153979  72.3937642  39.9916448  47.8633979
  72.8547642  39.9276448  46.8783979  71.5797642  41.2896448  47.9163979
  71.0097642  41.3536448  48.8483979  72.2407642  42.1626448  47.8463979
  70.8727642  41.3476448  47.0813979  73.5157642  40.0886448  48.9023979
  74.1617642  39.2026448  48.8873979  74.1467642  40.9546448  48.6823979
  73.1067642  40.2006448  49.9123979  70.3327642  38.7216448  47.1343979
  70.4937642  38.4786448  45.9493979  69.0977642  39.0056448  47.6593979
  69.0557642  39.2296448  48.6543979  67.8377642  38.9516448  46.9173979
  68.0407642  38.7176448  45.8723979  66.9727642  37.8176448  47.4783979
  66.8297642  37.9656448  48.5573979  65.9737642  37.8736448  47.0273979
  67.5367642  36.4226448  47.2323979  68.4157642  35.8326448  48.1623979
  68.7097642  36.3786448  49.0493979  68.9067642  34.5306448  47.9413979
  69.5777642  34.0796448  48.6523979  68.5147642  33.8156448  46.7883979
  68.9547642  32.5456448  46.5923979  69.3737642  32.1756448  47.3823979
  67.6597642  34.4206448  45.8433979  67.3777642  33.8726448  44.9543979
  67.1737642  35.7226448  46.0653979  66.5097642  36.1806448  45.3423979
  67.1027642  40.2976448  46.9413979  67.2597642  41.0946448  47.8513979
  66.2667642  40.5746448  45.8873979  66.1857642  39.8686448  45.1523979
  65.3957642  41.7446448  45.8293979  65.9257642  42.6116448  46.2113979
  65.0537642  41.9916448  44.3563979  64.5097642  41.1336448  43.9403979
  64.4317642  42.8856448  44.2383979  65.9697642  42.1236448  43.7643979
  64.1437642  41.5416448  46.7003979  63.4387642  40.5656448  46.5363979
  63.7907642  42.5126448  47.6223979  64.3967642  43.3326448  47.6803979
  62.6497642  42.3886448  48.5553979  62.7987642  41.4956448  49.1633979
  62.6117642  43.6046448  49.5073979  62.7477642  44.5226448  48.9333979
  61.6307642  43.6476448  49.9843979  63.6657642  43.5256448  50.6313979
  63.3887642  42.7126448  51.3053979  64.6417642  43.2976448  50.2053979
  63.7657642  44.8406448  51.4293979  64.4117642  45.5336448  50.8873979
  62.7757642  45.2886448  51.5123979  64.3297642  44.6176448  52.8443979
  63.6607642  43.9426448  53.3843979  65.3117642  44.1416448  52.7693979
  64.4507642  45.8886448  53.5993979  63.5477642  46.3526448  53.6793979
  64.7957642  45.7306448  54.5433979  65.1077642  46.5176448  53.1403979
  61.2977642  42.1746448  47.8443979  60.4237642  41.5396448  48.4023979
  61.1297642  42.6546448  46.5563979  61.9117642  43.1896448  46.2023979
  59.9607642  42.4076448  45.6773979  59.0477642  42.6046448  46.2443979
  60.0417642  43.4016448  44.5043979  60.0107642  44.4076448  44.9243979
  60.9997642  43.2746448  43.9953979  58.9117642  43.2766448  43.4643979
  59.0527642  42.3706448  42.8723979  57.9537642  43.2066448  43.9783979
  58.8817642  44.4966448  42.5283979  57.9877642  44.4406448  41.9043979
  58.8167642  45.3996448  43.1393979  60.0747642  44.5466448  41.6603979
  60.4667642  43.6516448  41.3803979  60.6757642  45.6186448  41.1693979
  60.2187642  46.8286448  41.3163979  59.3427642  46.9996448  41.7683979
  60.7217642  47.5866448  40.8683979  61.7857642  45.5146448  40.5053979
  62.2437642  44.6186448  40.3693979  62.2007642  46.3636448  40.1333979
  59.8467642  40.9506448  45.1983979  58.7477642  40.4576448  45.0063979
  61.0157642  40.2396448  45.0793979  61.8697642  40.7336448  45.3123979
  61.1397642  38.7986448  44.8373979  60.3437642  38.4986448  44.1573979
  62.4817642  38.4716448  44.1453979  63.3027642  38.7336448  44.8133979
  62.5397642  37.3966448  43.9763979  62.7057642  39.1676448  42.7983979
  61.7287642  39.6916448  42.2063979  63.8677642  39.1536448  42.3363979
  60.9507642  37.9636448  46.1183979  61.1857642  36.7686448  46.1013979
  60.4767642  38.5806448  47.2623979  60.3237642  39.5816448  47.2173979
  60.1677642  37.8926448  48.5213979  60.4247642  36.8386448  48.4153979
  61.0057642  38.4466448  49.6953979  60.6307642  39.4396448  49.9313979
  60.8267642  37.5946448  50.9623979  61.0747642  36.5416448  50.7793979
  61.4717642  37.9666448  51.7703979  59.7957642  37.6466448  51.3283979
  62.5047642  38.6116448  49.3753979  62.6197642  39.3186448  48.5593979
  62.9757642  39.0546448  50.2463979  63.2667642  37.3356448  49.0133979
  62.8807642  36.8896448  48.0923979  64.3277642  37.5676448  48.8563979
  63.1927642  36.5986448  49.8163979  58.6667642  37.9736448  48.8213979
  58.0607642  39.0366448  48.8033979  58.0447642  36.7896448  49.1143979
  58.6457642  35.9666448  49.1393979  56.7197642  36.6576448  49.7043979
  56.1437642  37.5656448  49.5233979  56.0157642  35.4826448  49.0183979
  56.6007642  34.5616448  49.1423979  55.0207642  35.3166448  49.4493979
  55.9017642  35.6716448  47.9433979  56.8247642  36.4496448  51.2263979
  57.8117642  35.9316448  51.7183979  55.7387642  36.8106448  51.9913979
  54.9397642  37.1936448  51.5053979  55.5707642  36.4566448  53.4073979
  56.4267642  35.8726448  53.7323979  55.5277642  37.7216448  54.2753979
  56.3707642  38.3606448  54.0093979  54.6197642  38.2736448  54.0393979
  55.5947642  37.4446448  55.7873979  56.2067642  36.4386448  56.2063979
  55.0627642  38.2806448  56.5553979  54.3297642  35.5736448  53.5863979
  53.3147642  35.7916448  52.9353979  54.4327642  34.5366448  54.4813979
  55.2687642  34.5216448  55.0673979  53.4377642  33.4836448  54.6853979
  52.5907642  33.6426448  54.0173979  54.0497642  32.1066448  54.3943979
  54.7947642  31.9106448  55.1663979  53.2657642  31.3576448  54.4963979
  54.7127642  31.9246448  53.0243979  55.4017642  32.7406448  52.8113979
  55.5007642  30.6186448  53.0563979  54.8667642  29.7836448  53.3773979
  55.9177642  30.3846448  52.0743979  56.3337642  30.7156448  53.7643979
  53.6627642  31.8576448  51.9193979  53.0977642  32.7956448  51.8893979
  54.1367642  31.7136448  50.9413979  52.9677642  31.0296448  52.1003979
  52.9117642  33.4896448  56.1193979  53.5697642  33.9636448  57.0293979
  51.6877642  32.8926448  56.3333979  51.2277642  32.4696448  55.5273979
  51.0367642  32.8416448  57.6493979  51.8087642  32.9426448  58.4173979
  50.0577642  34.0216448  57.8233979  49.1237642  33.8036448  57.3123979
  49.8437642  34.1106448  58.8853979  50.5957642  35.3786448  57.3323979
  51.5567642  35.5636448  57.8133979  50.7467642  35.3516448  56.2513979
  49.6427642  36.5396448  57.6423979  48.8807642  36.5906448  56.8623979
  49.1597642  36.3806448  58.6073979  50.4517642  37.8406448  57.6903979
  51.1667642  37.7746448  58.5163979  51.0287642  37.9346448  56.7653979
  49.5827642  39.0256448  57.8673979  49.0297642  38.9856448  58.7253979
  50.1287642  39.8836448  57.9303979  48.9487642  39.1296448  57.0943979
  50.3617642  31.4906448  57.8883979  50.0117642  30.7986448  56.9413979
  50.1767642  31.1026448  59.1943979  50.4937642  31.7456448  59.9183979
  49.3797642  29.9286448  59.5713979  49.7077642  29.0846448  58.9623979
  49.6097642  29.5436448  61.0353979  49.1887642  28.5516448  61.2033979
  50.6807642  29.4986448  61.2403979  48.9877642  30.4366448  61.9393979
  49.1457642  30.0136448  62.8513979  47.8847642  30.1476448  59.3033979
  47.4127642  31.2706448  59.2093979  47.0827642  29.0286448  59.2083979
  47.5327642  28.1256448  59.2993979  45.6357642  29.0936448  58.9763979
  45.4527642  29.5296448  57.9943979  45.0907642  27.6606448  58.9833979
  45.1907642  27.2046448  59.9763979  44.0277642  27.6556448  58.7093979
  45.6327642  27.0326448  58.2653979  44.9177642  29.9726448  60.0213979
  44.0667642  30.7766448  59.6843979  45.3537642  29.8646448  61.3293979
  46.0767642  29.1736448  61.4923979  44.8917642  30.6856448  62.4543979
  43.8027642  30.6296448  62.5053979  45.5037642  30.0986448  63.7393979
  45.1297642  29.0826448  63.8773979  46.5867642  30.0366448  63.6153979
  45.2297642  30.9036448  65.0173979  45.6667642  30.3576448  65.8543979
  45.7387642  31.8666448  64.9483979  43.7417642  31.1466448  65.3063979
  43.2987642  31.7146448  64.4863979  43.2327642  30.1846448  65.3943979
  43.5977642  31.9076448  66.5573979  44.4497642  32.0326448  67.1013979
  42.5057642  32.4466448  67.0653979  41.3397642  32.3306448  66.4913979
  41.2627642  31.8136448  65.6383979  40.4867642  32.6516448  66.9403979
  42.5837642  33.1166448  68.1763979  43.4837642  33.2306448  68.6123979
  41.7717642  33.5876448  68.5373979  45.2567642  32.1616448  62.2813979
  44.4177642  33.0226448  62.4743979  46.5397642  32.4676448  61.8933979
  47.1787642  31.6886448  61.7483979  47.0227642  33.8366448  61.6893979
  46.8787642  34.4026448  62.6093979  48.5197642  33.8026448  61.3653979
  48.6987642  33.0006448  60.6513979  48.8127642  34.7456448  60.9023979
  49.3927642  33.5906448  62.6103979  49.3837642  34.5036448  63.2073979
  48.9847642  32.7866448  63.2223979  50.8387642  33.2386448  62.2643979
  51.2267642  33.0886448  61.1253979  51.7217642  33.1036448  63.2833979
  52.6597642  32.8556448  63.0143979  51.4017642  33.1776448  64.2343979
  46.2617642  34.5856448  60.5853979  46.1187642  35.7926448  60.6733979
  45.7077642  33.8756448  59.5383979  45.9227642  32.8826448  59.4753979
  44.8447642  34.5096448  58.5353979  45.3747642  35.3696448  58.1283979
  44.5737642  33.5326448  57.3853979  44.2277642  32.5676448  57.7763979
  43.7567642  33.9226448  56.7683979  45.7637642  33.3446448  56.5013979
  46.5347642  32.2396448  56.4063979  46.3687642  31.3236448  56.9573979
  47.5907642  32.4776448  55.5473979  48.3357642  31.8086448  55.3803979
  47.5547642  33.7656448  55.0543979  48.4017642  34.4996448  54.2143979
  49.2997642  34.0416448  53.8273979  48.0647642  35.8256448  53.8893979
  48.7067642  36.3996448  53.2363979  46.8907642  36.4026448  54.4103979
  46.6177642  37.4116448  54.1343979  46.0677642  35.6696448  55.2883979
  45.1697642  36.1126448  55.6923979  46.3807642  34.3356448  55.6303979
  43.5467642  35.0576448  59.1363979  43.1447642  36.1676448  58.8203979
  42.8997642  34.2936448  60.0773979  43.2677642  33.3626448  60.2423979
  41.6367642  34.6766448  60.7103979  40.9197642  34.9576448  59.9393979
  41.0787642  33.4416448  61.4213979  40.7777642  32.7066448  60.6613979
  41.8697642  32.9596448  62.0063979  39.9037642  33.7096448  62.3393979
  38.5857642  33.6166448  61.8523979  38.4017642  33.3666448  60.8163979
  37.5017642  33.8186448  62.7253979  36.4897642  33.7156448  62.3673979
  37.7397642  34.1326448  64.0793979  36.6997642  34.2676448  64.9373979
  35.8497642  34.3596448  64.4803979  39.0617642  34.2656448  64.5523979
  39.2277642  34.5356448  65.5843979  40.1447642  34.0406448  63.6853979
  41.1577642  34.1266448  64.0523979  41.8037642  35.9066448  61.6163979
  40.9417642  36.7656448  61.6613979  43.0287642  36.0826448  62.2243979
  43.6707642  35.3026448  62.1273979  43.4717642  37.2716448  62.9723979
  42.7067642  37.5026448  63.7153979  44.7717642  36.9456448  63.7293979
  45.5687642  36.8056448  63.0013979  45.0427642  37.7936448  64.3593979
  44.6867642  35.6816448  64.6053979  44.1527642  34.8956448  64.0783979
  45.6997642  35.3166448  64.7753979  43.8977642  35.9016448  66.2193979
  45.3117642  36.5746448  67.1313979  45.6977642  37.4706448  66.6303979
  45.0107642  36.8396448  68.1513979  46.1117642  35.8246448  67.1813979
  43.6337642  38.5436448  62.1013979  44.0797642  39.5736448  62.5803979
  43.2617642  38.4816448  60.7713979  43.0467642  37.5516448  60.4263979
  43.0237642  39.6086448  59.8613979  42.6827642  40.4576448  60.4603979
  44.3627642  39.9976448  59.2023979  45.1117642  40.1236448  59.9813979
  44.6847642  39.1856448  58.5533979  44.3357642  41.2996448  58.4183979
  43.7727642  42.2996448  58.8143979  45.0457642  41.3546448  57.2663979
  45.0057642  42.2336448  56.7623979  45.5667642  40.5466448  56.9843979
  41.8657642  39.2796448  58.8773979  41.8547642  39.7126448  57.7373979
  40.8637642  38.4466448  59.3483979  40.9827642  38.1136448  60.3043979
  39.5687642  38.1676448  58.7133979  38.8987642  37.8146448  59.4933979
  39.1627642  39.0866448  58.3043979  39.5157642  37.1176448  57.6013979
  38.5697642  37.1096448  56.8263979  40.5477642  36.2116448  57.4763979
  41.3187642  36.2936448  58.1383979  40.6357642  35.2216448  56.3903979
  39.7047642  35.2456448  55.8213979  41.7747642  35.6146448  55.4393979
  42.6417642  35.9336448  56.0203979  42.0597642  34.7536448  54.8353979
  41.3197642  36.7436448  54.5053979  40.5537642  36.3536448  53.8353979
  40.8947642  37.5626448  55.0873979  42.4887642  37.2846448  53.6793979
  43.2067642  37.7436448  54.3613979  42.9897642  36.4576448  53.1793979
  42.0387642  38.2906448  52.6933979  42.0247642  39.2496448  53.0013979
  41.5857642  38.0636448  51.4703979  41.5067642  36.8796448  50.9403979
  42.0057642  36.1136448  51.3813979  41.2037642  36.7606448  49.9953979
  41.1967642  39.0466448  50.7163979  41.1847642  40.0036448  51.0713979
  40.8157642  38.8716448  49.8093979  40.7467642  33.7746448  56.8613979
  41.2207642  33.4796448  57.9333979  40.3197642  32.8366448  55.9693979
  39.9577642  33.2016448  55.0903979  40.3707642  31.3806448  56.1203979
  41.0177642  31.1226448  56.9613979  38.9597642  30.8096448  56.3863979
  39.0027642  29.7266448  56.2503979  38.5857642  31.0666448  57.8553979
  38.5437642  32.1386448  58.0753979  37.6157642  30.6206448  58.1053979
  39.3307642  30.6176448  58.5253979  37.9217642  31.3756448  55.3893979
  37.7797642  32.4426448  55.5623979  38.2977642  31.2446448  54.3743979
  36.5497642  30.7066448  55.4563979  36.0717642  30.8666448  56.4283979
  35.9037642  31.1426448  54.6893979  36.6277642  29.6286448  55.2753979
  41.0027642  30.7786448  54.8683979  41.0647642  31.4236448  53.8373979
  41.5247642  29.5126448  54.9463979  41.4247642  29.0136448  55.8203979
  42.0777642  28.8226448  53.7803979  42.4877642  29.5666448  53.0983979
  43.2267642  27.8956448  54.2013979  42.8117642  27.0736448  54.7853979
  43.6757642  27.4776448  53.2993979  44.3297642  28.5846448  55.0253979
  43.9107642  28.9796448  55.9513979  45.3777642  27.5416448  55.3893979
  45.8177642  27.1006448  54.4873979  46.1817642  27.9876448  55.9863979
  44.9237642  26.7316448  55.9743979  45.0067642  29.7256448  54.2653979
  44.2987642  30.5386448  54.0633979  45.8297642  30.1406448  54.8523979
  45.4137642  29.3736448  53.3113979  40.9947642  28.0636448  53.0063979
  40.0187642  27.6026448  53.5773979  41.1897642  27.9056448  51.6523979
  42.0097642  28.3726448  51.2623979  40.3647642  27.0326448  50.8003979
  39.3167642  27.1606448  51.0813979  40.5367642  27.4206448  49.3263979
  41.5747642  27.2516448  49.0313979  39.8927642  26.7836448  48.7173979
  40.1777642  28.8896448  49.0633979  39.1867642  29.1036448  49.4703979
  40.9037642  29.5316448  49.5643979  40.1757642  29.1856448  47.5583979
  40.8037642  28.4666448  47.0293979  39.1517642  29.0956448  47.1923979
  40.7127642  30.5936448  47.2923979  40.1777642  31.3046448  47.9303979
  41.7717642  30.6286448  47.5693979  40.5387642  30.9716448  45.8733979
  39.5507642  31.0136448  45.6393979  40.9117642  31.8936448  45.7013979
  40.9837642  30.3206448  45.2303979  40.7137642  25.5536448  51.0043979
  41.8297642  25.2266448  51.3633979  39.7577642  24.6226448  50.6723979
  38.8247642  24.9586448  50.4663979  39.9447642  23.1666448  50.8313979
  40.2967642  22.9686448  51.8443979  38.6027642  22.4416448  50.6363979
  38.3487642  22.4306448  49.5753979  38.6077642  21.0126448  51.1663979
  38.8637642  21.0036448  52.2333979  37.6187642  20.5536448  51.0483979
  39.3357642  20.3926448  50.6303979  37.5877642  23.1296448  51.3293979
  36.7387642  22.6666448  51.1233979  40.9937642  22.6106448  49.8593979
  41.7657642  21.7366448  50.2043979  41.0777642  23.1916448  48.6103979
  40.3777642  23.8876448  48.4023979  42.1317642  22.9296448  47.6213979
  42.4027642  21.8726448  47.6523979  41.7517642  23.1476448  46.6233979
  43.4167642  23.7456448  47.8233979  44.1427642  23.9426448  46.8663979
  43.6787642  24.3146448  49.0553979  43.0777642  24.0686448  49.8343979
  44.9087642  25.0676448  49.3333979  45.0827642  25.7526448  48.5023979
  44.7767642  25.9246448  50.5943979  45.6367642  26.5826448  50.6333979
  43.8727642  26.5326448  50.5333979  44.7797642  25.1626448  51.7813979
  43.9967642  25.4206448  52.3113979  46.1457642  24.1706448  49.4303979
  46.0707642  22.9486448  49.4943979  47.3677642  24.8096448  49.4263979
  47.3587642  25.8316448  49.3353979  48.6407642  24.0926448  49.5023979
  48.4767642  23.1666448  50.0563979  49.0867642  23.7276448  48.0783979
  48.2657642  23.2066448  47.5833979  49.3107642  24.6326448  47.5113979
  50.3167642  22.8116448  48.1033979  51.2037642  23.3926448  48.3573979
  50.1707642  22.0416448  48.8613979  50.5317642  22.1336448  46.7473979
  49.5857642  21.7166448  46.3943979  50.8587642  22.8776448  46.0173979
  51.5377642  21.0626448  46.8533979  52.5147642  21.3076448  46.7293979
  51.3057642  19.7866448  47.0963979  50.1207642  19.3196448  47.3683979
  49.3437642  19.9476448  47.4823979  50.0117642  18.3196448  47.4893979
  52.2927642  18.9456448  47.0883979  53.2277642  19.3196448  46.9463979
  52.1247642  17.9736448  47.2673979  49.6947642  24.8906448  50.2503979
  50.0307642  25.9876448  49.8473979  50.2687642  24.2626448  51.3283979
  49.8887642  23.3646448  51.5843979  51.3957642  24.7956448  52.0823979
  51.0677642  25.6856448  52.6253979  51.8297642  23.7316448  53.0963979
  50.9877642  23.4836448  53.7443979  52.1577642  22.8396448  52.5583979
  53.1997642  24.3576448  54.0993979  53.4657642  23.2346448  54.7753979
  52.5487642  25.1996448  51.1493979  52.8327642  24.5296448  50.1693979
  53.2227642  26.3536448  51.4753979  52.9057642  26.8206448  52.3253979
  54.3257642  26.9386448  50.7043979  54.4357642  26.4036448  49.7593979
  53.9827642  28.4066448  50.4063979  53.9707642  28.9546448  51.3473979
  54.7717642  28.8316448  49.7833979  52.6257642  28.6416448  49.7103979
  51.8077642  28.4126448  50.3963979  52.5727642  29.6996448  49.4713979
  52.4467642  27.8386448  48.4123979  53.3867642  27.8626448  47.8603979
  52.2207642  26.7966448  48.6423979  51.3547642  28.4336448  47.5093979
  51.3647642  29.5206448  47.6183979  51.6147642  28.2036448  46.4713979
  49.9987642  27.9116448  47.8133979  49.6647642  28.1996448  48.7403979
  49.3017642  28.2356448  47.1593979  49.9797642  26.9026448  47.8523979
  55.6717642  26.7986448  51.4243979  56.7067642  26.7696448  50.7773979
  55.6447642  26.6746448  52.8013979  54.7237642  26.7096448  53.2323979
  56.8077642  26.4756448  53.6753979  57.5437642  25.8636448  53.1543979
  57.4237642  27.8476448  53.9893979  57.5607642  28.3876448  53.0513979
  56.7377642  28.4206448  54.6113979  58.7797642  27.7506448  54.6973979
  58.6547642  27.3306448  55.6963979  59.4367642  27.0996448  54.1183979
  59.4027642  29.1476448  54.8043979  59.3567642  29.6426448  53.8333979
  58.8437642  29.7426448  55.5303979  60.8657642  29.0436448  55.2283979
  60.9237642  28.5486448  56.2023979  61.4027642  28.4246448  54.5033979
  61.4927642  30.3816448  55.3073979  61.0887642  30.9026448  56.0803979
  62.4987642  30.2846448  55.4443979  61.3107642  30.9436448  54.4803979
  56.4067642  25.7486448  54.9583979  55.4267642  26.1116448  55.5813979
  57.2077642  24.7206448  55.3813979  58.0027642  24.4646448  54.8023979
  57.0487642  24.0446448  56.6763979  56.1247642  24.3826448  57.1453979
  56.9147642  22.5226448  56.4793979  57.7687642  22.1456448  55.9163979
  56.8207642  21.7696448  57.8043979  55.9977642  22.1616448  58.4163979
  56.6417642  20.7016448  57.6373979  57.7557642  21.8536448  58.3743979
  55.6277642  22.2216448  55.6963979  55.6647642  22.6646448  54.6943979
  55.4857642  21.1406448  55.5803979  54.7637642  22.6316448  56.2323979
  58.1787642  24.4606448  57.6183979  59.3047642  24.6546448  57.1903979
  57.8457642  24.6656448  58.9393979  56.8747642  24.4956448  59.2013979
  58.7707642  25.1436448  59.9773979  59.7847642  25.0796448  59.5823979
  58.5097642  26.6306448  60.3223979  59.1307642  26.8766448  61.1863979
  58.9697642  27.5286448  59.1583979  58.4027642  27.3056448  58.2463979
  58.8307642  28.5886448  59.3973979  60.0337642  27.3706448  58.9443979
  57.0357642  26.9016448  60.7003979  56.4057642  26.8306448  59.8123979
  56.7057642  26.1406448  61.4023979  56.7967642  28.2546448  61.3773979
  57.0177642  29.0906448  60.7063979  55.7457642  28.3376448  61.6833979
  57.4217642  28.3556448  62.2733979  58.7257642  24.2276448  61.2083979
  57.6647642  23.8646448  61.6893979  59.9467642  23.8216448  61.7173979
  60.7707642  24.2146448  61.2863979  60.1107642  22.7816448  62.7413979
  59.6277642  21.8836448  62.3653979  61.6107642  22.4986448  62.9513979
  62.0817642  22.3206448  61.9843979  62.0807642  23.3886448  63.3753979
  61.9017642  21.3056448  63.8873979  62.9797642  21.1816448  63.9663979
  61.5277642  21.5436448  64.8833979  61.2837642  19.9676448  63.4523979
  61.5917642  19.1846448  64.1463979  60.2057642  20.0436448  63.5343979
  61.6757642  19.5656448  62.0233979  61.7047642  20.4536448  61.3903979
  62.6727642  19.1196448  62.0453979  60.6977642  18.6286448  61.4363979
  59.7927642  19.0966448  61.3253979  60.9717642  18.3206448  60.5183979
  60.5097642  17.8316448  62.0433979  59.4377642  23.1596448  64.0633979
  59.7417642  24.2056448  64.6053979  58.5777642  22.2506448  64.6463979
  58.3607642  21.4256448  64.0763979  57.9937642  22.3676448  65.9983979
  57.6117642  23.3786448  66.1293979  56.8157642  21.3726448  66.0973979
  56.2787642  21.3476448  65.1533979  57.2097642  20.3666448  66.2533979
  55.8027642  21.6826448  67.2143979  55.1677642  20.8056448  67.3523979
  56.3427642  21.8486448  68.1473979  54.8977642  22.8976448  66.9313979
  54.3597642  23.1396448  67.8503979  55.5087642  23.7586448  66.6583979
  53.9187642  22.6206448  65.8623979  54.0057642  21.7316448  65.3803979
  52.8647642  23.3346448  65.5153979  52.5677642  24.4656448  66.0853979
  53.1727642  24.8366448  66.8143979  51.7277642  24.9566448  65.8503979
  52.0777642  22.9086448  64.5683979  52.3087642  22.0506448  64.0803979
  51.2647642  23.4346448  64.3033979  59.0557642  22.1006448  67.0883979
  59.4387642  20.9636448  67.3063979  59.6167642  23.1216448  67.8203979
  60.2687642  22.7836448  68.5263979  59.4957642  24.5846448  67.6903979
  59.0527642  24.8456448  66.7353979  58.5687642  25.1716448  68.7683979
  59.0217642  25.0536448  69.7533979  58.2377642  26.6446448  68.5203979
  57.7287642  26.7716448  67.5553979  57.5817642  27.0296448  69.3113979
  59.1467642  27.2586448  68.5133979  57.3297642  24.4966448  68.7383979
  56.8427642  24.7536448  69.5423979  60.9137642  25.1756448  67.7133979
  61.3687642  25.7426448  68.6943979  61.6827642  24.9246448  66.5973979
  61.1827642  24.4936448  65.8203979  63.0927642  25.2896448  66.3823979
  63.4857642  25.7436448  67.2903979  63.9347642  24.0176448  66.0923979
  63.2847642  23.2506448  65.6703979  65.1147642  24.1856448  65.1303979
  65.8267642  24.9346448  65.4953979  65.6437642  23.2316448  65.0123979
  64.7507642  24.4716448  64.1393979  64.5447642  23.4766448  67.3873979
  63.7657642  23.3026448  68.1333979  65.0527642  22.5196448  67.2143979
  65.2697642  24.1836448  67.8133979  63.1847642  26.3556448  65.2873979
  62.6767642  26.1856448  64.1913979  63.9017642  27.4976448  65.5803979
  64.2467642  27.6046448  66.5333979  64.0857642  28.5956448  64.6193979
  63.1107642  28.9346448  64.2703979  64.5737642  29.4266448  65.1273979
  64.9427642  28.2236448  63.3973979  64.9137642  28.8966448  62.3823979
  65.7397642  27.0986448  63.4863979  65.6407642  26.5606448  64.3373979
  66.6307642  26.6216448  62.4213979  67.0367642  27.5086448  61.9383979
  67.7917642  25.8256448  63.0433979  68.0857642  26.3036448  63.9783979
  67.4627642  24.8086448  63.2663979  69.0087642  25.7806448  62.1033979
  68.7367642  25.2556448  61.1883979  69.3007642  26.7996448  61.8433979
  70.2137642  25.0656448  62.7253979  69.9197642  24.0506448  62.9943979
  71.0037642  25.0116448  61.9723979  70.7227642  25.7736448  63.9153979
  70.2597642  26.6296448  64.1943979  71.7267642  25.4146448  64.6923979
  72.4287642  24.3366448  64.4853979  72.3547642  23.8926448  63.5883979
  73.1997642  24.1336448  65.0903979  72.0227642  26.1526448  65.7153979
  71.4237642  26.9476448  65.9193979  72.7337642  25.8936448  66.3893979
  65.8797642  25.7846448  61.3713979  65.0847642  24.9366448  61.7373979
  66.1847642  25.9346448  60.0253979  66.9417642  27.0396448  59.4353979
  68.0077642  26.9216448  59.6633979  66.5837642  28.0096448  59.8063979
  66.7047642  26.9116448  57.9253979  67.5797642  27.2366448  57.3473979
  65.8487642  27.5356448  57.6383979  66.3707642  25.4296448  57.6803979
  67.2877642  24.8786448  57.4393979  65.6547642  25.2986448  56.8573979
  65.7877642  24.9506448  59.0193979  64.6997642  24.9516448  58.9533979
  66.2677642  23.5336448  59.3883979  67.3477642  23.3566448  59.9353979
  65.3977642  22.5016448  59.0903979  64.5187642  22.7856448  58.6823979
  65.6497642  21.0646448  59.3093979  66.7267642  20.8956448  59.3493979
  64.9917642  20.6236448  60.6353979  63.9307642  20.8716448  60.5893979
  65.0687642  19.5386448  60.7333979  65.5827642  21.2496448  61.9063979
  65.5587642  22.3356448  61.8293979  64.9597642  20.9626448  62.7523979
  67.0167642  20.7826448  62.1783979  67.0257642  19.7006448  62.3273979
  67.6577642  21.0356448  61.3333979  67.5367642  21.4826448  63.4323979
  67.4117642  22.5616448  63.3053979  66.9357642  21.1696448  64.2913979
  68.9597642  21.1646448  63.6743979  69.5537642  21.4146448  62.8993979
  69.2917642  21.6166448  64.5273979  69.1007642  20.1746448  63.8493979
  65.1467642  20.1666448  58.1713979  65.3867642  18.9716448  58.2113979
  64.3987642  20.7306448  57.1643979  64.3487642  21.7356448  57.1423979
  63.4847642  19.9586448  56.3273979  63.1627642  20.5556448  55.4723979
  63.9957642  19.0696448  55.9563979  62.2457642  19.5036448  57.1033979
  62.0687642  19.7986448  58.2773979  61.3767642  18.7046448  56.4103979
  61.6137642  18.4866448  55.4513979  60.1227642  18.1946448  56.9513979
  60.1657642  18.2626448  58.0393979  58.9367642  19.0706448  56.5143979
  58.0547642  18.6856448  57.0293979  59.0917642  20.0876448  56.8733979
  58.6117642  19.0936448  55.0083979  58.7207642  18.0906448  54.5913979
  57.5567642  19.3596448  54.9113979  59.4067642  20.0996448  54.1573979
  59.1757642  20.1326448  52.9253979  60.1837642  20.9376448  54.6563979
  59.9397642  16.7096448  56.6223979  60.4977642  16.1976448  55.6623979
  59.1597642  16.0026448  57.5083979  58.7397642  16.5326448  58.2623979
  58.8437642  14.5846448  57.4103979  58.5777642  14.3376448  56.3813979
  60.0847642  13.7746448  57.8083979  60.4237642  14.0506448  58.8123979
  59.8607642  12.7036448  57.7993979  60.9127642  13.9486448  57.1093979
  57.6437642  14.2546448  58.3123979  56.6077642  13.8256448  57.8303979
  57.7627642  14.4976448  59.6593979  58.6447642  14.8906448  59.9943979
  56.6957642  14.2896448  60.6383979  56.2247642  13.3326448  60.4083979
  57.2877642  14.1616448  62.0573979  56.4997642  13.7586448  62.6913979
  58.0927642  13.4236448  62.0493979  57.7837642  15.4516448  62.7353979
  57.0807642  16.2646448  62.5513979  57.7697642  15.2686448  63.8123979
  59.2107642  15.8796448  62.3513979  59.7637642  15.4606448  61.3063979
  59.8427642  16.6356448  63.1193979  55.5877642  15.3566448  60.5413979
  55.7907642  16.4446448  60.0283979  54.3527642  15.0176448  61.0413979
  54.2627642  14.0926448  61.4483979  53.1397642  15.8546448  60.9813979
  53.1077642  16.3696448  60.0193979  51.9427642  14.8856448  61.0683979
  52.0647642  14.1336448  60.2873979  52.0037642  14.3726448  62.0273979
  50.5147642  15.4446448  60.9553979  49.8267642  14.6046448  61.0723979
  50.3077642  16.1286448  61.7773979  50.2167642  16.1106448  59.6113979
  49.3237642  16.9796448  59.5253979  50.7667642  15.6986448  58.5623979
  53.0917642  16.9406448  62.0793979  52.1547642  17.7066448  62.1553979
  54.1167642  16.9946448  63.0013979  54.9077642  16.3886448  62.8373979
  54.0997642  17.8766448  64.1793979  53.1477642  17.7516448  64.6943979
  55.2467642  17.4826448  65.1303979  56.1767642  17.4776448  64.5593979
  55.3497642  18.2386448  65.9113979  55.0827642  16.1086448  65.8043979
  54.7367642  15.3726448  65.0753979  56.0697642  15.7826448  66.1433979
  54.1287642  16.1396448  67.0113979  53.0477642  16.7616448  66.9363979
  54.4517642  15.5156448  68.0503979  54.2197642  19.3706448  63.8303979
  53.7107642  20.2116448  64.5543979  54.9397642  19.6986448  62.7063979
  55.2657642  18.9096448  62.1673979  55.3477642  21.0386448  62.2643979
  55.8777642  21.5296448  63.0773979  56.3357642  20.8806448  61.1003979
  55.8787642  20.2636448  60.3253979  56.5377642  21.8596448  60.6733979
  57.6707642  20.2616448  61.5143979  57.9777642  20.2096448  62.7263979
  58.4547642  19.8736448  60.6203979  54.1947642  21.9776448  61.8783979
  53.1057642  21.5506448  61.5363979  54.4367642  23.3366448  61.9283979
  55.3897642  23.6366448  62.1183979  53.4577642  24.3046448  61.4193979
  52.4727642  23.8846448  61.6153979  53.5287642  25.6386448  62.1873979
  53.4477642  25.4276448  63.2543979  54.5067642  26.0856448  62.0183979
  52.4597642  26.6906448  61.8273979  52.6357642  27.5716448  62.4493979
  52.5977642  27.0006448  60.7893979  51.0077642  26.2206448  62.0213979
  50.3017642  26.8206448  62.8653979  50.5747642  25.2866448  61.3043979
  53.5757642  24.4686448  59.8933979  54.6577642  24.6396448  59.3433979
  52.3917642  24.4156448  59.1843979  51.5487642  24.3956448  59.7653979
  52.2617642  24.6186448  57.7353979  53.2157642  24.3966448  57.2573979
  51.1797642  23.6886448  57.1603979  50.3157642  23.6976448  57.8253979
  50.8697642  24.0736448  56.1893979  51.6527642  22.2416448  56.9643979
  52.5177642  22.2336448  56.3043979  51.9357642  21.8136448  57.9273979
  50.5467642  21.3906448  56.3253979  49.6487642  21.4616448  56.9403979
  50.2997642  21.7946448  55.3423979  50.9807642  19.9836448  56.1843979
  51.6857642  19.7766448  55.4993979  50.6167642  18.9676448  56.9483979
  49.6787642  19.0816448  57.8403979  49.2027642  19.9496448  57.9743979
  49.5137642  18.3116448  58.4933979  51.2107642  17.8166448  56.8293979
  52.0117642  17.6846448  56.2273979  50.9537642  17.0606448  57.4713979
  51.9327642  26.0816448  57.4443979  50.8897642  26.5806448  57.8313979
  52.8447642  26.7846448  56.6973979  53.6877642  26.2936448  56.4053979
  52.6717642  28.1756448  56.2883979  51.9657642  28.6556448  56.9683979
  54.0077642  28.9226448  56.3823979  54.6697642  28.5156448  55.6223979
  53.8337642  29.9666448  56.1383979  54.7127642  28.8626448  57.7483979
  54.6877642  27.8536448  58.1583979  56.1717642  29.2616448  57.5513979
  56.2517642  30.2336448  57.0513979  56.6867642  29.3176448  58.5133979
  56.6817642  28.5046448  56.9453979  54.0657642  29.8256448  58.7443979
  53.0067642  29.5806448  58.8893979  54.5607642  29.7496448  59.7203979
  54.1427642  30.8646448  58.3963979  52.0957642  28.2566448  54.8693979
  52.6207642  27.6706448  53.9333979  50.9967642  29.0616448  54.7073979
  50.6757642  29.5736448  55.5273979  50.2497642  29.2226448  53.4603979
  50.6907642  28.5946448  52.6853979  48.8007642  28.7646448  53.6533979
  48.3337642  29.3746448  54.4373979  48.2417642  28.9776448  52.7373979
  48.6157642  27.2926448  54.0023979  48.8157642  26.8596448  55.3263979
  49.1607642  27.5516448  56.0813979  48.5407642  25.5306448  55.6873979
  48.6827642  25.2136448  56.7093979  48.0567642  24.6206448  54.7283979
  47.7667642  23.3466448  55.1053979  47.7637642  23.2456448  56.0933979
  47.8707642  25.0456448  53.3933979  47.4687642  24.3546448  52.6663979
  48.1597642  26.3796448  53.0293979  47.9957642  26.7136448  52.0123979
  50.3187642  30.6686448  52.9673979  50.5267642  31.5946448  53.7433979
  50.1757642  30.8656448  51.6133979  49.8177642  30.0826448  51.0543979
  50.2397642  32.1886448  50.9983979  50.8917642  32.8156448  51.6023979
  50.8477642  32.1226448  49.5893979  50.9487642  33.1356448  49.1993979
  51.8427642  31.6886448  49.6513979  50.0527642  31.3806448  48.6893979
  50.4457642  31.4266448  47.7923979  48.8797642  32.8716448  50.9763979
  47.8387642  32.2716448  51.1643979  48.8967642  34.2076448  50.6573979
  49.7987642  34.6536448  50.5733979  47.6857642  34.9666448  50.3723979
  47.0967642  35.0476448  51.2863979  48.1097642  36.3756448  49.9353979
  48.5147642  36.9216448  50.7973979  48.9237642  36.3066448  49.2003979
  46.9637642  37.1576448  49.3223979  46.0577642  37.8486448  50.1463979
  46.2327642  37.9056448  51.2113979  44.9057642  38.4286448  49.5873979
  44.2067642  38.9516448  50.2213979  44.6547642  38.3056448  48.2083979
  43.7547642  38.7256448  47.7823979  45.5697642  37.6266448  47.3853979
  45.3787642  37.5086448  46.3303979  46.7287642  37.0626448  47.9383979
  47.4077642  36.5036448  47.3083979  46.7857642  34.2846448  49.3173979
  45.5737642  34.3656448  49.4243979  47.3907642  33.5656448  48.3003979
  48.3957642  33.4696448  48.3453979  46.6737642  32.8626448  47.2223979
  45.9977642  33.5586448  46.7273979  47.6857642  32.3436448  46.1863979
  48.4467642  31.7446448  46.6863979  47.1697642  31.7006448  45.4713979
  48.3487642  33.4936448  45.4173979  47.5657642  34.0966448  44.9523979
  48.9047642  34.1266448  46.1113979  49.3057642  32.9766448  44.3403979
  49.2167642  33.4466448  43.1813979  50.1477642  32.0966448  44.6423979
  45.8107642  31.6946448  47.7223979  44.8257642  31.3436448  47.0973979
  46.1707642  31.0996448  48.9093979  46.9787642  31.4816448  49.3963979
  45.4177642  30.0346448  49.5673979  45.0647642  29.3346448  48.8103979
  46.3797642  29.2896448  50.5073979  46.7867642  29.9946448  51.2283979
  45.8167642  28.5606448  51.0823979  47.5317642  28.5806448  49.7763979
  47.2707642  27.6966448  48.9253979  48.7147642  28.8706448  50.0723979
  44.1717642  30.5506448  50.3213979  43.3717642  29.7526448  50.7893979
  43.9977642  31.9196448  50.4623979  44.6727642  32.5156448  49.9903979
  42.9817642  32.5336448  51.3313979  42.7927642  31.8136448  52.1253979
  43.4517642  33.8116448  52.0523979  42.7247642  34.0226448  52.8353979
  44.8107642  33.7066448  52.7193979  45.5787642  33.3606448  52.0213979
  45.1097642  34.6906448  53.0893979  44.7687642  33.0116448  53.5653979
  43.5087642  34.9606448  51.2393979  44.3387642  34.8886448  50.6973979
  41.6237642  32.8016448  50.6803979  41.4537642  32.9806448  49.4833979
  40.6027642  32.9146448  51.5813979  40.8347642  32.6766448  52.5453979
  39.2137642  33.2516448  51.3403979  39.1737642  33.8936448  50.4653979
  38.4347642  31.9526448  51.0643979  38.9207642  31.4436448  50.2313979
  38.5097642  31.3036448  51.9373979  36.9517642  32.1186448  50.7013979
  36.5367642  31.1306448  50.4903979  36.4087642  32.5266448  51.5553979
  36.7707642  33.0286448  49.4823979  37.0087642  34.2526448  49.5963979
  36.4867642  32.5216448  48.3763979  38.6737642  34.0576448  52.5313979
  39.2417642  34.0486448  53.6133979  37.5847642  34.8576448  52.3093979
  37.1367642  34.7886448  51.3933979  37.0277642  35.7546448  53.3123979
  37.8477642  36.1876448  53.8843979  36.2777642  36.8946448  52.6053979
  35.4607642  36.4606448  52.0243979  35.8497642  37.5516448  53.3623979
  37.1657642  37.7326448  51.6683979  37.6777642  37.0886448  50.9533979
  36.3217642  38.7276448  50.8783979  35.8247642  39.4386448  51.5463979
  36.9427642  39.2846448  50.1673979  35.5507642  38.1926448  50.3053979
  38.2087642  38.5296448  52.4543979  38.9267642  37.8556448  52.9343979
  38.7597642  39.1986448  51.7873979  37.7307642  39.1346448  53.2323979
  36.1497642  34.9986448  54.3163979  35.2477642  34.2596448  53.9483979
  36.4147642  35.2336448  55.6473979  37.1617642  35.8846448  55.8783979
  35.5237642  34.8016448  56.7143979  35.0827642  33.8416448  56.4423979
  36.3157642  34.5986448  58.0093979  37.1547642  33.9196448  57.8173979
  36.7557642  35.5516448  58.3333979  35.4497642  34.0196448  59.1163979
  35.0147642  32.6826448  59.0333979  35.3337642  32.0606448  58.2103979
  34.1387642  32.1606448  60.0033979  33.7907642  31.1406448  59.9213979
  33.6997642  32.9796448  61.0663979  32.8647642  32.4836448  62.0153979
  32.8557642  31.5106448  62.0223979  34.1317642  34.3196448  61.1463979
  33.7777642  34.9426448  61.9543979  35.0057642  34.8386448  60.1723979
  35.3127642  35.8746448  60.2183979  34.3857642  35.8166448  56.8623979
  34.5057642  36.7906448  57.5853979  33.2697642  35.5976448  56.0833979
  33.2837642  34.7796448  55.4853979  32.0937642  36.4726448  56.0513979
  32.3317642  37.3756448  56.6053979  31.7687642  36.9276448  54.6073979
  31.4647642  36.0596448  54.0183979  30.5927642  37.9206448  54.6273979
  30.8467642  38.8156448  55.2113979  30.3277642  38.2346448  53.6103979
  29.6957642  37.4626448  55.0633979  33.0397642  37.5236448  53.9543979
  33.6147642  38.0706448  54.7033979  33.6477642  36.6866448  53.6133979
  32.8297642  38.4616448  52.7603979  32.3617642  39.4016448  53.0773979
  33.7927642  38.7106448  52.3043979  32.2007642  37.9906448  51.9963979
  30.9217642  35.7576448  56.7443979  30.4647642  34.7416448  56.2393979
  30.4327642  36.2526448  57.9503979  30.9477642  37.4166448  58.6823979
  31.0427642  38.3006448  58.0383979  31.9217642  37.1596448  59.1193979
  29.9147642  37.6576448  59.7893979  29.1187642  38.3086448  59.4073979
  30.3387642  38.1146448  60.6863979  29.3447642  36.2676448  60.0863979
  28.3497642  36.3146448  60.5463979  30.0237642  35.7176448  60.7523979
  29.3417642  35.6196448  58.6943979  29.5547642  34.5566448  58.7913979
  27.9807642  35.8036448  58.0003979  27.8227642  36.6786448  57.1593979
  26.9307642  34.9746448  58.3843979  26.9967642  33.9066448  59.3843979
  26.9937642  34.3566448  60.3843979  27.8877642  33.2786448  59.2583979
  25.7207642  33.0816448  59.1753979  25.3097642  32.7206448  60.1263979
  25.9507642  32.2106448  58.5483979  24.7267642  33.9966448  58.4363979
  23.9287642  34.3266448  59.1143979  24.2637642  33.4706448  57.5903979
  25.5607642  35.1876448  57.9383979  25.5537642  35.1956448  56.8473979
  24.9877642  36.5256448  58.4313979  25.4987642  37.1686448  59.3313979
  23.8497642  36.9356448  57.7833979  23.4707642  36.2866448  57.1113979
  23.0867642  38.1486448  58.0723979  23.7697642  38.9926448  58.1283979
  22.1077642  38.3796448  56.9053979  21.3967642  37.5506448  56.8923979
  21.5427642  39.2946448  57.0833979  22.7897642  38.4646448  55.5223979
  23.4057642  37.5806448  55.3553979  21.7397642  38.4866448  54.4153979
  21.0627642  39.3416448  54.5303979  22.2207642  38.5456448  53.4313979
  21.1447642  37.5656448  54.4413979  23.6817642  39.7006448  55.3873979
  24.4967642  39.6636448  56.1193979  24.1327642  39.7366448  54.3883979
  23.1017642  40.6166448  55.5473979  22.3657642  38.0466448  59.4283979
  21.9237642  36.9756448  59.8043979  22.2097642  39.2046448  60.1653979
  22.5747642  40.0656448  59.7683979  21.4417642  39.2446448  61.4123979
  21.8737642  38.5246448  62.1093979  21.5187642  40.6346448  62.0513979
  21.0557642  41.3966448  61.4113979  20.9927642  40.6396448  63.0163979
  22.5587642  40.9096448  62.2373979  19.9767642  38.8596448  61.1753979
  19.3857642  39.2746448  60.1873979  19.3787642  38.0936448  62.1493979
  19.9537642  37.8546448  62.9593979  17.9487642  37.7936448  62.1843979
  17.6757642  37.2976448  61.2533979  17.6607642  36.8366448  63.3443979
  18.2587642  35.9316448  63.2243979  17.9317642  37.3156448  64.2863979
  16.2887642  36.4936448  63.3673979  16.1427642  35.9426448  64.1663979
  17.1187642  39.0786448  62.3133979  17.5797642  40.0746448  62.8423979
  15.8187642  39.0606448  61.8543979  15.4987642  38.1986448  61.4353979
  14.8897642  40.1856448  62.0033979  15.3207642  41.0546448  61.5053979
  13.5827642  39.8236448  61.2923979  13.1237642  38.9346448  61.7443979
  12.8687642  40.6546448  61.3703979  13.7597642  39.6276448  60.2273979
  14.6337642  40.5946448  63.4733979  14.2227642  41.7136448  63.7233979
  14.9277642  39.6896448  64.4753979  15.2917642  38.7866448  64.1903979
  14.9337642  40.0016448  65.9143979  14.0247642  40.5506448  66.1593979
  14.9317642  38.6856448  66.7053979  14.9567642  38.9046448  67.7743979
  14.0117642  38.1406448  66.4863979  16.0437642  37.8766448  66.3533979
  16.1987642  37.2306448  67.0833979  16.1237642  40.8766448  66.3503979
  16.1337642  41.3826448  67.4553979  17.1557642  41.0626448  65.4513979
  17.0477642  40.5976448  64.5563979  18.4467642  41.7056448  65.7103979
  18.7467642  42.2556448  64.8193979  18.3527642  42.4006448  66.5433979
  19.5637642  40.7156448  66.0503979  20.7257642  41.0816448  66.0503979
  19.2117642  39.4066448  66.2983979  18.2227642  39.1906448  66.2843979
  20.1487642  38.3786448  66.7423979  20.6787642  38.7736448  67.6073979
  19.3667642  37.1526448  67.2343979  18.6747642  37.4856448  68.0093979
  18.7857642  36.7326448  66.4123979  20.2877642  36.0666448  67.8073979
  20.9337642  35.6956448  67.0083979  20.9287642  36.5076448  68.5753979
  19.4997642  34.8946448  68.4083979  19.9357642  33.7466448  68.1693979
  18.4747642  35.1476448  69.0793979  21.2167642  38.0386448  65.6873979
  20.9267642  37.6456448  64.5663979  22.5197642  38.2006448  66.1093979
  22.6197642  38.5856448  67.0393979  23.7397642  37.8546448  65.3713979
  23.4857642  37.6796448  64.3243979  24.7297642  39.0466448  65.4443979
  24.8487642  39.2996448  66.4993979  26.1227642  38.6976448  64.8903979
  26.0647642  38.3426448  63.8533979  26.8007642  39.5566448  64.9233979
  26.5967642  37.9196448  65.4973979  24.1927642  40.2986448  64.7093979
  24.3457642  40.1876448  63.6353979  23.1237642  40.4096448  64.8833979
  24.8627642  41.5936448  65.1903979  25.9387642  41.5786448  64.9933979
  24.4337642  42.4616448  64.6763979  24.7127642  41.7306448  66.2693979
  24.3427642  36.5536448  65.9403979  24.3127642  36.3146448  67.1393979
  24.9717642  35.7046448  65.0543979  24.9807642  35.9756448  64.0773979
  25.8007642  34.5446448  65.4243979  25.2127642  33.8946448  66.0703979
  26.1857642  33.7416448  64.1643979  27.0747642  33.1446448  64.3723979
  25.0697642  32.7986448  63.7183979  24.1497642  33.3546448  63.4933979
  25.3677642  32.2406448  62.8223979  24.8457642  32.0686448  64.5073979
  26.4427642  34.5866448  63.0633979  26.7137642  34.0246448  62.3213979
  27.0647642  34.9576448  66.2023979  27.8477642  35.7736448  65.7503979
  27.2757642  34.3566448  67.4323979  26.6167642  33.6356448  67.7003979
  28.3607642  34.6686448  68.3903979  29.0737642  35.3506448  67.9233979
  27.7667642  35.3536448  69.6443979  27.0847642  34.6576448  70.1283979
  28.5777642  35.5746448  70.3403979  27.0177642  36.6676448  69.3413979
  27.7577642  37.4076448  69.0363979  26.3497642  36.5216448  68.5023979
  26.1857642  37.2486448  70.5043979  26.8527642  37.4516448  71.3403979
  25.7777642  38.2086448  70.1883979  25.0137642  36.3956448  71.0263979
  25.4087642  35.4716448  71.4623979  24.5287642  36.9606448  71.8303979
  23.9887642  36.0966448  69.9903979  24.3817642  35.6116448  69.1913979
  23.2297642  35.5476448  70.3743979  23.5677642  36.9506448  69.6433979
  29.1337642  33.3916448  68.7683979  28.6317642  32.3006448  68.5693979
  30.3857642  33.5186448  69.3323979  30.7407642  34.4636448  69.4523979
  31.1427642  32.3836448  69.8813979  30.9997642  31.5416448  69.1993979
  32.6557642  32.7056448  69.8693979  33.2047642  31.7646448  69.8913979
  32.9037642  33.1906448  68.9243979  33.2007642  33.5686448  71.0003979
  32.5397642  33.9446448  71.9433979  34.5207642  33.8686448  70.9573979
  34.8937642  34.4126448  71.7133979  35.0687642  33.5836448  70.1573979
  30.5857642  31.9136448  71.2473979  29.6677642  32.5086448  71.7893979
  31.1607642  30.8146448  71.8523979  31.9307642  30.3606448  71.3763979
  30.6647642  30.1946448  73.1033979  29.5987642  30.0086448  72.9863979
  31.3547642  28.8426448  73.3393979  31.0707642  28.4596448  74.3203979
  30.9717642  27.8106448  72.2793979  31.2717642  28.1356448  71.2753979
  31.4527642  26.8476448  72.4893979  29.8867642  27.6516448  72.2723979
  32.7557642  28.9866448  73.2913979  33.1317642  28.1586448  73.6623979
  30.8147642  31.0726448  74.3563979  30.1077642  30.8866448  75.3343979
  31.7217642  32.1096448  74.3233979  32.2907642  32.1726448  73.4903979
  31.8297642  33.1756448  75.3273979  31.6097642  32.7596448  76.3123979
  33.2747642  33.6926448  75.3443979  33.5287642  34.0966448  74.3583979
  33.3457642  34.5356448  76.0443979  34.3087642  32.6516448  75.7503979
  35.0527642  31.9526448  74.7803979  34.8837642  32.1356448  73.7293979
  36.0167642  31.0076448  75.1793979  36.5887642  30.4696448  74.4363979
  36.2377642  30.7586448  76.5463979  36.9817642  30.0356448  76.8543979
  35.4887642  31.4496448  77.5143979  35.6547642  31.2626448  78.5673979
  34.5257642  32.3916448  77.1143979  33.9517642  32.9226448  77.8573979
  30.8377642  34.3356448  75.1023979  30.7887642  35.2556448  75.9023979
  30.0377642  34.3126448  73.9773979  30.1377642  33.5096448  73.3623979
  29.0497642  35.3326448  73.6153979  28.2867642  34.8626448  72.9963979
  28.5677642  35.7066448  74.5183979  29.6037642  36.5306448  72.8333979
  28.9237642  37.5336448  72.7223979  30.8597642  36.4486448  72.2673979
  31.3357642  35.5516448  72.3373979  31.4877642  37.5326448  71.4973979
  30.9767642  38.4726448  71.7173979  32.9567642  37.6756448  71.9313979
  33.4747642  36.7346448  71.7543979  33.4377642  38.4436448  71.3263979
  33.1077642  38.0796448  73.3873979  32.6817642  39.1256448  73.8143979
  33.7657642  37.2436448  74.2233979  33.7667642  37.5256448  75.1913979
  34.0967642  36.3596448  73.8853979  31.4077642  37.3166448  69.9763979
  31.4077642  36.1876448  69.5103979  31.4617642  38.4416448  69.1763979
  31.4057642  39.3466448  69.6463979  31.9217642  38.4236448  67.7813979
  32.0347642  37.3796448  67.4883979  30.8567642  39.0046448  66.8133979
  29.9297642  38.4566448  66.9873979  30.5497642  40.4956448  67.0513979
  31.4147642  41.1266448  66.8163979  29.7047642  40.8226448  66.4373979
  30.2657642  40.6726448  68.0933979  31.2807642  38.7246448  65.3533979
  32.2437642  39.1856448  65.1513979  31.4067642  37.6486448  65.2313979
  30.2837642  39.1996448  64.2873979  30.1977642  40.2926448  64.2753979
  30.6227642  38.8856448  63.2923979  29.2917642  38.7646448  64.4613979
  33.3277642  39.0506448  67.6763979  33.5487642  40.2146448  67.9753979
  34.3397642  38.2186448  67.2523979  34.0857642  37.2656448  67.0333979
  35.6857642  38.6706448  66.8813979  36.0177642  39.4346448  67.5843979
  36.6817642  37.4946448  66.9533979  36.3047642  36.6686448  66.3503979
  37.6317642  37.8236448  66.5353979  36.9117642  37.0266448  68.4053979
  37.2507642  37.8856448  68.9883979  35.9587642  36.6976448  68.8273979
  37.9337642  35.8816448  68.5593979  38.7417642  35.9386448  69.5123979
  37.9007642  34.9086448  67.7723979  35.6457642  39.3156448  65.4853979
  35.1407642  38.7286448  64.5443979  36.1597642  40.5906448  65.3503979
  36.5777642  40.9916448  66.1883979  35.9877642  41.4606448  64.1703979
  35.7797642  40.8076448  63.3253979  34.7567642  42.3896448  64.2923979
  34.6727642  42.9626448  63.3693979  33.4697642  41.5776448  64.4453979
  33.4737642  41.0356448  65.3963979  32.5867642  42.2236448  64.4373979
  33.3717642  40.8466448  63.6313979  34.7957642  43.3716448  65.4653979
  35.6437642  44.0486448  65.3653979  33.8837642  43.9806448  65.4783979
  34.8807642  42.8446448  66.4233979  37.2967642  42.1666448  63.7933979
  37.3787642  43.3676448  63.6013979  38.3777642  41.3256448  63.6653979
  38.1747642  40.3546448  63.8773979  39.7547642  41.6556448  63.2733979
  40.1447642  42.4106448  63.9573979  40.5787642  40.3656448  63.4193979
  40.2547642  39.6586448  62.6443979  41.6307642  40.5866448  63.2063979
  40.4947642  39.6726448  64.7813979  40.5457642  40.4236448  65.9713979
  40.6317642  41.4966448  65.9293979  40.4717642  39.7856448  67.2213979
  40.4847642  40.3666448  68.1303979  40.3747642  38.3866448  67.2923979
  40.3197642  37.8886448  68.2523979  40.3257642  37.6306448  66.1093979
  40.2337642  36.5566448  66.1693979  40.3667642  38.2716448  64.8573979
  40.3007642  37.6796448  63.9573979  39.9037642  42.2316448  61.8483979
  40.9617642  42.7216448  61.4893979  38.8047642  42.1806448  61.0183979
  37.9957642  41.7106448  61.4063979  38.6187642  42.8826448  59.7513979
  39.1477642  43.8356448  59.7933979  39.2037642  42.0336448  58.6183979
  38.6717642  41.0796448  58.5603979  39.1027642  42.5326448  57.6473979
  40.2707642  41.8346448  58.7893979  37.1107642  43.1426448  59.5383979
  36.2957642  42.3406448  59.9683979  36.6777642  44.2476448  58.8103979
  37.5327642  45.1896448  58.0783979  38.3027642  44.6786448  57.4873979
  37.9997642  45.8836448  58.7893979  36.5487642  45.9456448  57.1753979
  36.3687642  45.3626448  56.2603979  36.9097642  46.9396448  56.8863979
  35.2577642  46.0016448  58.0073979  34.3607642  46.1756448  57.3983979
  35.3317642  46.7906448  58.7663979  35.2607642  44.6236448  58.6843979
  34.8157642  44.7016448  59.6763979  34.4307642  43.6276448  57.8633979
  33.2157642  43.6916448  57.8543979  35.0857642  42.6806448  57.1183979
  36.0977642  42.6736448  57.1453979  34.4197642  41.6096448  56.3683979
  33.5027642  42.0046448  55.9313979  35.3227642  41.1476448  55.2203979
  34.9307642  40.2286448  54.7843979  35.3867642  42.2316448  54.1423979
  35.8157642  43.1606448  54.5403979  35.9987642  41.9036448  53.2953979
  34.3797642  42.4576448  53.7683979  36.6407642  40.9466448  55.6853979
  37.1287642  40.4536448  55.0033979  33.9807642  40.4456448  57.2593979
  33.0957642  39.7126448  56.8683979  34.4937642  40.3636448  58.5413979
  35.2197642  41.0296448  58.7873979  33.9507642  39.5246448  59.6203979
  33.7387642  38.5346448  59.2183979  34.9787642  39.3766448  60.7573979
  35.0847642  40.3436448  61.2493979  34.5987642  38.6666448  61.4933979
  36.3637642  38.9096448  60.2983979  36.2817642  37.9116448  59.8663979
  36.7237642  39.5836448  59.5233979  37.6067642  38.8956448  61.6183979
  37.2037642  37.3396448  62.4563979  37.3427642  36.4966448  61.7703979
  37.8607642  37.1986448  63.3243979  36.1637642  37.3456448  62.8013979
  32.6337642  40.0806448  60.2013979  32.1917642  39.6356448  61.2423979
  32.0007642  41.1266448  59.5563979  32.4017642  41.4266448  58.6773979
  30.8027642  41.8146448  60.0553979  30.5467642  41.3786448  61.0163979
  31.0867642  43.3116448  60.3243979  31.3787642  43.7836448  59.3933979
  29.8287642  44.0556448  60.8083979  29.5107642  43.6876448  61.7893979
  30.0207642  45.1326448  60.8833979  28.9977642  43.9426448  60.1003979
  32.2557642  43.4346448  61.3313979  31.9917642  42.8966448  62.2413979
  33.1457642  42.9646448  60.9113979  32.6527642  44.8656448  61.7043979
  31.8467642  45.3716448  62.2463979  33.5347642  44.8476448  62.3563979
  32.9007642  45.4456448  60.8073979  29.6407642  41.5966448  59.0753979
  29.8127642  41.8576448  57.8913979  28.4177642  41.1336448  59.5593979
  28.1417642  40.7756448  60.9573979  28.0587642  41.6926448  61.5543979
  28.9227642  40.1266448  61.3733979  26.8027642  40.0346448  60.9313979
  26.2147642  40.2116448  61.8403979  26.9867642  38.9556448  60.8433979
  26.0957642  40.5426448  59.6663979  25.5167642  41.4416448  59.8983979
  25.4197642  39.7976448  59.2403979  27.2477642  40.8886448  58.7133979
  27.4577642  40.0226448  58.0833979  26.8877642  42.0916448  57.8323979
  26.8987642  43.2246448  58.2833979  26.4987642  41.8386448  56.5333979
  26.5307642  40.8716448  56.2333979  26.2357642  42.8986448  55.5473979
  27.1517642  43.4666448  55.3783979  25.9407642  42.4296448  54.6083979
  25.1207642  43.8746448  55.9583979  25.1517642  45.0496448  55.6283979
  24.1127642  43.3796448  56.7573979  24.1867642  42.4046448  57.0313979
  23.0107642  44.1586448  57.3213979  22.8367642  45.0006448  56.6503979
  21.7247642  43.3036448  57.3013979  20.8917642  43.9266448  57.6233979
  21.5217642  42.9916448  56.2773979  21.7537642  42.0496448  58.1663979
  22.7817642  41.4576448  58.4143979  20.5617642  41.5756448  58.6073979
  20.5457642  40.7236448  59.1653979  19.7137642  42.0646448  58.3843979
  23.3267642  44.7986448  58.6973979  22.4157642  45.2736448  59.3593979
  24.6457642  44.8666448  59.1133979  25.3467642  44.4526448  58.5013979
  25.1047642  45.3326448  60.4283979  24.2747642  45.8246448  60.9333979
  25.5167642  44.1366448  61.2943979  26.3057642  43.5726448  60.7953979
  25.8897642  44.5026448  62.2513979  24.0857642  43.0776448  61.6103979
  24.7087642  42.1706448  62.3723979  26.2587642  46.3496448  60.3703979
  26.9337642  46.5226448  59.3663979  26.4957642  47.0616448  61.5193979
  25.8547642  46.8936448  62.2973979  27.5437642  48.0626448  61.7173979
  28.2927642  47.9686448  60.9303979  26.8957642  49.4506448  61.6153979
  27.6557642  50.2276448  61.7043979  26.3977642  49.5466448  60.6493979
  25.6737642  49.6306448  62.9463979  25.0727642  50.7376448  62.5123979
  28.2627642  47.8626448  63.0643979  27.7337642  47.2276448  63.9603979
  29.5087642  48.4406448  63.2123979  29.8887642  48.9276448  62.4133979
  30.2287642  48.5326448  64.4873979  29.8477642  47.7596448  65.1583979
  31.7257642  48.2446448  64.2463979  31.8317642  47.2226448  63.8813979
  32.0797642  48.9176448  63.4643979  32.6307642  48.4256448  65.4833979
  32.4617642  49.4046448  65.9283979  32.3827642  47.3496448  66.5393979
  32.5627642  46.3496448  66.1253979  33.0537642  47.4956448  67.3943979
  31.3547642  47.3916448  66.9133979  34.0987642  48.3506448  65.0733979
  34.3237642  49.1216448  64.3283979  34.7467642  48.5266448  65.9413979
  34.3437642  47.3716448  64.6433979  29.9947642  49.8936448  65.1693979
  30.1847642  50.9416448  64.5653979  29.6417642  49.8446448  66.4973979
  29.4897642  48.9086448  66.8783979  29.5067642  50.9636448  67.4403979
  29.6477642  51.9136448  66.9263979  28.0947642  50.9236448  68.0643979
  27.9207642  49.9106448  68.4033979  27.9237642  51.8386448  69.2823979
  28.1217642  52.8856448  69.0283979  26.8977642  51.7556448  69.6613979
  28.5817642  51.5326448  70.1063979  26.9927642  51.2556448  67.0513979
  26.9977642  50.5366448  66.2223979  26.0067642  51.1916448  67.5293979
  27.1127642  52.2666448  66.6453979  30.5637642  50.8176448  68.5393979
  30.6677642  49.7656448  69.1363979  31.3417642  51.9066448  68.8723979
  31.2857642  52.7126448  68.2673979  32.3567642  51.8846448  69.9533979
  32.4117642  50.8846448  70.3863979  33.7507642  52.1856448  69.3693979
  33.7337642  53.1526448  68.8613979  34.4747642  52.2346448  70.1833979
  34.1807642  51.0896448  68.3813979  34.0477642  50.1146448  68.8553979
  33.5277642  51.1246448  67.5063979  35.6407642  51.2186448  67.9323979
  36.5767642  51.1216448  68.7563979  35.8847642  51.3406448  66.7083979
  32.0187642  52.8136448  71.1353979  32.7287642  52.8696448  72.1203979
  30.8907642  53.6026448  71.0433979  30.3047642  53.4656448  70.2333979
  30.5127642  54.5786448  72.0613979  31.4317642  55.0076448  72.4533979
  29.7437642  55.7186448  71.3663979  30.3927642  56.1896448  70.6283979
  28.8747642  55.3066448  70.8543979  29.2647642  56.7996448  72.3173979
  29.6407642  56.8796448  73.4643979  28.3347642  57.6666448  71.8653979
  28.0617642  58.3926448  72.5093979  27.9867642  57.5916448  70.9223979
  29.7127642  53.9406448  73.2273979  28.6127642  53.4576448  72.9933979
  30.1777642  54.0396448  74.5413979  31.4907642  54.5536448  74.9513979
  31.8077642  55.4326448  74.3803979  32.2337642  53.7496448  74.8523979
  31.3067642  54.9256448  76.4233979  30.8887642  55.9396448  76.4873979
  32.2477642  54.9006448  76.9863979  30.2807642  53.9146448  76.9513979
  29.6897642  54.3256448  77.7813979  30.7887642  53.0066448  77.2983979
  29.4217642  53.5896448  75.7193979  29.2937642  52.5126448  75.6723979
  28.0367642  54.2296448  75.8593979  27.1567642  53.6326448  76.4543979
  27.8127642  55.4676448  75.2983979  28.5927642  55.9096448  74.8133979
  26.5197642  56.1636448  75.3863979  26.1617642  56.0836448  76.4133979
  26.6687642  57.6646448  75.0723979  26.8877642  57.7846448  74.0143979
  25.3907642  58.4416448  75.3863979  25.1297642  58.3636448  76.4493979
  25.5157642  59.5046448  75.1453979  24.5437642  58.0646448  74.8023979
  27.8007642  58.3226448  75.8803979  28.7687642  57.8456448  75.6883979
  27.8937642  59.3816448  75.6113979  27.5967642  58.2566448  76.9563979
  25.4757642  55.4696448  74.5003979  24.3827642  55.1966448  74.9543979
  25.8627642  55.0366448  73.2463979  26.8027642  55.2586448  72.9513979
  25.0387642  54.1776448  72.3923979  24.0587642  54.6416448  72.2633979
  25.7097642  54.0836448  71.0163979  26.7097642  53.6436448  71.1023979
  25.1127642  53.4546448  70.3433979  25.8057642  55.0696448  70.5463979
  24.8187642  52.7726448  73.0003979  23.7537642  52.1986448  72.8653979
  25.8357642  52.2066448  73.7463979  26.7147642  52.7156448  73.7673979
  25.7207642  50.9066448  74.4373979  25.3407642  50.1676448  73.7293979
  27.1217642  50.4466448  74.9113979  27.5857642  51.2786448  75.4323979
  27.0697642  49.2656448  75.8993979  26.5957642  48.3906448  75.4353979
  28.0767642  48.9796448  76.2223979  26.5087642  49.5246448  76.8053979
  27.9877642  50.0796448  73.6833979  27.6327642  49.1336448  73.2843979
  27.8637642  50.8316448  72.9043979  29.4937642  49.9586448  73.9493979
  29.7127642  49.1676448  74.6753979  30.0167642  49.7106448  73.0163979
  29.9057642  50.9026448  74.3203979  24.6967642  50.9836448  75.5843979
  23.8707642  50.1016448  75.7503979  24.7177642  52.1076448  76.3863979
  25.4817642  52.7606448  76.2173979  23.7127642  52.4376448  77.4063979
  23.6157642  51.6006448  78.0963979  24.2087642  53.6626448  78.1853979
  25.1777642  53.4026448  78.6103979  24.3447642  54.4986448  77.4983979
  23.2627642  54.0966448  79.3173979  22.2897642  54.3556448  78.8983979
  23.1187642  53.2656448  80.0093979  23.7867642  55.3186448  80.0893979
  23.7947642  56.1846448  79.4253979  23.0917642  55.5256448  80.9053979
  25.1977642  55.1136448  80.6563979  25.1927642  54.2256448  81.2953979
  25.8877642  54.9416448  79.8263979  25.6377642  56.2936448  81.4343979
  24.9877642  56.4656448  82.2023979  26.5637642  56.1816448  81.8193979
  25.6157642  57.1396448  80.8663979  22.3257642  52.6586448  76.7943979
  21.3577642  52.1756448  77.3483979  22.2387642  53.3406448  75.6033979
  23.0867642  53.7726448  75.2513979  20.9887642  53.5356448  74.8753979
  20.2757642  54.0386448  75.5293979  21.2617642  54.4516448  73.6793979
  21.9707642  53.9996448  72.9813979  20.3367642  54.6406448  73.1293979
  21.6647642  55.4196448  74.0073979  20.3617642  52.1906448  74.4653979
  19.2127642  51.9366448  74.7753979  21.1697642  51.2486448  73.8573979
  22.1097642  51.5376448  73.5953979  20.7217642  49.8936448  73.5313979
  19.8817642  49.9596448  72.8373979  21.8707642  49.1486448  72.8453979
  22.7127642  48.9996448  73.5303979  21.5287642  48.1646448  72.4983979
  22.2357642  49.7116448  71.9803979  20.2367642  49.1266448  74.7743979
  19.2017642  48.4926448  74.7343979  20.9717642  49.2476448  75.9413979
  21.8377642  49.7746448  75.8583979  20.5987642  48.6546448  77.2393979
  20.4647642  47.5786448  77.1123979  21.7127642  48.9316448  78.2623979
  22.2547642  49.8286448  77.9703979  21.2797642  49.1116448  79.2483979
  22.6897642  47.7586448  78.3673979  22.2057642  46.9486448  78.9163979
  22.9547642  47.4076448  77.3693979  23.9627642  48.1906448  79.1033979
  24.4507642  48.9726448  78.5163979  23.6897642  48.5966448  80.0803979
  24.8867642  47.0546448  79.2703979  24.5887642  46.1686448  78.8973979
  26.0777642  47.0686448  79.8433979  26.5707642  48.1256448  80.4203979
  26.0187642  48.9516448  80.4993979  27.4487642  48.0336448  80.9333979
  26.8137642  46.0036448  79.8513979  26.5387642  45.1346448  79.4083979
  27.7447642  46.0166448  80.2583979  19.2557642  49.1556448  77.7723979
  18.4747642  48.3536448  78.2413979  18.9867642  50.5016448  77.6993979
  19.7237642  51.0956448  77.3313979  17.7017642  51.1016448  78.0723979
  17.4367642  50.7786448  79.0803979  17.8697642  52.6336448  78.0933979
  18.2767642  52.9266448  79.0693979  18.6307642  52.9286448  77.3593979
  16.6167642  53.4546448  77.8173979  15.6777642  53.7016448  78.8363979
  15.8247642  53.2876448  79.8233979  14.5387642  54.4836448  78.5703979
  13.8157642  54.6706448  79.3513979  14.3377642  55.0236448  77.2873979
  13.4647642  55.6266448  77.0843979  15.2727642  54.7756448  76.2673979
  15.1207642  55.1926448  75.2813979  16.4067642  53.9896448  76.5313979
  17.1277642  53.8076448  75.7483979  16.5537642  50.6246448  77.1643979
  15.4557642  50.4116448  77.6433979  16.8287642  50.3946448  75.8303979
  17.7547642  50.6556448  75.5043979  15.8467642  49.8856448  74.8643979
  14.8667642  50.2836448  75.1273979  16.2267642  50.3846448  73.4573979
  17.2307642  50.0276448  73.2303979  15.5397642  49.9406448  72.7363979
  16.1967642  51.9106448  73.2643979  16.8627642  52.3906448  73.9743979
  16.6847642  52.2336448  71.8523979  16.0347642  51.7736448  71.0993979
  16.6867642  53.3136448  71.6823979  17.7087642  51.8686448  71.7073979
  14.7977642  52.4996448  73.4463979  14.4377642  52.3366448  74.4703979
  14.8127642  53.5816448  73.2733979  14.0847642  52.0426448  72.7493979
  15.6767642  48.3526448  74.8593979  14.7197642  47.8616448  74.2913979
  16.6427642  47.5626448  75.4483979  17.4517642  48.0536448  75.8143979
  16.6417642  46.0926448  75.4923979  17.4937642  45.7726448  76.0923979
  15.7317642  45.7536448  75.9853979  16.7477642  45.3706448  74.1353979
  16.6947642  44.1556448  74.1023979  16.9017642  46.1306448  72.9923979
  16.8707642  47.1276448  73.1413979  17.1617642  45.6196448  71.6333979
  16.3167642  44.9986448  71.3363979  17.2977642  46.7786448  70.6243979
  17.5897642  46.3516448  69.6683979  15.9757642  47.5166448  70.3893979
  15.5997642  47.9686448  71.3153979  16.1097642  48.3146448  69.6473979
  15.2117642  46.8276448  70.0083979  18.3617642  47.8126448  71.0203979
  19.3397642  47.3326448  71.1473979  18.4617642  48.5806448  70.2463979
  18.1017642  48.3026448  71.9643979  18.4237642  44.7416448  71.5663979
  19.3977642  44.9996448  72.2543979  18.4277642  43.6906448  70.6703979
  17.6157642  43.5496448  70.0883979  19.5327642  42.7206448  70.6003979
  19.8257642  42.5176448  71.6293979  19.0587642  41.3906448  69.9803979
  18.1967642  41.0266448  70.5413979  18.7147642  41.6026448  68.9653979
  20.0987642  40.2486448  69.8713979  19.5917642  39.4066448  69.4003979
  20.8927642  40.5686448  69.1933979  20.7647642  39.7356448  71.1643979
  20.6237642  40.3926448  72.2183979  21.4817642  38.7056448  71.0583979
  20.7767642  43.2686448  69.8813979  20.6917642  43.9716448  68.8823979
  21.9917642  42.8796448  70.4003979  21.9567642  42.2566448  71.2083979
  23.2947642  43.1766448  69.8053979  23.1817642  43.1676448  68.7203979
  23.7437642  44.5896448  70.2293979  24.6017642  44.8816448  69.6143979
  22.9507642  45.3036448  69.9723979  24.1327642  44.7796448  71.6943979
  23.2587642  45.4276448  72.5883979  22.2737642  45.7296448  72.2583979
  23.6627642  45.6796448  73.9133979  22.9887642  46.1866448  74.5883979
  24.9277642  45.2556448  74.3603979  25.2367642  45.4416448  75.3773979
  25.7857642  44.5726448  73.4823979  26.7527642  44.2306448  73.8213979
  25.3967642  44.3596448  72.1503979  26.0787642  43.8756448  71.4733979
  24.3387642  42.1066448  70.1703979  24.1217642  41.2786448  71.0363979
  25.5607642  42.1446448  69.5293979  25.6967642  42.8736448  68.8323979
  26.6947642  41.3076448  69.9383979  26.3787642  40.6666448  70.7593979
  27.0787642  40.3806448  68.7833979  27.4127642  40.9576448  67.9123979
  27.8967642  39.7196448  69.0933979  26.2237642  39.7626448  68.4843979
  27.9007642  42.1446448  70.4123979  28.3047642  43.0546448  69.7043979
  28.5407642  41.8356448  71.6113979  28.0087642  40.9456448  72.6503979
  28.0837642  39.9066448  72.3083979  26.9637642  41.1866448  72.8893979
  28.9097642  41.1736448  73.8713979  29.0187642  40.2676448  74.4813979
  28.4877642  41.9696448  74.4993979  30.2497642  41.6406448  73.2883979
  30.8587642  40.7616448  73.0463979  30.8137642  42.2816448  73.9753979
  29.8477642  42.3756448  72.0013979  29.7447642  43.4406448  72.2083979
  30.9047642  42.1596448  70.9113979  31.0867642  41.0486448  70.4383979
  31.6287642  43.2606448  70.5133979  31.4527642  44.1346448  71.0033979
  32.6077642  43.2596448  69.4343979  32.5137642  42.3196448  68.8893979
  32.2907642  44.3876448  68.4563979  32.5267642  45.3636448  68.8933979
  32.8867642  44.2696448  67.5443979  31.2307642  44.3776448  68.1923979
  34.0517642  43.3726448  69.9323979  34.3867642  44.2076448  70.7623979
  34.9427642  42.5196448  69.3263979  34.5347642  41.8316448  68.6923979
  36.3547642  42.3816448  69.6873979  36.6047642  43.1356448  70.4303979
  36.5677642  40.9926448  70.3233979  36.1247642  40.2376448  69.6753979
  38.0407642  40.6266448  70.5263979  38.5427642  41.3576448  71.1683979
  38.1257642  39.6336448  70.9833979  38.5697642  40.5806448  69.5683979
  35.8627642  40.9216448  71.6863979  34.7807642  41.0716448  71.5773979
  36.0107642  39.9406448  72.1513979  36.2477642  41.6926448  72.3653979
  37.2327642  42.6346448  68.4613979  37.3497642  41.7896448  67.5943979
  37.8527642  43.8616448  68.3533979  37.7007642  44.5206448  69.1113979
  38.6547642  44.2796448  67.1793979  38.2627642  43.7696448  66.2983979
  38.5407642  45.7926448  66.9133979  39.2807642  46.0866448  66.1683979
  37.1647642  46.1706448  66.3773979  36.3637642  45.8086448  67.0343979
  37.0687642  47.2556448  66.2723979  37.0277642  45.7346448  65.3823979
  38.7547642  46.5506448  68.0843979  38.7037642  47.5146448  67.8373979
  40.1327642  43.8896448  67.2513979  40.8497642  44.0786448  66.2843979
  40.6257642  43.3246448  68.4093979  39.9627642  43.1446448  69.1543979
  42.0357642  42.9706448  68.6273979  42.4367642  42.5366448  67.7113979
  42.8177642  44.2596448  68.9193979  42.7107642  44.9286448  68.0643979
  42.3937642  44.7546448  69.7923979  44.1967642  44.0446448  69.1403979
  44.6177642  44.9606448  69.1263979  42.1877642  41.9206448  69.7373979
  41.2557642  41.6566448  70.4813979  43.3907642  41.2616448  69.8333979
  44.1337642  41.5906448  69.2263979  43.6637642  40.1606448  70.7583979
  43.1197642  40.3326448  71.6873979  43.1537642  38.8496448  70.1363979
  42.1227642  38.9996448  69.7903979  43.7397642  38.6096448  69.2403979
  43.1727642  37.6626448  71.0883979  41.9677642  37.2016448  71.6513979
  41.0267642  37.6546448  71.3683979  41.9787642  36.1426448  72.5743979
  41.0507642  35.7946448  73.0073979  43.1947642  35.5336448  72.9273979
  43.2037642  34.7216448  73.6423979  44.3957642  35.9666448  72.3413979
  45.3247642  35.4756448  72.5973979  44.3857642  37.0266448  71.4183979
  45.3107642  37.3506448  70.9633979  45.1617642  40.1046448  71.0823979
  45.9837642  39.9666448  70.1913979  45.5347642  40.2456448  72.4043979
  44.7777642  40.2436448  73.0893979  46.9117642  40.4326448  72.8843979
  47.5957642  40.3116448  72.0443979  47.0857642  41.8516448  73.4523979
  46.4337642  41.9646448  74.3193979  48.1147642  41.9626448  73.7983979
  46.7667642  42.9946448  72.4683979  45.6907642  43.0146448  72.2883979
  47.0307642  43.9356448  72.9523979  47.4767642  42.9366448  71.1043979
  47.0287642  42.1566448  70.4953979  47.2957642  43.8826448  70.5913979
  48.9877642  42.6846448  71.1993979  49.4327642  43.4676448  71.8203979
  49.1747642  41.7186448  71.6753979  49.6037642  42.7216448  69.8533979
  49.5317642  43.6696448  69.4853979  50.5877642  42.4736448  69.8683979
  49.1507642  42.0986448  69.1953979  47.2757642  39.3586448  73.9083979
  46.7987642  39.3516448  75.0283979  48.1557642  38.4086448  73.4673979
  48.5887642  38.5736448  72.5673979  48.4627642  37.1596448  74.1573979
  47.5337642  36.7216448  74.5213979  49.0327642  36.2316448  73.0743979
  48.2827642  36.1216448  72.2773979  49.9007642  36.7106448  72.6023979
  49.4327642  34.8466448  73.5433979  50.7527642  34.6146448  73.9683979
  51.4787642  35.4156448  73.9573979  51.1337642  33.3366448  74.4083979
  52.1507642  33.1636448  74.7343979  50.1967642  32.2886448  74.4183979
  50.4917642  31.3066448  74.7613979  48.8807642  32.5136448  73.9743979
  48.1637642  31.7036448  73.9703979  48.4977642  33.7936448  73.5353979
  47.4867642  33.9586448  73.1873979  49.3867642  37.3486448  75.3833979
  49.3007642  36.6036448  76.3463979  50.2487642  38.4266448  75.3703979
  50.2817642  38.9456448  74.4883979  51.3197642  38.7006448  76.3413979
  51.7997642  37.7566448  76.6043979  52.3687642  39.6196448  75.6913979
  51.9157642  40.5836448  75.4513979  53.1527642  39.8036448  76.4273979
  53.0337642  39.0276448  74.4383979  54.0817642  39.3356448  74.4563979
  53.0207642  37.9366448  74.4963979  52.3977642  39.5126448  73.1203979
  51.1477642  39.5566448  73.0083979  53.1757642  39.9026448  72.2123979
  50.8607642  39.3426448  77.6603979  51.6477642  39.4906448  78.5843979
  49.5537642  39.7726448  77.7633979  48.9767642  39.6186448  76.9443979
  48.9307642  40.1866448  79.0293979  49.4667642  41.0426448  79.4393979
  47.4707642  40.5596448  78.7773979  46.9847642  39.7466448  78.2353979
  46.9717642  40.6786448  79.7373979  47.3267642  41.8706448  78.0033979
  47.4857642  42.7016448  78.6913979  48.0577642  41.9316448  77.1963979
  45.9217642  41.9526448  77.4133979  45.8247642  41.2096448  76.6173979
  45.2017642  41.7286448  78.2013979  45.6707642  43.2936448  76.8763979
  46.4457642  43.9476448  76.8873979  44.5377642  43.7756448  76.4183979
  43.4357642  43.0826448  76.3613979  43.4247642  42.1386448  76.7463979
  42.5707642  43.4416448  76.0113979  44.5347642  45.0116448  76.0163979
  45.4017642  45.5296448  76.1193979  43.6887642  45.4396448  75.7003979
  49.0047642  39.0566448  80.0543979  48.9587642  37.8956448  79.6893979
  49.1067642  39.4156448  81.3763979  49.0957642  40.4016448  81.5813979
  49.3747642  38.4456448  82.4413979  49.2297642  37.4336448  82.0603979
  50.4127642  38.5366448  82.7553979  48.5027642  38.5676448  83.6813979
  48.4777642  37.6436448  84.4503979  47.7467642  39.6986448  83.8843979
  47.9127642  40.4816448  83.2743979  46.7237642  39.8486448  84.9353979
  46.5227642  38.8766448  85.3873979  47.2597642  40.7866448  86.0203979
  46.5427642  40.8416448  86.8403979  48.2017642  40.3936448  86.4063979
  47.4727642  42.0836448  85.4853979  47.6717642  42.6876448  86.2293979
  45.3957642  40.3686448  84.3663979  44.4237642  40.5576448  85.0843979
  45.3717642  40.6216448  83.0133979  46.1757642  40.2886448  82.5013979
  44.3267642  41.2696448  82.2223979  43.4257642  41.3536448  82.8293979
  44.7507642  42.6826448  81.7813979  44.0297642  43.0506448  81.0503979
  44.7947642  43.6756448  82.9393979  45.4877642  43.3426448  83.7223979
  45.1157642  44.6656448  82.5903979  43.7987642  43.7816448  83.3873979
  46.0277642  42.6866448  81.1793979  46.2747642  43.6166448  81.0353979
  43.9937642  40.4126448  81.0033979  44.8197642  39.6806448  80.4873979
  42.7037642  40.4956448  80.5393979  42.0847642  41.1496448  80.9953979
  42.1227642  39.5276448  79.6003979  42.3687642  38.5316448  79.9753979
  40.5857642  39.6226448  79.5813979  40.1997642  38.7716448  79.0233979
  40.0347642  39.5516448  81.0113979  40.3267642  40.4176448  81.6163979
  38.9417642  39.5186448  80.9853979  40.3957642  38.6466448  81.5143979
  40.0417642  40.8926448  78.9213979  40.3107642  40.9216448  77.8603979
  38.9467642  40.9126448  78.9833979  40.4317642  41.7956448  79.4053979
  42.7347642  39.6356448  78.2023979  43.0407642  40.7176448  77.7293979
  42.9427642  38.4616448  77.5113979  42.6457642  37.6106448  77.9793979
  43.6447642  38.3766448  76.2193979  44.5727642  38.9416448  76.3183979
  44.0337642  36.9156448  75.9143979  43.1367642  36.3926448  75.5853979
  44.7397642  36.9156448  75.0833979  44.6337642  36.0796448  77.0703979
  43.9797642  36.1326448  77.9413979  44.6347642  35.0406448  76.7403979
  46.0687642  36.4206448  77.5053979  46.7307642  36.2996448  76.6493979
  46.1277642  37.4486448  77.8673979  46.4797642  35.4436448  78.6233979
  45.9167642  35.6806448  79.5323979  46.2057642  34.4296448  78.3183979
  47.9307642  35.4856448  78.9223979  48.1987642  36.4116448  79.2443979
  48.1517642  34.8536448  79.6823979  48.4957642  35.2916448  78.1043979
  42.8837642  39.0506448  75.0453979  43.5157642  39.8026448  74.3183979
  41.5107642  38.8746448  74.8393979  40.6457642  37.8786448  75.4923979
  40.7567642  37.8546448  76.5803979  40.8617642  36.8846448  75.0793979
  39.2167642  38.2936448  75.1253979  38.8447642  39.0096448  75.8703979
  38.5297642  37.4386448  75.0923979  39.3527642  38.9926448  73.7653979
  38.5447642  39.7126448  73.5813979  39.3397642  38.2416448  72.9643979
  40.7427642  39.6506448  73.8493979  41.2187642  39.5756448  72.8723979
  40.6477642  41.1456448  74.2133979  40.7597642  41.5316448  75.3643979
  40.4057642  42.0386448  73.1913979  40.3877642  41.6656448  72.2413979
  40.1627642  43.4806448  73.3763979  40.3437642  43.7466448  74.4163979
  41.1197642  44.3256448  72.5103979  41.0057642  44.0446448  71.4653979
  40.8397642  45.8296448  72.6283979  40.8817642  46.1626448  73.6723979
  41.5707642  46.4036448  72.0443979  39.8477642  46.0756448  72.2263979
  42.5777642  44.0956448  72.9273979  42.8617642  43.0436448  72.7963979
  43.2567642  44.7006448  72.3143979  42.7207642  44.3656448  73.9763979
  38.7027642  43.8056448  73.0723979  38.3077642  43.8566448  71.9213979
  37.8787642  44.0486448  74.1503979  38.3077642  44.0526448  75.0673979
  36.4777642  44.4496448  74.0293979  36.0207642  43.8776448  73.2203979
  35.7467642  44.1116448  75.3423979  35.8347642  43.0386448  75.5193979
  36.2477642  44.6286448  76.1633979  34.2557642  44.5016448  75.3743979
  34.1597642  45.5846448  75.2983979  33.4387642  43.8566448  74.2533979
  33.4977642  42.7616448  74.2963979  32.3857642  44.1536448  74.3323979
  33.7867642  44.1876448  73.2693979  33.6497642  44.0496448  76.7033979
  34.1537642  44.5436448  77.5423979  32.5847642  44.3076448  76.7483979
  33.7457642  42.9636448  76.8263979  36.4067642  45.9366448  73.6623979
  36.6767642  46.7896448  74.4943979  36.0987642  46.2456448  72.3613979
  35.9127642  45.4716448  71.7243979  36.1427642  47.6036448  71.8053979
  36.6507642  48.2686448  72.5023979  36.9467642  47.5956448  70.5063979
  36.8557642  48.5686448  70.0213979  37.9957642  47.4156448  70.7393979
  36.4977642  46.5886448  69.6213979  37.1957642  46.5226448  68.9193979
  34.7687642  48.2046448  71.5413979  34.6177642  49.4106448  71.6163979
  33.7297642  47.3576448  71.2323979  33.9307642  46.3606448  71.1853979
  32.4437642  47.8586448  70.7683979  32.1727642  48.7616448  71.3133979
  32.5527642  48.1206448  69.7163979  31.2947642  46.8686448  70.8883979
  31.3707642  45.8696448  71.5823979  30.1987642  47.1696448  70.1223979
  30.2457642  48.0496448  69.6113979  29.0627642  46.2906448  69.8603979
  29.3577642  45.2756448  70.1203979  27.8437642  46.6526448  70.7503979
  27.0547642  45.9416448  70.5043979  28.2067642  46.4666448  72.2353979
  29.0117642  47.1446448  72.5413979  27.3467642  46.6636448  72.8823979
  28.5397642  45.4386448  72.4203979  27.2777642  48.0696448  70.5133979
  27.9587642  48.8156448  70.9253979  27.2027642  48.2316448  69.4463979
  25.8657642  48.2946448  71.0743979  25.8207642  48.1426448  72.1583979
  25.5367642  49.3206448  70.8643979  25.1527642  47.6076448  70.6033979
  28.7687642  46.2966448  68.3523979  28.8227642  47.3336448  67.7073979
  28.4867642  45.0886448  67.7543979  28.4437642  44.2806448  68.3743979
  27.9137642  44.9726448  66.4063979  28.2417642  45.8336448  65.8313979
  28.3727642  43.7146448  65.6453979  28.0697642  42.8256448  66.1983979
  27.7757642  43.6536448  64.2323979  28.0967642  44.5166448  63.6363979
  28.0957642  42.7356448  63.7243979  26.6817642  43.6456448  64.2603979
  29.8897642  43.6926448  65.4433979  30.3967642  43.6126448  66.4053979
  30.1897642  42.8216448  64.8493979  30.2367642  44.6016448  64.9353979
  26.3937642  45.0286448  66.5103979  25.8007642  44.3946448  67.3693979
  25.7597642  45.8286448  65.5903979  26.3697642  46.2986448  64.9233979
  24.3677642  46.2776448  65.6733979  23.8317642  45.6746448  66.4073979
  24.3457642  47.7496448  66.1433979  24.9187642  48.3486448  65.4363979
  22.9377642  48.3396448  66.2223979  22.3057642  47.7616448  66.9093979
  22.9797642  49.3756448  66.5773979  22.4667642  48.3566448  65.2363979
  24.9907642  47.9196448  67.5243979  26.0517642  47.6476448  67.4943979
  24.9327642  48.9616448  67.8573979  24.4897642  47.2876448  68.2683979
  23.6827642  46.1076448  64.3153979  24.2307642  46.4976448  63.2943979
  22.4397642  45.5106448  64.2923979  22.0457642  45.2136448  65.1773979
  21.6097642  45.4356448  63.0903979  22.2257642  45.0746448  62.2663979
  20.4807642  44.4286448  63.3093979  19.8247642  44.7416448  64.1303979
  19.8747642  44.3436448  62.4033979  20.8857642  43.4346448  63.5423979
  21.0877642  46.8276448  62.7023979  20.7387642  47.6356448  63.5443979
  21.0727642  47.1696448  61.3683979  21.3437642  46.4436448  60.7053979
  21.1147642  48.5876448  60.9703979  21.8657642  49.0806448  61.5903979
  21.5627642  48.6986448  59.5153979  21.0577642  47.9416448  58.9113979
  21.3107642  49.6876448  59.1303979  23.0847642  48.5216448  59.4463979
  23.5657642  49.3666448  59.9423979  23.3867642  47.6096448  59.9573979
  23.5157642  48.4616448  57.9823979  23.1497642  47.5346448  57.5383979
  23.0827642  49.3116448  57.4543979  25.0357642  48.5106448  57.8653979
  25.4307642  49.2956448  58.5163979  25.4387642  47.5536448  58.1973979
  25.4467642  48.7476448  56.4673979  25.1647642  49.6526448  56.0993979
  26.4627642  48.7146448  56.3743979  25.1157642  48.0196448  55.8523979
  19.8477642  49.3906448  61.2603979  19.9637642  50.5396448  61.6233979
  18.6247642  48.7676448  61.1953979  18.6147642  47.7876448  60.9573979
  17.3827642  49.4176448  61.6313979  17.3027642  50.3976448  61.1543979
  16.1897642  48.5666448  61.1793979  15.2617642  49.0916448  61.4433979
  16.1937642  48.5086448  60.0833979  16.1337642  47.1696448  61.7243979
  15.3737642  46.7766448  62.7723979  14.7147642  47.4266448  63.3373979
  15.5567642  45.4266448  63.0003979  15.0597642  44.9026448  63.7113979
  16.4577642  44.8806448  62.1143979  16.9537642  43.5826448  61.9393979
  16.6247642  42.7846448  62.5893979  17.8837642  43.3346448  60.9153979
  18.2737642  42.3326448  60.7793979  18.3117642  44.3926448  60.0903979
  19.0377642  44.2026448  59.3133979  17.7977642  45.6936448  60.2663979
  18.1067642  46.4826448  59.5993979  16.8557642  45.9736448  61.2853979
  17.3577642  49.6686448  63.1523979  16.7107642  50.5936448  63.6043979
  18.1257642  48.8596448  63.9703979  18.6437642  48.1096448  63.5293979
  18.3007642  49.0866448  65.4083979  17.3397642  49.3976448  65.8223979
  18.7337642  47.7936448  66.1253979  19.7387642  47.5246448  65.8063979
  18.7867642  48.0096448  67.1933979  17.8147642  46.5786448  65.9203979
  17.8087642  46.2906448  64.8693979  18.3607642  45.4096448  66.7363979
  18.4537642  45.6726448  67.7943979  17.7027642  44.5376448  66.6603979
  19.3607642  45.1196448  66.3933979  16.3797642  46.8626448  66.3673979
  15.9207642  47.6336448  65.7373979  15.7647642  45.9586448  66.2903979
  16.3587642  47.2056448  67.4083979  19.2857642  50.2216448  65.7243979
  19.0767642  50.9176448  66.7033979  20.3567642  50.4666448  64.8663979
  20.4777642  49.8206448  64.0923979  21.2507642  51.6346448  65.0373979
  21.7417642  51.5426448  66.0053979  22.3387642  51.7296448  63.9383979
  22.9117642  50.8006448  63.9163979  21.8727642  51.8816448  62.9633979
  23.2877642  52.9146448  64.2463979  22.7147642  53.8406448  64.2413979
  23.6947642  52.7666448  65.2473979  24.4577642  53.1266448  63.2763979
  24.9437642  52.1746448  63.1083979  24.0727642  53.5066448  62.3263979
  25.4377642  54.0736448  63.8513979  25.0667642  54.8166448  64.4463979
  26.7527642  53.9646448  63.9013979  27.4387642  53.1226448  63.1813979
  26.9967642  52.7186448  62.3733979  28.4287642  53.0326448  63.3143979
  27.4167642  54.7356448  64.7043979  26.8447642  55.3786448  65.2713979
  28.4117642  54.7226448  64.7613979  20.4347642  52.9286448  65.0943979
  20.6957642  53.7716448  65.9313979  19.3957642  53.0456448  64.2113979
  19.3067642  52.3046448  63.5273979  18.5607642  54.2416448  64.0783979
  19.2047642  55.1126448  63.9463979  17.6897642  54.0846448  62.8213979
  17.0267642  53.2276448  62.9523979  17.0657642  54.9716448  62.7203979
  18.4897642  53.8816448  61.5163979  18.7857642  52.8346448  61.4603979
  17.8227642  54.0666448  60.6713979  19.7457642  54.7666448  61.3943979
  19.5967642  56.0026448  61.4983979  20.8517642  54.2046448  61.1993979
  17.7017642  54.5246448  65.3263979  17.5407642  55.6706448  65.7113979
  17.1817642  53.4586448  66.0373979  17.3237642  52.5286448  65.6603979
  16.5357642  53.6306448  67.3413979  15.8037642  54.4366448  67.2653979
  15.7907642  52.3376448  67.7013979  16.4857642  51.4956448  67.8083979
  15.2537642  52.4626448  68.6513979  15.0537642  52.0856448  66.9283979
  17.5497642  54.0286448  68.4353979  17.2847642  54.9016448  69.2423979
  18.7647642  53.3736448  68.4443979  18.8817642  52.6546448  67.7333979
  19.8377642  53.5736448  69.4303979  19.4257642  53.4126448  70.4273979
  20.9507642  52.5266448  69.1773979  21.0487642  52.3846448  68.1013979
  22.3407642  52.9466448  69.6983979  22.3087642  53.1456448  70.7743979
  23.0897642  52.1726448  69.5063979  22.6987642  53.8506448  69.1883979
  20.5097642  51.1876448  69.8033979  20.5367642  51.2766448  70.8893979
  19.4797642  50.9766448  69.5123979  21.3607642  49.9896448  69.3673979
  22.4037642  50.0946448  69.6873979  20.9687642  49.0676448  69.8133979
  21.3387642  49.8786448  68.2773979  20.3917642  55.0016448  69.4303979
  20.5447642  55.5916448  70.4863979  20.7417642  55.5756448  68.2303979
  20.5917642  55.0306448  67.3813979  21.4027642  56.8856448  68.1583979
  22.2197642  56.9106448  68.8803979  21.9917642  57.1226448  66.7593979
  21.1727642  57.0926448  66.0403979  22.4287642  58.1216448  66.7143979
  23.0497642  56.0826448  66.3343979  22.8327642  55.1096448  66.7763979
  22.9757642  55.9696448  65.2513979  24.4997642  56.4556448  66.6733979
  24.7537642  57.1396448  67.6913979  25.3937642  56.0336448  65.8983979
  20.4317642  58.0046448  68.5513979  20.8237642  58.9136448  69.2553979
  19.1127642  57.8706448  68.1683979  18.8937642  57.0896448  67.5603979
  18.0207642  58.7926448  68.5243979  18.3517642  59.8206448  68.3623979
  16.8187642  58.5206448  67.5963979  16.4217642  57.5276448  67.8133979
  15.6877642  59.5426448  67.6763979  16.0647642  60.5426448  67.4223979
  14.8957642  59.2816448  66.9633979  15.2487642  59.5776448  68.6783979
  17.2227642  58.5606448  66.2453979  16.8967642  57.7476448  65.8063979
  17.6287642  58.6696448  70.0073979  17.0647642  59.5776448  70.5863979
  17.9777642  57.5246448  70.6993979  18.3927642  56.7676448  70.1663979
  17.8127642  57.3756448  72.1433979  16.8807642  57.8626448  72.4343979
  17.6727642  55.8916448  72.4833979  18.5267642  55.3206448  72.1093979
  17.5937642  55.7436448  73.5683979  16.7647642  55.4976448  72.0153979
  18.9237642  58.0596448  72.9593979  18.6837642  58.3826448  74.1083979
  20.1407642  58.3666448  72.3723979  20.2707642  58.0786448  71.4063979
  21.1377642  59.2536448  73.0103979  21.4137642  58.8376448  73.9783979
  22.4177642  59.3636448  72.1443979  22.1367642  59.7016448  71.1493979
  23.3957642  60.4226448  72.6943979  23.6967642  60.1896448  73.7203979
  24.2837642  60.5116448  72.0603979  22.9277642  61.4156448  72.6903979
  23.0697642  57.9646448  72.0233979  23.1427642  57.5086448  73.0103979
  22.4217642  57.3326448  71.4153979  24.4597642  57.9486448  71.3803979
  25.2057642  58.4206448  72.0313979  24.7757642  56.9176448  71.2073979
  24.4477642  58.4666448  70.4143979  20.5227642  60.6346448  73.2863979
  20.7767642  61.2216448  74.3253979  19.6247642  61.1136448  72.3593979
  19.5177642  60.5786448  71.5053979  18.8737642  62.3676448  72.4763979
  19.5727642  63.1396448  72.7983979  18.3327642  62.7886448  71.0973979
  17.5167642  62.1216448  70.8203979  17.9167642  63.7936448  71.1853979
  19.3867642  62.8076448  69.9773979  20.5757642  63.0816448  70.2773979
  18.9917642  62.5846448  68.8123979  17.7457642  62.3036448  73.5293979
  17.1187642  63.3076448  73.8163979  17.4957642  61.0936448  74.1523979
  18.0517642  60.3126448  73.8243979  16.5527642  60.8816448  75.2533979
  15.9197642  61.7606448  75.3793979  15.9117642  60.0406448  74.9933979
  17.2177642  60.5626448  76.6003979  16.8887642  61.1656448  77.6043979
  18.1847642  59.5786448  76.6493979  18.4287642  59.1356448  75.7663979
  18.6327642  58.9636448  77.9133979  17.7377642  58.7466448  78.4923979
  19.3497642  57.6186448  77.6783979  19.6297642  57.2486448  78.6663979
  18.3817642  56.5846448  77.0823979  18.0027642  56.9026448  76.1043979
  18.8707642  55.6126448  76.9583979  17.5187642  56.4446448  77.7463979
  20.6417642  57.7356448  76.8373979  20.4067642  57.6826448  75.7783979
  21.1307642  58.6886448  77.0283979  21.6457642  56.6336448  77.1773979
  21.2157642  55.6426448  77.0013979  22.5497642  56.7356448  76.5653979
  21.9307642  56.7086448  78.2323979  19.4847642  59.8696448  78.8113979
  19.5357642  59.6566448  80.0073979  20.1667642  60.9216448  78.2433979
  20.0577642  61.0486448  77.2433979  21.0187642  61.8466448  79.0083979
  21.5167642  61.2756448  79.7923979  22.0967642  62.4406448  78.0823979
  21.6047642  62.9546448  77.2553979  22.6837642  63.1766448  78.6333979
  23.0677642  61.3936448  77.5073979  22.5147642  60.6786448  76.8963979
  23.7687642  61.9076448  76.8463979  23.8607642  60.6466448  78.5893979
  24.9097642  61.1686448  79.0583979  23.4917642  59.5086448  78.9593979
  20.2227642  62.9436448  79.7453979  20.8117642  63.8386448  80.3323979
  18.8457642  62.8486448  79.7013979  18.4817642  62.0666448  79.1683979
  17.8727642  63.8366448  80.1733979  18.3977642  64.6476448  80.6763979
  17.1547642  64.4056448  78.9393979  16.5447642  63.6116448  78.4883979
  16.4477642  65.1866448  79.2483979  18.0977642  64.9766448  77.8913979
  18.2967642  64.3086448  76.6693979  17.7437642  63.4076448  76.4483979
  19.2057642  64.8166448  75.7273979  19.3447642  64.3026448  74.7883979
  19.9127642  66.0006448  75.9963979  20.5927642  66.3956448  75.2573979
  19.7197642  66.6686448  77.2183979  20.2617642  67.5766448  77.4313979
  18.8157642  66.1546448  78.1653979  18.6737642  66.6556448  79.1103979
  16.8557642  63.2716448  81.1803979  15.9967642  64.0126448  81.6283979
  16.9497642  61.9286448  81.5043979  17.7467642  61.4346448  81.1253979
  16.0977642  61.2086448  82.4673979  15.1187642  61.6876448  82.4693979
  15.9207642  59.7196448  82.0703979  16.8427642  59.1966448  82.3373979
  14.7597642  59.1556448  82.9093979  13.8297642  59.6916448  82.6813979
  14.6037642  58.0876448  82.7293979  14.9627642  59.2826448  83.9803979
  15.6517642  59.4676448  80.5643979  14.6727642  59.8616448  80.2913979
  16.3987642  59.9896448  79.9683979  15.7347642  57.9836448  80.1693979
  14.9507642  57.3896448  80.6533979  15.6117642  57.8706448  79.0853979
  16.7107642  57.5646448  80.4463979  16.6427642  61.3596448  83.8983979
  15.8557642  61.7866448  84.7703979  44.2647642  67.2746448  70.0703979
  44.4089597  67.2309360  69.0717005  45.4457642  67.4686448  70.9423979
  45.3637642  66.7556448  71.7613979  46.7847642  67.1756448  70.2163979
  46.7377642  66.1496448  69.8473979  47.0547642  68.0736448  68.9963979
  47.1907642  69.1246448  69.2853979  47.9787642  67.7616448  68.4913979
  46.2467642  68.0146448  68.2573979  48.0007642  67.2736448  71.1643979
  47.9847642  68.2206448  71.7053979  48.9197642  67.2456448  70.5763979
  48.0697642  66.1176448  72.1673979  48.1527642  65.1556448  71.6463979
  48.9517642  66.2316448  72.8093979  47.1807642  66.0916448  72.8093979
  45.3617642  68.8636448  71.5513979  45.3137642  69.8366448  70.8283979
  45.2477642  68.9686448  72.9173979  45.2867642  68.1186448  73.4683979
  44.7737642  70.1806448  73.5963979  43.9747642  70.6266448  73.0023979
  44.3567642  69.8826448  74.5523979  45.8037642  71.2786448  73.8753979
  45.7627642  71.8576448  74.9463979  46.7627642  71.5566448  72.9223979
  46.6437642  71.1126448  72.0183979  47.7917642  72.5936448  73.0873979
  48.4267642  72.3166448  73.9273979  48.6507642  72.6506448  71.8083979
  49.0007642  71.6496448  71.5503979  48.0137642  72.9986448  70.9923979
  49.8617642  73.5956448  71.9343979  49.5857642  74.4916448  72.4883979
  51.0217642  72.9046448  72.6513979  51.3717642  72.0316448  72.0883979
  51.8617642  73.5976448  72.7813979  50.7097642  72.5676448  73.6443979
  50.3457642  74.0286448  70.5533979  49.5427642  74.5466448  70.0143979
  51.1797642  74.7276448  70.6553979  50.6717642  73.1696448  69.9553979
  47.1477642  73.9626448  73.3943979  46.3457642  74.4436448  72.6123979
  47.4867642  74.6106448  74.5663979  48.1687642  74.1776448  75.1853979
  46.8827642  75.8956448  74.9573979  45.8657642  75.8916448  74.5673979
  46.7357642  76.0716448  76.4783979  46.0947642  76.9356448  76.6533979
  46.0747642  74.8736448  77.1633979  46.6877642  73.9676448  77.0753979
  45.9077642  75.0786448  78.2273979  45.0977642  74.6696448  76.7073979
  47.9687642  76.3436448  77.0863979  47.9067642  76.0726448  78.0193979
  47.5697642  77.1076448  74.3123979  48.6677642  77.0486448  73.7823979
  46.8327642  78.2736448  74.3063979  45.9367642  78.2306448  74.7733979
  47.0837642  79.3876448  73.3813979  47.1817642  78.9476448  72.3893979
  45.8437642  80.3006448  73.3363979  44.9667642  79.6626448  73.2153979
  45.6377642  81.1216448  74.6163979  46.4727642  81.8126448  74.7873979
  44.7197642  81.7186448  74.5343979  45.5327642  80.4686448  75.4913979
  45.8847642  81.2376448  72.1283979  45.9477642  80.6536448  71.2023979
  44.9727642  81.8436448  72.0793979  46.7477642  81.9136448  72.1733979
  48.3887642  80.1616448  73.6323979  49.0187642  80.6076448  72.6883979
  48.8537642  80.2986448  74.9243979  48.3097642  79.8816448  75.6653979
  50.1257642  80.9776448  75.2303979  50.1527642  81.9386448  74.7133979
  50.2607642  81.2386448  76.7423979  50.3347642  80.2796448  77.2583979
  51.1907642  81.7796448  76.9193979  49.1067642  82.0316448  77.3803979
  48.1947642  81.4326448  77.3233979  49.3357642  82.1616448  78.4393979
  48.8437642  83.4156448  76.7633979  47.6927642  83.8946448  76.8963979
  49.7657642  84.0426448  76.1983979  51.3317642  80.1626448  74.7313979
  52.2887642  80.7176448  74.2203979  51.2617642  78.7856448  74.8223979
  50.3997642  78.3946448  75.1833979  52.2947642  77.8786448  74.3103979
  53.2677642  78.1956448  74.6903979  52.0167642  76.4476448  74.7903979
  50.9977642  76.1646448  74.5243979  52.6937642  75.7676448  74.2743979
  52.2177642  76.2566448  76.2893979  53.1907642  76.7956448  76.8563979
  51.4667642  75.4586448  76.8923979  52.3547642  77.9066448  72.7813979
  53.4197642  78.0336448  72.2003979  51.1507642  77.8446448  72.1123979
  50.3317642  77.6966448  72.7013979  50.9607642  77.9806448  70.6683979
  51.4187642  77.1296448  70.1633979  49.4397642  77.9426448  70.4323979
  49.0557642  76.9596448  70.7133979  48.9967642  78.6536448  71.1223979
  48.9577642  78.2996448  69.0133979  49.6287642  79.0146448  68.5423979
  48.8727642  77.0516448  68.1383979  48.1417642  76.3406448  68.5443979
  48.5627642  77.3146448  67.1203979  49.8477642  76.5546448  68.0833979
  47.5817642  78.9586448  69.0933979  47.6357642  79.8676448  69.7073979
  47.2337642  79.2496448  68.0953979  46.8457642  78.2796448  69.5413979
  51.6167642  79.2586448  70.1093979  52.3267642  79.1976448  69.1173979
  51.3947642  80.4626448  70.7493979  50.7537642  80.4646448  71.5433979
  52.0007642  81.7126448  70.2763979  52.0187642  81.6766448  69.1893979
  51.1447642  82.9256448  70.6783979  51.0167642  82.9246448  71.7613979
  51.6847642  83.8326448  70.4013979  49.7587642  82.9646448  69.9993979
  49.1917642  82.0736448  70.2693979  48.9897642  84.1946448  70.4803979
  49.5027642  85.1186448  70.1853979  47.9807642  84.2076448  70.0493979
  48.8907642  84.1816448  71.5723979  49.8437642  83.0496448  68.4693979
  50.2897642  82.1456448  68.0423979  48.8417642  83.1536448  68.0343979
  50.4357642  83.9186448  68.1543979  53.4797642  81.8676448  70.6663979
  54.2367642  82.4036448  69.8693979  53.9497642  81.3076448  71.8423979
  53.2727642  80.9286448  72.5073979  55.3927642  81.1846448  72.1183979
  55.8347642  82.1806448  72.1243979  55.6707642  80.5306448  73.4783979
  55.0347642  79.6546448  73.6093979  56.7147642  80.2136448  73.5143979
  55.4607642  81.4506448  74.5283979  55.1997642  80.9486448  75.3253979
  56.0817642  80.3726448  71.0193979  57.0827642  80.7996448  70.4663979
  55.4767642  79.1976448  70.6173979  54.6397642  78.9086448  71.1273979
  55.9537642  78.3796448  69.5053979  56.9787642  78.0746448  69.7133979
  55.0747642  77.1306448  69.3343979  54.0307642  77.4296448  69.3953979
  55.2347642  76.7196448  68.3363979  55.3277642  76.0136448  70.3563979
  55.3557642  76.4226448  71.3653979  54.1867642  75.0036448  70.2563979
  54.0987642  74.6026448  69.2403979  54.3337642  74.1696448  70.9493979
  53.2457642  75.4986448  70.5193979  56.6407642  75.2836448  70.0713979
  57.4937642  75.9656448  70.1463979  56.7897642  74.4796448  70.8013979
  56.6367642  74.8466448  69.0653979  55.9867642  79.1716448  68.1983979
  56.9897642  79.1206448  67.5133979  54.9037642  79.9536448  67.8353979
  54.0897642  79.9126448  68.4513979  54.8247642  80.6546448  66.5383979
  54.9427642  79.8936448  65.7703979  53.4427642  81.3136448  66.3833979
  52.6727642  80.5646448  66.5793979  53.3367642  82.1046448  67.1283979
  53.1817642  81.9156448  64.9873979  52.1307642  82.2036448  64.9383979
  53.7797642  82.8196448  64.8593979  53.5047642  80.9396448  63.8403979
  54.5497642  81.0446448  63.5463979  53.3617642  79.9186448  64.1993979
  52.6087642  81.1136448  62.6883979  51.7457642  80.5726448  62.7203979
  52.7847642  81.7576448  61.5553979  53.8567642  82.4526448  61.2993979
  54.5417642  82.5316448  62.0253979  53.9227642  82.9476448  60.4343979
  51.8567642  81.7036448  60.6483979  50.9517642  81.3506448  60.9643979
  51.9127642  82.1936448  59.7813979  55.9517642  81.6716448  66.3303979
  56.4147642  81.8536448  65.2123979  56.4247642  82.3476448  67.4293979
  55.9337642  82.1876448  68.3073979  57.6047642  83.2136448  67.3883979
  57.5627642  83.8006448  66.4703979  57.5547642  84.1866448  68.5773979
  56.6467642  84.7866448  68.4943979  57.4987642  83.6166448  69.5063979
  58.7687642  85.1316448  68.6583979  58.5727642  85.8996448  69.4053979
  59.6397642  84.5636448  68.9853979  59.0887642  85.8216448  67.3353979
  58.2207642  86.3736448  66.6823979  60.3717642  85.7916448  66.9013979
  60.5797642  86.1986448  65.9923979  61.0937642  85.3816448  67.4893979
  58.9157642  82.4086448  67.3463979  59.7787642  82.6656448  66.5253979
  59.0767642  81.3646448  68.2273979  58.3157642  81.1696448  68.8803979
  60.3187642  80.5766448  68.3023979  61.1547642  81.2586448  68.4543979
  60.2587642  79.6256448  69.5083979  59.2947642  79.1126448  69.5233979
  61.3567642  78.5616448  69.4933979  62.3457642  79.0206448  69.4243979
  61.3247642  77.9546448  70.4053979  61.2327642  77.8916448  68.6363979
  60.4107642  80.4636448  70.7823979  59.5687642  81.1546448  70.9043979
  60.4527642  79.8246448  71.6703979  61.3287642  81.0616448  70.7463979
  60.6047642  79.8496448  66.9883979  61.7047642  79.9236448  66.4683979
  59.5457642  79.2196448  66.3783979  58.6587642  79.2536448  66.8783979
  59.5897642  78.4986448  65.1033979  60.4647642  77.8486448  65.1293979
  58.3367642  77.5946448  65.0033979  58.0787642  77.2506448  66.0053979
  57.1127642  78.3036448  64.4213979  57.2777642  78.5456448  63.3733979
  56.2237642  77.6686448  64.4843979  56.9127642  79.2306448  64.9613979
  58.6067642  76.3336448  64.1933979  59.4147642  75.7646448  64.6633979
  57.7177642  75.6916448  64.1603979  58.9047642  76.5766448  63.1663979
  59.7777642  79.4316448  63.8933979  59.9307642  78.9616448  62.7833979
  59.7917642  80.8036448  64.0873979  59.6567642  81.1356448  65.0363979
  59.9627642  81.7866448  63.0073979  60.0647642  81.2496448  62.0643979
  58.7117642  82.6556448  62.8713979  58.7997642  83.2186448  61.9453979
  57.8397642  82.0056448  62.8183979  58.5177642  83.5806448  63.9163979
  57.7217642  83.2996448  64.4193979  61.2107642  82.6616448  63.1143979
  61.7107642  83.0976448  62.0883979  61.7807642  82.8966448  64.3493979
  61.2547642  82.5676448  65.1553979  62.8547642  83.8786448  64.5373979
  63.5657642  83.7906448  63.7173979  62.4207642  84.8756448  64.4933979
  63.6737642  83.7886448  65.8233979  64.6047642  84.5546448  65.9543979
  63.3847642  82.8076448  66.7523979  62.6157642  82.1816448  66.5483979
  64.2237642  82.5336448  67.9293979  65.2207642  82.9456448  67.7463979
  63.6387642  83.2686448  69.1503979  62.5987642  82.9886448  69.3023979
  64.2047642  82.9926448  70.0403979  63.7417642  84.7676448  69.0063979
  62.7777642  85.4436448  68.6943979  64.9597642  85.3006448  69.2483979
  65.0757642  86.3006448  69.1093979  65.7547642  84.6526448  69.3473979
  64.4627642  81.0286448  68.1873979  64.2577642  80.5706448  69.3013979
  64.8667642  80.1866448  67.1523979  65.0987642  80.5906448  65.7613979
  65.7097642  81.5006448  65.6933979  64.1267642  80.7486448  65.2733979
  65.7957642  79.3906448  65.1183979  66.8787642  79.4726448  65.2733979
  65.5977642  79.3256448  64.0403979  65.2477642  78.1766448  65.8863979
  65.9437642  77.3286448  65.8863979  64.2987642  77.8536448  65.4363979
  64.9747642  78.7296448  67.2943979  64.0027642  78.3576448  67.6183979
  65.9977642  78.2476448  68.3413979  65.9237642  77.1086448  68.7653979
  66.9307642  79.1166448  68.8643979  67.0347642  80.0366448  68.4233979
  67.7037642  78.8346448  70.0833979  68.3307642  77.9656448  69.8973979
  68.6217642  80.0276448  70.4233979  69.1297642  79.7806448  71.3573979
  69.3997642  80.1206448  69.6653979  67.9237642  81.3906448  70.6323979
  67.0157642  81.2526448  71.2173979  68.5977642  82.0026448  71.2283979
  67.5767642  82.1826448  69.3603979  67.8347642  81.6746448  68.2443979
  67.0137642  83.2936448  69.5053979  66.8297642  78.4666448  71.2993979
  67.2257642  77.6506448  72.1143979  65.5787642  79.0336448  71.4043979
  65.2987642  79.6676448  70.6583979  64.6907642  78.8726448  72.5523979
  65.2837642  78.9736448  73.4603979  63.6777642  80.0156448  72.4953979
  63.0497642  79.9086448  71.6063979  63.0327642  80.0136448  73.3823979
  64.1887642  80.9846448  72.4343979  63.9857642  77.5026448  72.6123979
  63.3087642  77.1966448  73.5833979  64.1337642  76.6456448  71.5383979
  64.7217642  76.9786448  70.7783979  63.4547642  75.3566448  71.4073979
  62.3797642  75.5316448  71.4243979  63.8387642  74.7146448  70.0583979
  64.9257642  74.7326448  69.9653979  63.5257642  73.6706448  70.0543979
  63.2117642  75.4206448  68.8393979  63.3697642  76.4936448  68.9163979
  63.8367642  74.9286448  67.5333979  63.6777642  73.8516448  67.3963979
  63.4097642  75.4656448  66.6783979  64.9177642  75.1146448  67.5353979
  61.7087642  75.1536448  68.7443979  61.1767642  75.5636448  69.6093979
  61.2917642  75.6176448  67.8433979  61.5167642  74.0796448  68.6993979
  63.7387642  74.4026448  72.5743979  62.8267642  73.7206448  72.9953979
  64.9897642  74.3636448  73.1533979  65.7037642  74.9686448  72.7653979
  65.3177642  73.4546448  74.2553979  65.0927642  72.4416448  73.9173979
  66.8237642  73.4966448  74.5273979  67.1557642  74.4906448  74.8363979
  67.0837642  72.7886448  75.3223979  67.3907642  73.2216448  73.6293979
  64.4427642  73.6726448  75.5163979  63.6817642  72.7796448  75.8563979
  64.4497642  74.8826448  76.2173979  65.3107642  76.0456448  75.9663979
  65.3387642  76.3206448  74.9063979  66.3237642  75.8256448  76.3243979
  64.7127642  77.1716448  76.8163979  63.9507642  77.7116448  76.2383979
  65.4737642  77.8906448  77.1463979  64.0457642  76.4506448  77.9973979
  63.2057642  77.0206448  78.4143979  64.7797642  76.2766448  78.7943979
  63.6017642  75.1106448  77.3913979  63.7647642  74.3156448  78.1193979
  62.1087642  75.1316448  77.0553979  61.3127642  74.7926448  77.9143979
  61.7087642  75.5286448  75.7923979  62.4287642  75.8146448  75.1343979
  60.3067642  75.5636448  75.3803979  59.7377642  76.0366448  76.1823979
  60.1627642  76.4286448  74.1123979  60.5367642  77.4296448  74.3303979
  60.7837642  76.0016448  73.3223979  58.7207642  76.5396448  73.5833979
  58.3997642  75.5626448  73.2323979  57.7427642  77.0616448  74.6403979
  58.0997642  78.0016448  75.0763979  56.7537642  77.2396448  74.2023979
  57.6107642  76.3296448  75.4473979  58.6537642  77.5036448  72.4023979
  59.3067642  77.1636448  71.5903979  57.6297642  77.5626448  72.0173979
  58.9587642  78.5096448  72.7113979  59.7337642  74.1516448  75.2003979
  58.7157642  73.8326448  75.7833979  60.4097642  73.2716448  74.3833979
  61.2797642  73.5996448  73.9683979  59.9437642  71.9216448  74.0613979
  58.8717642  71.9646448  73.8753979  60.6257642  71.3956448  72.7903979
  61.6987642  71.3546448  72.9753979  60.2837642  70.3726448  72.6223979
  60.3747642  72.2006448  71.5023979  60.7027642  73.2316448  71.6283979
  61.1967642  71.5506448  70.3883979  60.9287642  70.4936448  70.2723979
  61.0297642  72.0506448  69.4313979  62.2657642  71.6096448  70.6283979
  58.9077642  72.2186448  71.0673979  58.2767642  72.6746448  71.8383979
  58.7917642  72.8146448  70.1523979  58.5417642  71.2046448  70.8683979
  60.1357642  70.9176448  75.2023979  59.3417642  70.0026448  75.2893979
  61.1577642  71.0776448  76.1183979  61.8447642  71.8106448  75.9493979
  61.2127642  70.3026448  77.3723979  61.1327642  69.2356448  77.1623979
  62.5357642  70.5566448  78.1213979  62.7547642  71.6246448  78.0923979
  62.4177642  70.2916448  79.1723979  63.7337642  69.7806448  77.5353979
  63.7377642  69.8996448  76.4513979  64.6497642  70.2286448  77.9183979
  63.7567642  68.2836448  77.8863979  64.5017642  67.5056448  77.2543979
  63.0027642  67.8316448  78.7733979  60.0137642  70.6606448  78.2593979
  59.2557642  69.8046448  78.6743979  59.7627642  71.9956448  78.4983979
  60.4127642  72.6776448  78.1193979  58.6347642  72.4396448  79.3093979
  58.6847642  71.9206448  80.2683979  58.7967642  73.9426448  79.5483979
  59.7807642  74.1496448  79.9633979  58.6977642  74.4726448  78.6003979
  57.7587642  74.4716448  80.5043979  56.8747642  75.1976448  80.1143979
  57.8097642  74.0886448  81.8013979  57.1817642  74.5846448  82.4273979
  58.5587642  73.5026448  82.1263979  57.2607642  72.0946448  78.6953979
  56.3327642  71.8276448  79.4343979  57.1127642  72.0866448  77.3233979
  57.9047642  72.4326448  76.7853979  55.8987642  71.6526448  76.6133979
  55.0337642  72.0476448  77.1503979  55.8737642  72.2546448  75.1813979
  56.8997642  72.2956448  74.8223979  55.0867642  71.4446448  74.1313979
  54.0117642  71.4696448  74.3283979  55.2417642  71.8566448  73.1273979
  55.4207642  70.4026448  74.0903979  55.3177642  73.6986448  75.2453979
  54.2507642  73.6746448  75.4703979  55.8167642  74.2456448  76.0463979
  55.5207642  74.4866448  73.9473979  54.9527642  74.0536448  73.1213979
  55.1837642  75.5236448  74.0703979  56.5787642  74.4886448  73.6733979
  55.7517642  70.1226448  76.6573979  54.6927642  69.6446448  77.0213979
  56.8117642  69.2956448  76.3413979  57.7057642  69.7176448  76.0933979
  56.6997642  67.8246448  76.3823979  55.8337642  67.5396448  75.7863979
  57.9197642  67.1426448  75.7513979  57.7087642  66.0796448  75.6503979
  58.0907642  67.5596448  74.7573979  59.0837642  67.2766448  76.5363979
  59.8367642  67.4596448  75.9473979  56.4497642  67.2936448  77.7993979
  55.7417642  66.3146448  77.9633979  56.9387642  68.0176448  78.8673979
  57.6327642  68.7356448  78.6543979  56.6017642  67.7466448  80.2633979
  56.8147642  66.6986448  80.4763979  57.5027642  68.6206448  81.1433979
  57.3147642  69.6866448  80.9573979  57.3127642  68.4186448  82.2053979
  58.5617642  68.4146448  80.9403979  55.1167642  68.0086448  80.5953979
  54.5787642  67.3966448  81.5043979  54.4397642  68.9616448  79.8513979
  54.9757642  69.3756448  79.0913979  53.0897642  69.4926448  80.1263979
  52.7747642  69.1686448  81.1213979  53.1477642  71.0276448  80.1083979
  53.7157642  71.3596448  79.2373979  52.1377642  71.4286448  80.0253979
  53.7817642  71.5706448  81.3993979  53.2767642  71.1266448  82.2583979
  54.8357642  71.2946448  81.4483979  53.6387642  73.0916448  81.5013979
  52.5777642  73.3436448  81.5453979  54.0987642  73.4166448  82.4353979
  54.2987642  73.7956448  80.3893979  55.3037642  73.7006448  80.3233979
  53.7477642  74.5176448  79.4333979  52.4627642  74.6186448  79.2783979
  51.8377642  74.0966448  79.8523979  52.1127642  75.1226448  78.4573979
  54.5047642  75.1656448  78.6083979  55.4847642  75.2596448  78.8343979
  54.0647642  75.7996448  77.9333979  51.9907642  68.9856448  79.1923979
  50.8217642  69.1546448  79.4973979  52.3567642  68.2986448  78.0603979
  53.3487642  68.3036448  77.8423979  51.4157642  67.6736448  77.1273979
  50.4097642  67.7366448  77.5433979  51.3877642  68.4586448  75.8123979
  52.3927642  68.4686448  75.3673979  50.7337642  67.9446448  75.0963979
  50.8877642  69.8816448  75.9943979  51.8067642  70.9416448  76.0533979
  52.8567642  70.7356448  75.9513979  51.3667642  72.2576448  76.2693979
  52.0737642  73.0716448  76.3043979  49.9887642  72.5106448  76.4353979
  49.5347642  73.7746448  76.6083979  50.2827642  74.4516448  76.7133979
  49.0657642  71.4446448  76.3983979  48.0157642  71.6486448  76.5473979
  49.5147642  70.1296448  76.1783979  48.8077642  69.3116448  76.1763979
  51.7117642  66.1806448  76.9323979  52.2307642  65.7896448  75.9003979
  51.3227642  65.2926448  77.9293979  50.7627642  65.6886448  79.2303979
  49.7137642  65.9896448  79.1063979  51.3317642  66.4956448  79.7013979
  50.8577642  64.4246448  80.0823979  50.0857642  64.3926448  80.8593979
  51.8447642  64.3856448  80.5623979  50.7427642  63.2816448  79.0663979
  49.6877642  63.1386448  78.7933979  51.1527642  62.3366448  79.4433979
  51.5437642  63.8426448  77.8803979  52.6037642  63.6546448  78.0563979
  51.1527642  63.1736448  76.5523979  51.9017642  62.3736448  76.0203979
  49.9807642  63.5626448  75.9293979  49.4147642  64.2666448  76.3863979
  49.5077642  62.9266448  74.6933979  49.7007642  61.8576448  74.7963979
  47.9837642  63.1026448  74.5763979  47.5377642  63.0166448  75.5683979
  47.7607642  64.0976448  74.1923979  47.3427642  62.0356448  73.6673979
  47.8407642  62.0086448  72.7013979  47.4497642  61.0576448  74.1353979
  45.8647642  62.2986448  73.4183979  45.4367642  62.4906448  72.3013979
  45.0197642  62.3436448  74.4753979  44.0607642  62.5846448  74.2653979
  45.3717642  62.0886448  75.3943979  50.2767642  63.3836448  73.4333979
  50.1687642  62.7746448  72.3823979  51.1437642  64.4586448  73.5213979
  51.2667642  64.8856448  74.4383979  51.9847642  64.9176448  72.4093979
  51.3307642  65.1736448  71.5763979  52.7337642  66.1856448  72.8633979
  52.0077642  66.8956448  73.2603979  53.4027642  65.9066448  73.6763979
  53.5677642  66.9036448  71.7873979  54.3067642  66.2186448  71.3803979
  52.7057642  67.4396448  70.6463979  51.9337642  68.1196448  71.0243979
  53.3227642  67.9856448  69.9223979  52.2187642  66.6196448  70.1053979
  54.3087642  68.0796448  72.4283979  54.9877642  67.7406448  73.2193979
  54.9067642  68.6156448  71.6813979  53.6007642  68.7886448  72.8753979
  52.9457642  63.8126448  71.9323979  53.2467642  63.7346448  70.7533979
  53.3937642  62.9026448  72.8763979  53.0717642  63.0516448  73.8303979
  54.2567642  61.7436448  72.5943979  55.1557642  62.0876448  72.0893979
  54.6487642  61.0786448  73.9243979  54.8797642  61.8536448  74.6583979
  53.7927642  60.5146448  74.2993979  55.8867642  60.1666448  73.8033979
  56.1137642  59.9436448  72.7603979  56.7417642  60.7016448  74.2153979
  55.7227642  58.8506448  74.5753979  56.7087642  58.4466448  74.8043979
  55.2217642  59.0526448  75.5253979  54.9357642  57.8656448  73.8073979
  53.9197642  57.8866448  73.9293979  55.3647642  56.8946448  73.0233979
  56.6347642  56.6576448  72.8413979  57.2947642  57.2416448  73.3143979
  56.9057642  55.9056448  72.2393979  54.5117642  56.1406448  72.4023979
  53.5227642  56.4076448  72.4413979  54.7567642  55.3316448  71.8583979
  53.6057642  60.7276448  71.6563979  54.3047642  60.0946448  70.8903979
  52.2377642  60.5956448  71.6963979  51.7447642  61.1726448  72.3663979
  51.4707642  59.7706448  70.7563979  52.0707642  58.9116448  70.4503979
  50.1757642  59.2596448  71.4153979  49.4797642  60.0926448  71.5343979
  49.7137642  58.5416448  70.7353979  50.3457642  58.5906448  72.7883979
  50.4307642  59.3796448  73.5393979  49.4437642  58.0196448  73.0143979
  51.5677642  57.6726448  72.9023979  52.1867642  57.6296448  73.9873979
  51.9337642  56.9786448  71.9283979  51.1267642  60.5406448  69.4793979
  51.2667642  60.0146448  68.3883979  50.7017642  61.8496448  69.6153979
  50.6317642  62.2106448  70.5653979  50.2247642  62.6636448  68.4943979
  49.3467642  62.1846448  68.0603979  49.8217642  64.0536448  69.0113979
  49.0837642  63.9486448  69.8153979  50.6957642  64.5596448  69.4413979
  49.2487642  64.9206448  67.9253979  49.9957642  65.7116448  67.0543979
  49.1307642  66.1546448  66.1323979  49.4077642  66.7486448  65.2733979
  47.8897642  65.7066448  66.3933979  47.0797642  65.8606448  65.8103979
  47.9467642  64.9166448  67.5193979  47.1447642  64.3396448  67.9573979
  51.2697642  62.7606448  67.3793979  50.9767642  62.5386448  66.2153979
  52.5647642  63.0116448  67.7703979  52.7207642  63.1626448  68.7643979
  53.6697642  63.1846448  66.8293979  53.3567642  63.9006448  66.0723979
  54.8837642  63.7636448  67.5883979  55.0557642  63.1416448  68.4703979
  56.1797642  63.7366448  66.7663979  56.0467642  64.2286448  65.7943979
  56.9877642  64.2416448  67.3093979  56.5017642  62.7046448  66.5793979
  54.5917642  65.2026448  68.0753979  53.6697642  65.2086448  68.6543979
  55.3877642  65.5016448  68.7533979  54.4567642  66.2656448  66.9723979
  53.6717642  66.0046448  66.2533979  54.1847642  67.2316448  67.4123979
  55.4007642  66.3966448  66.4293979  53.9947642  61.8996448  66.0593979
  54.4047642  61.9936448  64.9183979  53.7737642  60.6666448  66.6413979
  53.3367642  60.6546448  67.5573979  54.1227642  59.3926448  65.9893979
  55.1627642  59.4386448  65.6623979  53.9737642  58.2176448  66.9733979
  52.9267642  58.1376448  67.2703979  54.2507642  57.2886448  66.4713979
  54.8307642  58.3616448  68.2323979  54.7347642  59.3806448  68.6013979
  54.4327642  57.6976448  69.0013979  56.5927642  57.9866448  68.0163979
  57.2227642  58.9106448  69.4383979  56.7387642  58.5666448  70.3613979
  58.3077642  58.7736448  69.5243979  57.0077642  59.9786448  69.3093979
  53.2697642  59.0976448  64.7483979  53.6987642  58.3506448  63.8893979
  52.0237642  59.6846448  64.6503979  51.7457642  60.2706448  65.4303979
  51.0197642  59.2616448  63.6713979  51.5177642  58.7276448  62.8603979
  50.0997642  58.2626448  64.3843979  49.5907642  58.7406448  65.2313979
  49.3417642  57.8696448  63.6943979  50.6817642  57.4146448  64.7683979
  50.2377642  60.4116448  63.0033979  49.6567642  60.2136448  61.9473979
  50.2467642  61.6636448  63.5863979  50.7307642  61.7566448  64.4773979
  49.4577642  62.8126448  63.1273979  49.1167642  62.6156448  62.1113979
  48.2067642  62.9266448  64.0273979  48.5257642  63.1556448  65.0443979
  47.5777642  63.7426448  63.6763979  47.3757642  61.6556448  64.0723979
  47.6177642  60.7566448  64.8483979  46.3387642  61.5356448  63.2103979
  45.8367642  60.6486448  63.2253979  46.1317642  62.2786448  62.5653979
  50.2597642  64.1406448  63.0363979  49.6937642  65.1966448  63.2973979
  51.6067642  64.1486448  62.6553979  52.3217642  63.0456448  61.9973979
  51.6757642  62.5156448  61.2913979  52.7027642  62.3506448  62.7563979
  53.4957642  63.7196448  61.2803979  53.1697642  64.0906448  60.2993979
  54.3417642  63.0426448  61.1193979  53.8357642  64.9046448  62.1983979
  54.3797642  65.7046448  61.6823979  54.4407642  64.5556448  63.0453979
  52.4487642  65.3516448  62.6913979  52.5287642  65.7166448  63.7163979
  51.8987642  66.4856448  61.8123979  52.0467642  67.6486448  62.1453979
  51.1977642  66.1476448  60.6753979  50.9977642  65.1546448  60.5303979
  50.6337642  67.1046448  59.7233979  51.4457642  67.7436448  59.3763979
  50.0897642  66.3386448  58.4973979  49.9487642  67.0666448  57.7023979
  50.8497642  65.6406448  58.1473979  48.7437642  65.6036448  58.6163979
  48.0167642  66.2316448  59.1323979  48.3747642  65.4716448  57.5953979
  48.7967642  64.2096448  59.2593979  49.7367642  63.8816448  60.0173979
  47.9017642  63.3896448  58.9483979  49.5887642  68.0386448  60.3623979
  49.4527642  69.1806448  59.9563979  48.8807642  67.5716448  61.4543979
  49.1107642  66.6316448  61.7743979  47.9067642  68.3796448  62.2043979
  47.2637642  68.8966448  61.4903979  47.0157642  67.4786448  63.0853979
  47.6517642  66.8756448  63.7293979  46.0547642  68.2646448  63.9873979
  45.3947642  68.9046448  63.3873979  45.4297642  67.5816448  64.5763979
  46.6027642  68.9006448  64.6933979  46.1667642  66.5326448  62.2263979
  46.8007642  65.8606448  61.6333979  45.5187642  65.9086448  62.8533979
  45.5307642  67.0996448  61.5343979  48.6117642  69.4586448  63.0323979
  48.1857642  70.5986448  63.0413979  49.7617642  69.1066448  63.7123979
  50.1097642  68.1676448  63.5563979  50.5677642  70.0446448  64.5043979
  49.9307642  70.5346448  65.2423979  51.6587642  69.2486448  65.2403979
  51.1817642  68.4496448  65.8223979  52.2997642  68.7436448  64.5073979
  52.5457642  70.0666448  66.1703979  52.2607642  70.1156448  67.5483979
  51.4097642  69.5786448  67.9423979  53.0797642  70.8616448  68.4143979
  52.8517642  70.9046448  69.4703979  54.1947642  71.5526448  67.9073979
  54.8227642  72.1286448  68.5723979  54.4917642  71.4936448  66.5343979
  55.3537642  72.0176448  66.1453979  53.6647642  70.7576448  65.6673979
  53.8877642  70.7296448  64.6103979  51.1757642  71.1416448  63.6173979
  51.1207642  72.3156448  63.9433979  51.7147642  70.7396448  62.4103979
  51.7447642  69.7356448  62.2413979  52.2137642  71.6646448  61.3803979
  53.0337642  72.2476448  61.8003979  52.7547642  70.8726448  60.1693979
  51.9667642  70.2246448  59.7873979  53.2417642  71.7726448  59.0303979
  54.0377642  72.4406448  59.3743979  53.6417642  71.1676448  58.2063979
  52.4267642  72.3816448  58.6233979  53.9527642  70.0016448  60.5693979
  53.7007642  69.3156448  61.3833979  54.2927642  69.3966448  59.7203979
  54.7837642  70.6296448  60.9043979  51.1167642  72.6586448  60.9783979
  51.3317642  73.8566448  61.0273979  49.8727642  72.1556448  60.6533979
  49.7757642  71.1426448  60.6313979  48.7207642  72.9856448  60.2723979
  49.0167642  73.6056448  59.4253979  47.5937642  72.0596448  59.7933979
  47.9957642  71.3966448  59.0263979  47.2517642  71.4526448  60.6313979
  46.4877642  72.7516448  59.2403979  45.7177642  72.1286448  59.2463979
  48.2727642  73.9506448  61.3883979  47.9897642  75.0976448  61.0983979
  48.3187642  73.5486448  62.7163979  48.5497642  72.5746448  62.8983979
  48.0377642  74.4606448  63.8433979  47.0187642  74.8366448  63.7443979
  48.1597642  73.7426448  65.2003979  49.1077642  73.2096448  65.2543979
  48.1587642  74.4956448  65.9903979  47.0197642  72.7676448  65.4993979
  46.0757642  73.3116448  65.4533979  47.0017642  71.9836448  64.7443979
  47.1727642  71.9996448  67.1383979  45.6057642  71.0956448  67.2183979
  45.5777642  70.3256448  66.4393979  45.5037642  70.6176448  68.2003979
  44.7617642  71.7826448  67.0743979  48.9627642  75.6896448  63.8483979
  48.4927642  76.8106448  63.9483979  50.3237642  75.4946448  63.7003979
  50.6507642  74.5316448  63.6403979  51.2757642  76.6116448  63.6283979
  51.1107642  77.2616448  64.4883979  52.7257642  76.0906448  63.6613979
  52.8767642  75.4316448  62.8043979  53.3957642  76.9446448  63.5443979
  53.1177642  75.3366448  64.9453979  52.4827642  74.4606448  65.0653979
  54.5707642  74.8726448  64.8513979  55.2507642  75.7226448  64.7523979
  54.8507642  74.3156448  65.7523979  54.7077642  74.2116448  63.9893979
  53.0017642  76.2176448  66.1913979  51.9617642  76.5166448  66.3633979
  53.3257642  75.6616448  67.0783979  53.6157642  77.1206448  66.0983979
  51.0607642  77.4886448  62.3863979  51.2427642  78.6926448  62.4593979
  50.6687642  76.8776448  61.2153979  50.5747642  75.8646448  61.2403979
  50.4117642  77.5976448  59.9623979  51.1547642  78.3876448  59.8673979
  50.5787642  76.6246448  58.7813979  49.8917642  75.7886448  58.9183979
  50.2897642  77.1456448  57.8673979  52.0077642  76.0696448  58.5983979
  52.2797642  75.4456448  59.4423979  52.0607642  75.2176448  57.3313979
  51.7917642  75.8096448  56.4503979  53.0677642  74.8146448  57.1773979
  51.3677642  74.3706448  57.4083979  53.0727642  77.1616448  58.4803979
  53.1627642  77.7236448  59.4163979  54.0517642  76.7106448  58.2793979
  52.8227642  77.8556448  57.6713979  49.0577642  78.3326448  59.9253979
  48.8927642  79.2486448  59.1363979  48.0767642  77.9526448  60.8113979
  48.2297642  77.0756448  61.3053979  46.8357642  78.6926448  61.0653979
  46.4997642  79.1536448  60.1363979  45.7657642  77.6846448  61.5193979
  45.7607642  76.8316448  60.8393979  46.0357642  77.3246448  62.5133979
  44.3457642  78.2636448  61.5613979  44.3667642  79.3066448  61.8783979
  43.9217642  78.2346448  60.5543979  43.4617642  77.4676448  62.5233979
  43.0417642  78.0226448  63.5673979  43.1367642  76.2916448  62.2273979
  47.0317642  79.8276448  62.0933979  46.4257642  80.8786448  61.9713979
  47.9367642  79.6316448  63.1203979  48.3417642  78.7016448  63.1923979
  48.3357642  80.6546448  64.0913979  47.4277642  81.0516448  64.5463979
  49.1697642  79.9866448  65.1913979  50.0847642  79.5486448  64.7743979
  49.4537642  80.7126448  65.9633979  48.5927642  79.1856448  65.6693979
  49.0797642  81.8436448  63.4423979  49.7507642  81.6846448  62.4313979
  48.9687642  83.0746448  64.0753979  48.4877642  83.0796448  64.9663979
  49.3507642  84.4026448  63.5363979  50.2017642  84.3016448  62.8673979
  48.1707642  85.0256448  62.7583979  47.2987642  85.0646448  63.4143979
  48.4637642  86.4506448  62.2693979  49.3577642  86.4686448  61.6353979
  47.6167642  86.8426448  61.6933979  48.6237642  87.1306448  63.1153979
  47.8047642  84.2046448  61.5163979  47.4367642  83.2146448  61.7983979
  47.0047642  84.6916448  60.9453979  48.6747642  84.0746448  60.8613979
  49.7917642  85.3486448  64.6483979  50.8787642  85.9516448  64.5083979
 108.2017642  53.6536448  55.4503979 107.6127642  54.1786448  56.0563979
 108.3947642  55.0276448  56.8863979 109.1537642  55.5436448  56.2973979
 108.8987642  54.4276448  57.6433979 107.5507642  56.0866448  57.6033979
 108.2277642  56.7486448  58.1553979 106.7797642  56.8476448  56.6493979
 105.3757642  56.6826448  56.9163979 105.0317642  57.5336448  57.5233979
 104.5407642  56.5806448  55.7353979 104.4547642  55.5796448  54.7993979
 105.0767642  54.6926448  54.8393979 103.5867642  55.8136448  53.8523979
 103.0687642  57.0726448  54.1863979 102.1137642  57.9236448  53.5333979
 101.5497642  57.7626448  52.4653979 101.8607642  59.0906448  54.2283979
 101.2017642  59.7306448  53.8163979 102.4867642  59.4386448  55.3763979
 102.1857642  60.5626448  55.9513979 101.4647642  61.1526448  55.5533979
 102.6387642  60.7766448  56.8203979 103.4397642  58.7256448  55.9773979
 103.6587642  57.5416448  55.3373979 106.5337642  55.5026448  58.5883979
 106.8447642  54.5236448  58.9613979 105.2587642  55.4106448  57.7683979
 105.2557642  54.4966448  57.1643979 104.3667642  55.4096448  58.4013979
 106.4047642  56.4336448  59.6393979 105.7247642  56.0296448  61.0293979
 106.7027642  56.3196448  62.1023979 105.2977642  54.6256448  61.1883979
 104.5297642  57.0806448  60.9823979 104.8267642  58.4556448  61.1273979
 105.5767642  58.7446448  60.3973979 105.2117642  58.6436448  62.1293979
 103.6027642  59.3136448  60.8793979 103.8747642  60.3666448  60.9873979
 103.1537642  59.0836448  59.5403979 101.7367642  58.9306448  59.5243979
 101.2917642  59.9216448  59.3473979 101.2627642  57.9686448  58.5283979
 101.8887642  56.7676448  58.4653979 102.6757642  56.5326448  59.1893979
 101.4887642  55.8926448  57.4433979 101.9617642  54.9306448  57.3443979
 100.5017642  56.3166448  56.5683979 100.1697642  55.6026448  55.5363979
  99.4857642  56.0006448  54.8963979 100.5997642  54.7226448  55.3623979
  99.9227642  57.5086448  56.6633979 100.2597642  58.3966448  57.6673979
  99.7127642  59.4806448  57.7403979 102.4627642  58.9806448  61.8423979
 102.7677642  58.1946448  62.5383979 101.3457642  58.4686448  60.9383979
 101.2837642  57.3776448  61.0163979 100.3727642  58.8866448  61.2163979
 102.1137642  60.1566448  62.5393979 101.2877642  60.0926448  63.9023979
 101.4367642  61.3116448  64.7303979 101.4897642  58.9406448  64.8033979
  99.7857642  60.1096448  63.3853979  99.2287642  61.2976448  62.8553979
  99.9007642  61.7176448  62.1043979  99.0857642  62.0256448  63.6543979
  97.8897642  61.0016448  62.1963979  97.3827642  61.9476448  61.9673979
  98.1227642  60.2616448  60.9853979  97.1967642  59.1726448  60.9643979
  96.2237642  59.5736448  60.6353979  97.5167642  58.0496448  60.1033979
  98.2707642  56.9276448  60.3363979  98.8557642  56.7986448  61.2373979
  98.1967642  56.0286448  59.3893979  97.3397642  56.6216448  58.4423979
  96.8167642  56.1676448  57.1793979  97.0027642  55.1056448  56.6043979
  95.9797642  57.0876448  56.5743979  95.5707642  56.8416448  55.6883979
  95.6597642  58.2906448  57.1053979  94.8427642  59.0746448  56.4683979
  94.4087642  58.7876448  55.5933979  94.6227642  59.9486448  56.8973979
  96.1017642  58.7456448  58.2743979  96.9427642  57.8646448  58.8813979
  96.9687642  60.1296448  63.0663979  97.2637642  60.1196448  64.1173979
  97.0857642  58.7526448  62.4393979  97.9767642  58.2296448  62.8003979
  96.1937642  58.1476448  62.6413979  95.6297642  60.5086448  62.8853979
  94.7267642  60.9756448  64.1083979  95.3037642  62.1496448  64.8113979
  94.4947642  59.8746448  65.0683979  93.4477642  61.3496448  63.2033979
  93.5397642  62.3296448  62.1673979  94.5817642  62.4916448  61.8903979
  93.1407642  63.2776448  62.5273979  92.7917642  61.9206448  60.8913979
  92.7867642  62.7756448  60.2033979  93.4587642  60.8216448  60.2483979
  92.5087642  59.8306448  59.8263979  92.1397642  60.0856448  58.8193979
  93.0167642  58.4506448  59.8403979  93.7937642  58.0856448  60.8923979
  93.9947642  58.8056448  61.6933979  94.3157642  56.7826448  60.8813979
  94.9387642  56.4456448  61.6893979  94.0407642  55.9736448  59.7923979
  94.5897642  54.8006448  59.6783979  94.3837642  54.2756448  58.8353979
  95.1787642  54.4446448  60.4003979  93.2747642  56.3646448  58.7823979
  92.7027642  57.6256448  58.7543979  91.9827642  57.9416448  57.8273979
  91.3397642  61.4916448  61.1313979  91.0687642  61.6556448  62.1743979
  91.3517642  59.9926448  60.8273979  91.5427642  59.4346448  61.7523979
  90.4027642  59.6496448  60.3983979  90.4967642  62.2376448  60.2673979
  88.9327642  62.4076448  60.5683979  88.3627642  63.6716448  60.0523979
  88.6977642  62.3936448  62.0383979  88.3567642  61.1196448  59.8363979
  88.2207642  61.1126448  58.4243979  89.1877642  61.2916448  57.9523979
  87.5267642  61.9006448  58.1253979  87.6747642  59.7746448  57.9433979
  87.3767642  59.8586448  56.8923979  88.6667642  58.7456448  58.0883979
  88.0407642  57.5876448  58.6453979  87.4687642  57.0836448  57.8523979
  88.9587642  56.6386448  59.2873979  89.5077642  56.8266448  60.5383979
  89.2597642  57.7026448  61.1113979  90.3657642  55.9156448  61.0593979
  90.9127642  56.1616448  62.4523979  90.0927642  56.2036448  63.1803979
  91.5857642  55.3496448  62.7523979  91.4787642  57.0996448  62.4863979
  90.7457642  54.7316448  60.2913979  91.5257642  53.8666448  60.6453979
  90.1637642  54.6426448  59.0473979  90.3847642  53.8266448  58.4993979
  89.2667642  55.5216448  58.4913979  88.8087642  55.2746448  57.3863979
  86.4677642  59.3376448  58.7813979  86.0857642  60.1496448  59.4033979
  87.0297642  58.2116448  59.6293979  87.4957642  58.6326448  60.5213979
  86.2477642  57.5176448  59.9403979  85.4647642  58.7996448  57.9703979
  83.9637642  59.3076448  58.1053979  83.6867642  60.5706448  57.3773979
  83.3757642  59.3646448  59.4643979  83.3097642  58.0896448  57.3413979
  83.5517642  57.8936448  55.9633979  84.4947642  58.3416448  55.6553979
  82.7327642  58.3276448  55.3893979  83.6497642  56.4076448  55.6863979
  83.5967642  56.2386448  54.6003979  84.8327642  55.8086448  56.2403979
  84.4607642  54.6656448  57.0353979  84.3727642  53.7736448  56.3873979
  85.3487642  54.3686448  58.1183979  85.5347642  55.0586448  59.2793979
  84.9797642  55.9606448  59.4903979  86.4327642  54.5436448  60.0703979
  86.8257642  53.3856448  59.3773979  87.7577642  52.3466448  59.6973979
  88.4817642  52.2506448  60.6723979  87.7977642  51.3366448  58.7563979
  88.4047642  50.5556448  58.9393979  87.0617642  51.3196448  57.6203979
  87.1647642  50.3036448  56.8173979  87.7397642  49.5016448  57.0623979
  86.5867642  50.3086448  56.0023979  86.2097642  52.2786448  57.2603979
  86.1417642  53.2706448  58.1903979  82.5237642  55.6666448  56.3723979
  81.6477642  56.2896448  56.5613979  83.0767642  55.0066448  57.6053979
  83.0867642  55.6986448  58.4513979  82.5047642  54.1086448  57.8683979
  82.3067642  54.6286448  55.5143979  80.8757642  54.1366448  55.2893979
  80.8577642  54.4216448  53.8443979  79.7757642  54.7426448  56.0973979
  81.0757642  52.5966448  55.5673979  81.6877642  51.8046448  54.5653979
  82.5447642  52.3256448  54.1393979  80.9557642  51.6046448  53.7813979
  82.1567642  50.4856448  55.1413979  82.5417642  49.8406448  54.3423979
  83.1577642  50.6946448  56.1483979  82.8327642  49.9166448  57.3013979
  83.2407642  48.9006448  57.1803979  83.2987642  50.4656448  58.5573979
  82.9027642  51.6026448  59.2213979  82.1237642  52.2476448  58.8443979
  83.5377642  51.8276448  60.3403979  84.4257642  50.7396448  60.3913979
  85.4397642  50.3216448  61.2703979  85.8287642  51.0006448  62.3283979
  86.6637642  50.6716448  62.7873979  85.4467642  51.9216448  62.4453979
  86.1347642  49.1966448  61.0493979  85.8417642  48.4716448  59.9773979
  86.4137642  47.5636448  59.8293979  84.9217642  48.7366448  59.0653979
  84.2647642  49.8976448  59.3283979  80.9677642  49.8216448  55.8143979
  80.0617642  50.4116448  55.6603979  81.3057642  49.8526448  57.3023979
  80.8477642  50.7376448  57.7553979  80.9477642  48.9786448  57.8483979
  80.7547642  48.5446448  55.2763979  79.4587642  47.7786448  55.7683979
  78.8687642  46.7766448  54.8653979  78.4207642  48.7486448  56.1683979
  80.2447642  46.8716448  56.8283979  80.9987642  45.7566448  56.3563979
  81.7297642  46.1306448  55.6433979  80.3547642  45.0446448  55.8423979
  81.7837642  45.0106448  57.4183979  82.5157642  44.4096448  56.9023979
  82.4237642  46.0016448  58.2123979  82.6267642  45.5076448  59.5243979
  83.5767642  44.9456448  59.5533979  82.6017642  46.5476448  60.5443979
  81.7317642  47.5706448  60.3533979  81.0887642  47.5736448  59.4703979
  81.7157642  48.5826448  61.3203979  81.0567642  49.4236448  61.2023979
  82.5807642  48.4646448  62.3943979  82.6557642  49.3886448  63.2993979
  83.3397642  49.2346448  64.0303979  82.0897642  50.2026448  63.2253979
  83.4057642  47.4386448  62.5523979  83.4657642  46.4126448  61.6283979
  84.2167642  45.4766448  61.8073979  81.0777642  44.0446448  58.3623979
  80.0227642  44.0856448  58.2023979  81.4427642  44.5606448  59.7463979
  80.5727642  45.0676448  60.1583979  81.7397642  43.7776448  60.4403979
  81.4967642  42.7246448  58.1343979  80.9327642  41.4776448  58.9653979
  81.3687642  40.3176448  58.1973979  79.4697642  41.3326448  59.1593979
  81.7747642  41.4226448  60.3133979  83.1107642  40.9456448  60.2883979
  83.7407642  41.6146448  59.7053979  83.1397642  39.9516448  59.8393979
  83.6687642  40.8306448  61.6923979  84.6817642  40.4136448  61.6473979
  83.6937642  42.1296448  62.3033979  83.0477642  42.0836448  63.5773979
  83.8047642  41.7976448  64.3243979  82.3847642  43.3436448  63.9543979
  81.3137642  43.8936448  63.2713979  80.9047642  43.3666448  62.4203979
  80.7967642  45.0956448  63.6503979  79.6007642  45.6746448  62.9123979
  78.7807642  44.9486448  62.8503979  79.2207642  46.5646448  63.4313979
  79.8777642  46.0036448  61.9103979  81.3727642  45.8206448  64.7793979
  81.0107642  46.9016448  65.2053979  82.4107642  45.1806448  65.4043979
  82.7947642  45.6206448  66.2243979  82.9557642  43.9696448  65.0733979
  83.8487642  43.5326448  65.7733979  82.7787642  39.9226448  62.5463979
  82.0667642  39.3796448  61.9223979  82.0457642  40.9206448  63.4383979
  81.1167642  41.2306448  62.9473979  81.7897642  40.4796448  64.4003979
  83.6077642  39.0056448  63.2323979  83.0177642  37.7826448  64.0863979
  83.6557642  36.4836448  63.7653979  81.5437642  37.6326448  63.9083979
  83.3997642  38.3436448  65.5343979  84.7707642  38.4946448  65.8753979
  85.2727642  39.0876448  65.1083979  85.2457642  37.5136448  65.9173979
  84.9627642  39.2086448  67.2083979  86.0367642  39.3216448  67.4003979
  84.3557642  40.5076448  67.1313979  83.6047642  40.7706448  68.3193979
  84.2887642  41.1806448  69.0793979  82.4577642  41.6696448  68.1363979
  81.6357642  41.4216448  67.0893979  81.8347642  40.5476448  66.4673979
  80.5867642  42.3286448  66.8593979  79.9287642  42.1856448  66.0213979
  80.4717642  43.4186448  67.7123979  79.5607642  44.3276448  67.5303979
  79.5757642  45.1216448  68.1683979  78.9227642  44.2816448  66.7673979
  81.2807642  43.6096448  68.7453979  82.3337642  42.7506448  69.0093979
  83.0647642  42.9606448  69.9573979  84.3217642  38.4796448  68.3953979
  83.9757642  37.4876448  68.0953979  83.1417642  39.3736448  68.7643979
  82.2447642  39.0426448  68.2273979  82.9387642  39.3546448  69.8373979
  85.2727642  38.3866448  69.4413979  85.0297642  37.4416448  70.7093979
  86.3087642  36.8766448  71.2183979  84.1507642  36.2806448  70.4173979
  84.3517642  38.4366448  71.7543979  85.0937642  39.5126448  72.2943979
  85.4567642  40.1476448  71.4843979  85.9457642  39.1266448  72.8513979
  84.2327642  40.3616448  73.2243979  84.8747642  41.1036448  73.7113979
  83.2497642  41.0526448  72.4523979  81.9647642  40.9426448  73.0613979
  81.8207642  41.7846448  73.7563979  80.8827642  40.9396448  72.0913979
  80.5877642  40.0316448  71.1043979  81.1327642  39.1026448  70.9983979
  79.6147642  40.3906448  70.3053979  79.2607642  41.6546448  70.8183979
  78.3337642  42.6676448  70.4823979  77.4857642  42.6436448  69.4743979
  76.9177642  43.4686448  69.3423979  77.4837642  41.8656448  68.8413979
  78.2307642  43.7806448  71.2193979  79.0257642  43.9276448  72.2693979
  78.9257642  44.8376448  72.8403979  79.9427642  43.0796448  72.6973979
  80.0127642  41.9726448  71.9173979  83.4857642  39.5516448  74.2953979
  83.8197642  38.5106448  74.2983979  82.0247642  39.6246448  73.8483979
  81.7947642  38.7616448  73.2113979  81.3267642  39.6306448  74.6943979
  83.7297642  40.1516448  75.5563979  83.2897642  39.4456448  76.9293979
  84.4087642  39.8336448  77.8233979  83.2047642  37.9806448  76.7783979
  81.9207642  40.2046448  77.2253979  81.9337642  41.5456448  77.6823979
  82.5177642  42.1616448  76.9963979  82.3787642  41.5906448  78.6763979
  80.5177642  42.1046448  77.7383979  80.5327642  43.1076448  78.1853979
  80.0107642  42.1786448  76.3973979  78.6497642  41.7636448  76.4353979
  78.0497642  42.5916448  76.8493979  78.0597642  41.3636448  75.1723979
  78.2017642  40.2076448  74.4413979  78.8967642  39.4296448  74.7213979
  77.4097642  40.1226448  73.4023979  76.7317642  41.3576448  73.4453979
  75.7447642  41.9966448  72.6643979  75.1687642  41.4886448  71.5933979
  74.4377642  42.0376448  71.1553979  75.3617642  40.5446448  71.3353979
  75.2987642  43.2156448  72.9883979  75.7827642  43.8146448  74.0643979
  75.3897642  44.7946448  74.2983979  76.6867642  43.3366448  74.8983979
  77.1307642  42.1116448  74.5133979  79.5447642  41.2126448  78.5283979
  80.0707642  40.4456448  79.1023979  78.6817642  40.5996448  77.4343979
  79.1647642  39.7086448  77.0173979  77.6807642  40.3466448  77.7923979
  78.6897642  41.9896448  79.3363979  78.4467642  41.6366448  80.8733979
  79.5707642  41.9136448  81.7863979  77.9197642  40.2566448  81.0243979
  77.2157642  42.6396448  81.0833979  77.4567642  44.0436448  81.0433979
  78.3297642  44.2526448  80.4203979  77.6607642  44.4106448  82.0483979
  76.2867642  44.8096448  80.4303979  76.5137642  45.8816448  80.4223979
  76.1217642  44.3706448  79.0753979  74.7367642  44.1696448  78.7813979
  74.2947642  45.1296448  78.4643979  74.4577642  43.1346448  77.7753979
  75.1807642  41.9886448  77.8383979  75.9477642  41.8756448  78.6063979
  74.9017642  40.9996448  76.8823979  75.4427642  40.0716448  76.9003979
  73.9507642  41.2736448  75.9113979  73.7047642  40.4176448  74.9633979
  73.0347642  40.6956448  74.2473979  74.1797642  39.5446448  74.9223979
  73.2697642  42.4106448  75.8753979  73.4807642  43.4086448  76.8143979
  72.8337642  44.4356448  76.7663979  74.9557642  44.5856448  81.1573979
  75.1107642  44.0156448  82.0753979  74.1507642  43.7716448  80.1483979
  74.2767642  42.7006448  80.3463979  73.0907642  44.0176448  80.2013979
  74.3647642  45.8386448  81.4573979  73.1087642  45.9596448  82.4573979
  73.2627642  47.2236448  83.2213979  73.0137642  44.8266448  83.4123979
  71.8477642  45.9446448  81.4583979  71.5557642  47.0636448  80.6313979
  72.3737642  47.2066448  79.9223979  71.4767642  47.9566448  81.2523979
  70.2507642  46.9186448  79.8313979  70.0487642  47.8746448  79.3313979
  70.4237642  45.9076448  78.8293979  69.3947642  44.9166448  78.9113979
  68.6097642  45.1576448  78.1773979  69.8817642  43.5696448  78.6603979
  70.8017642  42.8356448  79.3663979  71.2057642  43.1796448  80.3073979
  71.1467642  41.7056448  78.8063979  70.3647642  41.7046448  77.6363979
  70.1887642  40.8276448  76.5433979  70.8137642  39.6806448  76.3703979
  70.6287642  39.1506448  75.5243979  71.4927642  39.4006448  77.0483979
  69.2997642  41.1066448  75.5793979  68.5877642  42.2186448  75.6643979
  67.8797642  42.4026448  74.8673979  68.6387642  43.1296448  76.6233979
  69.5677642  42.8156448  77.5663979  69.0137642  46.5296448  80.6593979
  69.2087642  46.6736448  81.7243979  68.8347642  45.0466448  80.3383979
  69.4057642  44.4466448  81.0563979  67.7847642  44.7356448  80.3783979
  67.8997642  47.3096448  80.2503979  66.5417642  47.3676448  81.1023979
  65.7957642  48.6456448  81.0843979  66.5707642  46.8766448  82.4983979
  65.6387642  46.2446448  80.3973979  65.1677642  46.4506448  79.0743979
  65.9957642  46.7696448  78.4383979  64.4127642  47.2376448  79.0783979
  64.5737642  45.1816448  78.4643979  64.1097642  45.4426448  77.5073979
  65.6077642  44.2096448  78.2453979  65.0777642  42.9246448  78.5643979
  64.3697642  42.6416448  77.7693979  66.0687642  41.8556448  78.7443979
  66.8817642  41.7246448  79.8503979  66.8417642  42.4586448  80.6393979
  67.7487642  40.6826448  79.9443979  68.6007642  40.5636448  81.1953979
  67.9697642  40.4246448  82.0813979  69.2737642  39.6996448  81.1233979
  69.2237642  41.4566448  81.3273979  67.8567642  39.7036448  78.8613979
  68.5847642  38.7296448  78.8323979  67.0307642  39.9436448  77.7903979
  67.0917642  39.3056448  77.0093979  66.1137642  40.9556448  77.6653979
  65.3917642  40.9806448  76.6843979  63.5317642  44.4876448  79.3533979
  63.2327642  45.1376448  80.1753979  64.2627642  43.2366448  79.8333979
  64.8977642  43.4716448  80.6943979  63.5647642  42.4356448  80.1043979
  62.4197642  44.0556448  78.5993979  60.9307642  44.2446448  79.1363979
  60.4437642  45.6236448  78.9433979  60.7637642  43.8266448  80.5513979
  60.2117642  43.2146448  78.1273979  60.2157642  43.5056448  76.7263979
  61.0437642  44.1736448  76.4983979  59.2957642  44.0196448  76.4493979
  60.4237642  42.2826448  75.8283979  60.4227642  42.6026448  74.7793979
  61.6947642  41.6856448  76.1483979  61.5547642  40.2666448  76.3063979
  61.6587642  39.7846448  75.3193979  62.4747642  39.6296448  77.2603979
  62.6527642  40.2396448  78.4603979  62.1347642  41.1776448  78.6723979
  63.5097642  39.6126448  79.3793979  63.6747642  40.0526448  80.3463979
  64.1417642  38.4406448  78.9923979  64.9697642  37.8356448  79.7913979
  65.4327642  37.0046448  79.4223979  65.2397642  38.2376448  80.6593979
  63.9247642  37.8636448  77.8203979  63.0817642  38.4266448  76.8783979
  62.8747642  37.8566448  75.8253979  59.3517642  41.2096448  76.0323979
  58.5537642  41.6236448  76.6483979  60.1017642  40.1186448  76.7913979
  60.0147642  40.2836448  77.8703979  59.7077642  39.1276448  76.5663979
  58.8007642  40.7316448  74.8103979  57.4567642  39.8426448  74.8523979
  56.7817642  40.1786448  73.5783979  56.6457642  40.2006448  76.0373979
  58.0947642  38.3776448  74.8123979  58.7327642  37.8846448  73.6393979
  59.6287642  38.4726448  73.4373979  58.0527642  37.9636448  72.7893979
  59.1487642  36.4196448  73.7813979  59.5527642  36.0676448  72.8233979
  60.1757642  36.3126448  74.7753979  59.9717642  35.1266448  75.5503979
  60.3747642  34.2616448  74.9973979  60.5517642  35.1686448  76.9003979
  60.4227642  36.3276448  77.5893979  59.8537642  37.1396448  77.1443979
  61.0577642  36.4146448  78.8373979  60.9947642  37.3226448  79.4093979
  61.7847642  35.3166448  79.2733979  62.4477642  35.3516448  80.3903979
  63.0317642  34.5436448  80.5933979  62.5357642  36.2036448  80.8953979
  61.8707642  34.1846448  78.5853979  61.2577642  34.0496448  77.3493979
  61.3567642  33.0056448  76.7383979  58.0067642  35.4826448  74.2073979
  57.0627642  36.0306448  74.2673979  58.4387642  35.0156448  75.5993979
  58.0077642  35.6776448  76.3603979  58.1217642  33.9886448  75.8043979
  57.8957642  34.4086448  73.2863979  56.5867642  33.4696448  73.2613979
  56.3887642  32.9946448  71.8633979  55.3707642  34.2386448  73.6183979
  56.9637642  32.3036448  74.2973979  57.8747642  31.2776448  73.9333979
  58.8167642  31.7276448  73.6133979  57.4617642  30.7056448  73.1023979
  58.1687642  30.3266448  75.0983979  58.7697642  29.4866448  74.7303979
  58.9197642  31.0406448  76.0913979  58.4267642  30.7056448  77.3863979
  58.8917642  29.7616448  77.7103979  58.6557642  31.7156448  78.4063979
  58.0947642  32.9626448  78.5463979  57.3837642  33.3606448  77.8343979
  58.4837642  33.6186448  79.6083979  59.3787642  32.7126448  80.2033979
  60.1657642  32.7096448  81.3723979  60.2317642  33.7026448  82.2353979
  60.9027642  33.6396448  82.9943979  59.7767642  34.5636448  81.9943979
  60.8967642  31.6396448  81.7193979  60.9157642  30.6036448  80.8933979
  61.5347642  29.7666448  81.1843979  60.2627642  30.4706448  79.7533979
  59.4977642  31.5626448  79.4723979  56.9167642  29.7666448  75.8013979
  56.0137642  30.0026448  75.2353979  56.9227642  30.4816448  77.1503979
  56.3707642  31.4236448  77.0723979  56.4787642  29.8666448  77.9443979
  57.0327642  28.3756448  76.0303979  55.7347642  27.4306448  76.0793979
  55.0897642  27.2186448  74.7603979  54.7347642  27.8726448  77.0853979
  56.4517642  26.1056448  76.6143979  57.3587642  25.3856448  75.7993979
  58.0737642  26.0746448  75.3483979  56.8067642  24.8886448  75.0013979
  58.1407642  24.3466448  76.6093979  58.7467642  23.7546448  75.9133979
  59.0117642  25.0136448  77.5453979  58.6347642  24.7146448  78.8993979
  59.3327642  23.9646448  79.2983979  58.6117642  25.8606448  79.8043979
  57.9157642  27.0426448  79.6953979  57.2707642  27.2636448  78.8523979
  58.1067642  27.8686448  80.6923979  59.0167642  27.1786448  81.5073979
  59.7027642  27.4576448  82.7133979  59.6117642  28.5786448  83.4033979
  60.3207642  28.8236448  84.0713979  58.9807642  29.2876448  83.0313979
  60.5207642  26.5466448  83.2903979  60.7047642  25.4066448  82.6323979
  61.3747642  24.6946448  83.0923979  60.1697642  25.0216448  81.4883979
  59.3207642  25.9556448  80.9753979  57.2387642  23.4086448  77.4263979
  56.2297642  23.3926448  77.0093979  57.2387642  24.0776448  78.7993979
  56.4457642  24.8326448  78.8503979  57.0787642  23.3606448  79.6093979
  57.7957642  22.1006448  77.4443979  56.9107642  20.8136448  77.8213979
  57.5597642  19.5766448  77.3283979  55.5727642  20.8766448  77.1793979
  56.8647642  20.8646448  79.4103979  58.0237642  20.5306448  80.1543979
  58.8617642  21.1516448  79.8323979  58.2757642  19.4846448  79.9823979
  57.8047642  20.7396448  81.6473979  58.6727642  20.3406448  82.1883979
  57.6657642  22.1416448  81.9253979  56.4727642  22.3896448  82.6783979
  56.7247642  22.3496448  83.7503979  55.8647642  23.6866448  82.3843979
  55.0577642  24.0796448  81.3373979  54.6707642  23.3856448  80.6023979
  54.8417642  25.3696448  81.2683979  55.5387642  25.8526448  82.3903979
  55.7657642  27.1256448  82.9643979  55.2977642  28.2686448  82.5093979
  55.6357642  29.1186448  82.9233979  54.6937642  28.2566448  81.7003979
  56.4977642  27.2626448  84.0873979  56.9967642  26.1686448  84.6343979
  57.5687642  26.3086448  85.5383979  56.9107642  24.9266448  84.2013979
  56.1527642  24.8356448  83.0703979  56.5357642  20.0496448  82.1553979
  56.1667642  19.3246448  81.4263979  55.5527642  21.2006448  82.3383979
  54.9977642  21.3606448  81.4083979  54.8447642  20.9866448  83.1443979
  56.8497642  19.4186448  83.3733979  55.9857642  18.2056448  83.9523979
  56.9067642  17.0486448  84.0793979  54.8327642  17.7876448  83.1073979
  55.5407642  18.8736448  85.3213979  56.4997642  19.1036448  86.3333979
  57.4047642  19.5316448  85.9003979  56.7407642  18.1616448  86.8253979
  55.9747642  20.0936448  87.3583979  56.6987642  20.1826448  88.1773979
  55.8027642  21.3716448  86.7243979  54.5017642  21.8676448  87.0453979
  54.5597642  22.3676448  88.0253979  53.9487642  22.8026448  86.0813979
  53.3337642  22.5676448  84.8793979  53.2007642  21.5696448  84.4863979
  52.9167642  23.6446448  84.2673979  53.3247642  24.6796448  85.1283979
  53.2137642  26.1126448  85.0443979  52.7737642  26.8006448  84.1413979
  53.6937642  26.7726448  86.1563979  53.6287642  27.7776448  86.1663979
  54.2637642  26.1516448  87.2123979  54.6567642  26.8656448  88.2253979
  54.5537642  27.8776448  88.2173979  55.0557642  26.3686448  88.9933979
  54.4247642  24.8336448  87.3253979  53.9367642  24.1586448  86.2453979
  54.6097642  19.6986448  87.9303979  54.3937642  18.6366448  87.7903979
  53.6417642  20.5956448  87.1763979  53.3917642  20.1526448  86.2063979
  52.7207642  20.7606448  87.7453979  54.6117642  20.0756448  89.2813979
  53.7787642  19.2966448  90.3903979  54.6157642  18.2516448  91.0253979
  52.4867642  18.7516448  89.9103979  53.5187642  20.5966448  91.2803979
  54.6057642  21.3016448  91.8603979  55.4687642  21.2936448  91.1923979
  54.8877642  20.8246448  92.7983979  54.2287642  22.7606448  92.1003979
  55.0557642  23.2636448  92.6173979  53.9837642  23.4196448  90.8443979
  52.8237642  24.2546448  90.9333979  53.1317642  25.2516448  91.2863979
  52.0427642  24.3776448  89.6973979  51.8227642  23.2446448  88.9843979
  52.2307642  22.2936448  89.3463979  51.0807642  23.3716448  87.7983979
  50.8927642  22.4996448  87.1953979  50.6537642  24.6356448  87.4213979
  50.0407642  24.8306448  86.2903979  49.9047642  25.8006448  86.0113979
  50.0487642  24.0936448  85.6013979  50.8647642  25.7146448  88.1623979
  51.5777642  25.6466448  89.3493979  51.7537642  26.6486448  90.0133979
  52.9567642  22.8976448  92.9393979  52.5807642  21.9086448  93.2143979
  51.9597642  23.5896448  92.0143979  51.2857642  22.8366448  91.5943979
  51.3547642  24.3416448  92.5303979  53.2267642  23.6586448  94.0943979
  52.1977642  23.6556448  95.3043979  52.8257642  23.9386448  96.6153979
  51.4827642  22.3846448  95.5683979  51.1757642  24.8216448  94.9783979
  51.6067642  26.1686448  94.9263979  52.4417642  26.2646448  94.2303979
  51.9257642  26.5016448  95.9113979  50.4687642  27.0576448  94.4403979
  50.7567642  28.1106448  94.5533979  50.2097642  26.7726448  93.0603979
  48.7977642  26.6546448  92.8693979  48.3717642  27.6706448  92.8083979
  48.4207642  25.8686448  91.6963979  48.5777642  24.4996448  91.5993979
  48.9697642  23.9426448  92.4373979  48.2557642  23.8526448  90.4513979
  48.4237642  22.3446448  90.3793979  47.8237642  21.8526448  91.1533979
  48.0967642  21.9566448  89.4073979  49.4737642  22.0586448  90.5043979
  47.7487642  24.6036448  89.3063979  47.4077642  24.1376448  88.2333979
  47.6557642  25.9576448  89.4943979  47.3517642  26.5226448  88.7173979
  47.9607642  26.6536448  90.6303979  47.7987642  27.8586448  90.6263979
  49.1477642  26.8156448  95.1803979  49.2807642  26.2766448  96.1203979
  48.3137642  26.0206448  94.1883979  48.5457642  24.9546448  94.2713979
  47.2407642  26.1636448  94.3573979  48.5177642  28.0516448  95.3593979
  47.8837642  28.4646448  96.7593979  48.8857642  29.1106448  97.6443979
  47.1937642  27.3596448  97.4633979  46.8367642  29.4846448  96.1283979
  47.2947642  30.7006448  95.5723979  48.2407642  30.5446448  95.0513979
  47.4527642  31.4136448  96.3803979  46.3007642  31.2776448  94.5713979
  46.6317642  32.2966448  94.3403979  46.2497642  30.5106448  93.3483979
  44.9167642  30.0306448  93.0883979  44.4257642  30.6966448  92.3603979
  44.8537642  28.6616448  92.5693979  45.1217642  27.4696448  93.2033979
  45.4217642  27.4316448  94.2433979  44.9877642  26.4006448  92.4543979
  44.6077642  26.9546448  91.2163979  44.2927642  26.4356448  89.9393979
  44.3037642  25.1606448  89.5963979  43.9777642  24.9486448  88.6643979
  44.4907642  24.4576448  90.2903979  43.9307642  27.2426448  88.9323979
  43.8787642  28.5486448  89.1573979  43.5807642  29.1716448  88.3233979
  44.1517642  29.1796448  90.2923979  44.5197642  28.3206448  91.2823979
  44.8817642  31.3396448  95.1253979  44.8787642  31.2096448  96.2093979
  44.1907642  30.1636448  94.4423979  44.3027642  29.2636448  95.0573979
  43.1247642  30.3636448  94.3203979  44.3737642  32.6096448  94.7773979
  43.0067642  33.1756448  95.3863979  43.2577642  34.6116448  95.6683979
  42.5447642  32.4216448  96.5733979  42.1147642  32.9456448  94.0783979
  42.3867642  33.6686448  92.8853979  43.4477642  33.6016448  92.6423979
  42.1187642  34.7156448  93.0203979  41.6057642  33.1016448  91.7073979
  41.8387642  33.6786448  90.8023979  41.9787642  31.7346448  91.5013979
  40.8637642  31.0276448  90.9563979  40.8117642  31.2346448  89.8743979
  40.8817642  29.5776448  91.1863979  41.2587642  29.1456448  92.4133979
  41.4637642  29.8806448  93.1903979  41.3797642  27.7596448  92.6003979
  41.7027642  27.3746448  93.5523979  41.1077642  26.9296448  91.5233979
  41.2697642  25.6426448  91.6053979  41.0857642  25.1056448  90.7633979
  41.6147642  25.2266448  92.4423979  40.7107642  27.3876448  90.3433979
  40.5787642  28.7476448  90.1073979  40.2207642  29.1456448  89.0183979
  40.0897642  33.1206448  91.9303979  39.8717642  33.3746448  92.9693979
  39.6547642  31.6786448  91.6503979  39.4167642  31.1806448  92.5983979
  38.7767642  31.6296448  91.0003979  39.4997642  34.0656448  91.0553979
  37.9867642  34.5516448  91.2503979  37.7737642  35.9286448  90.7453979
  37.5407642  34.4856448  92.6603979  37.1987642  33.4916448  90.3673979
  37.3457642  33.4886448  88.9603979  38.3987642  33.3856448  88.6963979
  36.9627642  34.4216448  88.5483979  36.5797642  32.3256448  88.3483979
  36.5977642  32.4156448  87.2553979  37.1967642  31.0906448  88.7313979
  36.1947642  30.1736448  89.1713979  35.7867642  29.6366448  88.2983979
  36.6827642  29.2136448  90.1403979  37.0597642  29.4146448  91.4443979
  37.0027642  30.3886448  91.9123979  37.4847642  28.3436448  92.0623979
  37.3867642  27.3676448  91.0513979  37.6577642  25.9876448  90.9643979
  38.0797642  25.2456448  91.9673979  38.2897642  24.2706448  91.7933979
  38.2417642  25.6846448  92.8513979  37.4747642  25.3146448  89.8173979
  37.0207642  25.9756448  88.7613979  36.8847642  25.4036448  87.8513979
  36.6957642  27.2556448  88.7003979  36.9167642  27.8946448  89.8803979
  35.1257642  32.2596448  88.8233979  34.8187642  33.1786448  89.3263979
  35.1117642  31.0796448  89.7833979  35.3737642  31.4236448  90.7893979
  34.1307642  30.5986448  89.8233979  34.3397642  32.0176448  87.6873979
  32.7657642  32.2496448  87.6973979  32.3477642  33.2666448  86.7183979
  32.1707642  32.5716448  89.0163979  32.2947642  30.8256448  87.1503979
  32.6667642  30.4286448  85.8373979  33.7207642  30.6586448  85.6703979
  32.0757642  30.9706448  85.0983979  32.4947642  28.9306448  85.6323979
  32.7497642  28.6776448  84.5953979  33.3947642  28.2556448  86.5233979
  32.6777642  27.2666448  87.2613979  32.6927642  26.3266448  86.6883979
  33.1847642  27.0176448  88.5983979  33.2387642  27.8506448  89.6803979
  32.9287642  28.8836448  89.6053979  33.6627642  27.2846448  90.7843979
  33.9197642  25.9636448  90.3783979  34.3747642  24.8006448  91.0943979
  34.6947642  24.6976448  92.2703979  34.4147642  23.6606448  90.3083979
  34.6987642  22.8016448  90.7453979  34.0957642  23.6336448  88.9913979
  34.0557642  22.5016448  88.3563979  34.3717642  21.6446448  88.7933979
  33.8387642  22.5626448  87.3783979  33.6717642  24.6786448  88.2933979
  33.6197642  25.8086448  89.0443979  31.0807642  28.4216448  85.9423979
  30.3557642  29.2366448  85.9663979  31.2407642  27.8066448  87.3263979
  31.1277642  28.5786448  88.0973979  30.5037642  27.0236448  87.5163979
  30.7317642  27.4746448  84.9493979  29.2937642  26.7766448  84.9113979
  28.7297642  26.8026448  83.5393979  28.2707642  27.5236448  85.6753979
  29.6387642  25.3036448  85.4283979  30.4547642  24.4666448  84.6233979
  31.4477642  24.9126448  84.5353979  30.0227642  24.3866448  83.6273979
  30.6047642  23.0576448  85.1883979  31.1947642  22.4526448  84.4893979
  31.2927642  23.1566448  86.4423979  30.5687642  22.4536448  87.4513979
  30.9427642  21.4196448  87.4593979  30.6427642  23.0446448  88.7873979
  30.4907642  24.3876448  88.8863979  30.3087642  24.9666448  87.9763979
  30.6157642  24.9536448  90.1653979  30.5387642  26.0226448  90.2893979
  30.9417642  24.1156448  91.2193979  31.1847642  24.5926448  92.4013979
  31.5397642  23.9406448  93.0913979  31.1747642  25.5766448  92.5763979
  31.0467642  22.7956448  91.0823979  30.9007642  22.1836448  89.8493979
  30.9947642  20.9686448  89.7493979  29.2607642  22.3576448  85.4533979
  28.4437642  22.8906448  84.9643979  29.1127642  22.4486448  86.9633979
  28.5787642  23.3676448  87.2373979  28.5707642  21.5936448  87.3743979
  29.2977642  20.9976448  85.0463979  28.6107642  20.4766448  85.5133979
  35.3807642  16.4786448 100.0023979  34.9977642  16.6146448  99.1033979
  34.4557642  15.3726448  98.6733979  33.5087642  15.1856448  99.1813979
  35.1497642  14.5686448  98.9203979  34.2187642  15.3276448  97.1653979
  33.7937642  14.3536448  96.9003979  33.3077642  16.3696448  96.7783979
  33.9097642  17.1616448  95.7513979  33.6187642  16.7456448  94.7753979
  33.5777642  18.5726448  95.7763979  33.7497642  19.5106448  96.7633979
  34.1517642  19.2496448  97.7363979  33.3637642  20.7176448  96.4253979
  32.9137642  20.5476448  95.0983979  32.3277642  21.4456448  94.1383979
  32.0317642  22.6216448  94.2593979  32.0277642  20.8496448  92.9303979
  31.6717642  21.4486448  92.2013979  32.1917642  19.5306448  92.6793979
  31.9197642  19.0636448  91.4993979  31.6567642  19.6946448  90.7573979
  32.1257642  18.0916448  91.3463979  32.6917642  18.6526448  93.5393979
  33.0327642  19.2306448  94.7213979  35.5047642  15.5286448  96.3563979
  36.3937642  15.3526448  96.9623979  35.4207642  16.9836448  95.9313979
  35.8197642  17.6376448  96.7153979  35.9717642  17.1696448  95.0103979
  35.4507642  14.6346448  95.2653979  36.7127642  14.3506448  94.3333979
  36.8807642  12.8816448  94.2263979  37.9917642  14.9226448  94.8123979
  36.2017642  15.0686448  93.0103979  35.0827642  14.5366448  92.3223979
  34.2127642  14.5456448  92.9773979  35.2867642  13.5066448  92.0233979
  34.7647642  15.3546448  91.0803979  33.9297642  14.8986448  90.5443979
  34.3867642  16.6816448  91.4593979  35.1117642  17.6306448  90.6763979
  34.5507642  17.8156448  89.7453979  35.3877642  18.8846448  91.3803979
  35.8907642  18.7916448  92.6333979  36.1017642  17.8046448  93.0423979
  36.0827642  19.9846448  93.3443979  36.4717642  19.9526448  94.3493979
  35.7237642  21.1746448  92.7323979  35.7927642  22.3056448  93.3703979
  35.4547642  23.1376448  92.8953979  36.1027642  22.3306448  94.3183979
  35.2187642  21.2196448  91.5033979  35.0167642  20.0716448  90.7573979
  34.5207642  20.1376448  89.6483979  35.9737642  15.4586448  90.1463979
  36.7647642  14.7776448  90.4693979  36.4187642  16.9076448  90.3103979
  37.1687642  16.9716448  91.1063979  36.8507642  17.3146448  89.3913979
  35.5657642  15.1506448  88.8283979  36.6387642  14.8736448  87.6793979
  36.0857642  13.9126448  86.7003979  37.8957642  14.2916448  88.2193979
  36.8257642  16.3276448  87.0853979  35.7937642  16.9206448  86.3223979
  34.8657642  16.9506448  86.8973979  35.6317642  16.3456448  85.4103979
  36.1957642  18.3416448  85.9533979  35.4787642  18.7446448  85.2263979
  36.2197642  19.1756448  87.1253979  37.3407642  20.0576448  87.0193979
  37.0887642  20.8526448  86.2963979  37.7967642  20.6316448  88.2883979
  38.3497642  19.8826448  89.3043979  38.4777642  18.8186448  89.1753979
  38.7357642  20.4726448  90.4623979  39.3417642  19.6046448  91.5433979
  40.2627642  19.1296448  91.1833979  39.5927642  20.2006448  92.4303979
  38.6297642  18.8346448  91.8483979  38.5617642  21.9086448  90.6593979
  38.8457642  22.5376448  91.6643979  38.0127642  22.5666448  89.5853979
  37.8727642  23.5606448  89.6693979  37.6227642  22.0196448  88.3903979
  37.1757642  22.7586448  87.5343979  37.6087642  18.3956448  85.3543979
  38.0197642  17.3986448  85.1783979  38.4187642  19.1506448  86.3953979
  38.8557642  18.4436448  87.1043979  39.2257642  19.7246448  85.9353979
  37.5927642  19.1616448  84.1853979  38.5627642  18.8326448  82.9683979
  37.9627642  17.8256448  82.0643979  39.8667642  18.1996448  83.2903979
  38.7017642  20.3096448  82.3963979  37.5577642  20.9886448  81.9113979
  36.6847642  20.7486448  82.5203979  37.3587642  20.6766448  80.8853979
  37.7417642  22.5006448  81.9643979  36.8787642  22.9476448  81.4613979
  37.7997642  22.9626448  83.3303979  39.0427642  23.6366448  83.5943979
  38.8757642  24.7216448  83.5163979  39.6407642  23.3656448  84.9003979
  40.1497642  22.1976448  85.4103979  40.1577642  21.2836448  84.8303979
  40.6087642  22.2926448  86.6353979  40.3947642  23.6466448  86.9513979
  40.6807642  24.4216448  88.1333979  41.1527642  24.0506448  89.1973979
  40.3847642  25.7636448  87.9943979  40.5507642  26.3696448  88.7833979
  39.8407642  26.3036448  86.8783979  39.6147642  27.5796448  86.8403979
  39.8307642  28.1786448  87.6343979  39.2287642  27.9486448  85.9963979
  39.5457642  25.6256448  85.7693979  39.8397642  24.3026448  85.8753979
  39.0257642  22.9746448  81.2833979  39.4177642  22.2036448  80.6163979
  39.9767642  23.1946448  82.4583979  40.4857642  22.2526448  82.6953979
  40.7377642  23.9516448  82.2443979  38.7267642  24.1486448  80.5543979
  39.8217642  24.8466448  79.6233979  39.1697642  25.3256448  78.3863979
  40.8747642  23.9236448  79.1283979  40.2987642  26.0196448  80.5903979
  39.3797642  27.0456448  80.9293979  38.5447642  26.6236448  81.4883979
  38.9927642  27.4996448  80.0143979  40.0087642  28.1446448  81.7743979
  39.2587642  28.9296448  81.9303979  40.4167642  27.6266448  83.0503979
  41.7737642  27.9956448  83.3313979  41.7757642  28.9746448  83.8373979
  42.4857642  26.9896448  84.1383979  42.6957642  25.6866448  83.7273979
  42.4107642  25.4026448  82.7243979  43.2267642  24.7696448  84.5823979
  43.4507642  23.3456448  84.0993979  44.1477642  23.3276448  83.2523979
  43.8747642  22.7196448  84.8943979  42.5057642  22.8826448  83.7993979
  43.5707642  25.1476448  85.9513979  44.0427642  24.4086448  86.8043979
  43.3337642  26.4636448  86.2633979  43.5467642  26.7776448  87.1983979
  42.8127642  27.4236448  85.4323979  42.6727642  28.5436448  85.8793979
  41.2377642  28.7646448  81.1113979  41.3187642  28.4616448  80.0643979
  42.3937642  28.1946448  81.9323979  42.7277642  27.2486448  81.4893979
  43.2357642  28.8896448  81.9523979  41.0807642  30.1666448  81.2063979
  41.9457642  31.1766448  80.3133979  41.0687642  32.2876448  79.8513979
  42.6317642  30.5546448  79.1553979  42.9377642  31.6556448  81.4593979
  42.4447642  32.4746448  82.5023979  41.5727642  32.0116448  82.9633979
  42.1637642  33.4496448  82.0993979  43.4987642  32.6666448  83.5743979
  43.1187642  33.3726448  84.3213979  43.7957642  31.4166448  84.2133979
  45.2137642  31.2426448  84.2883979  45.5907642  31.7366448  85.1993979
  45.6317642  29.8486448  84.2973979  45.6117642  28.9216448  83.2813979
  45.3177642  29.1776448  82.2743979  45.9547642  27.7096448  83.6343979
  46.2517642  27.8806448  84.9953979  46.7077642  27.0356448  86.0243979
  46.9807642  25.7536448  85.8913979  47.4247642  25.3116448  86.6813979
  46.9727642  25.3686448  84.9633979  46.9267642  27.4966448  87.2623979
  46.6937642  28.7796448  87.5043979  46.8787642  29.1236448  88.5143979
  46.2637642  29.6906448  86.6483979  46.0617642  29.1716448  85.4043979
  44.8067642  33.2016448  82.9933979  44.6837642  33.5746448  81.9743979
  45.7307642  31.9896448  83.0433979  45.6067642  31.3966448  82.1313979
  46.7777642  32.2836448  83.1323979  45.1997642  34.2196448  83.8703979
  46.0697642  35.4706448  83.4033979  45.1907642  36.6686448  83.4583979
  46.7937642  35.2786448  82.1113979  47.0197642  35.2706448  84.6753979
  46.5437642  35.5796448  85.9803979  45.5737642  35.1086448  86.1413979
  46.4237642  36.6586448  86.0713979  47.4807642  35.0836448  87.0813979
  47.0907642  35.4116448  88.0513979  47.5397642  33.6456448  87.0483979
  48.9007642  33.2116448  86.9193979  49.3057642  33.0446448  87.9273979
  49.0977642  31.9926448  86.1373979  48.9307642  31.7516448  84.7953979
  48.6257642  32.5286448  84.1083979  49.1597642  30.5126448  84.4343979
  49.5367642  29.8916448  85.6353979  49.9277642  28.5416448  85.9533979
  49.9527642  27.5516448  85.2393979  50.3277642  28.3816448  87.2653979
  50.6127642  27.4636448  87.5613979  50.2837642  29.3656448  88.1923979
  50.7137642  29.1286448  89.3933979  51.0587642  28.2096448  89.6563979
  50.6117642  29.8766448  90.0483979  49.8887642  30.6146448  87.9613979
  49.5297642  30.8096448  86.6633979  48.9117642  35.5996448  86.9233979
  48.9467642  36.4416448  86.2503979  49.6247642  34.4106448  86.2943979
  49.5017642  34.4286448  85.2083979  50.6887642  34.4306448  86.5233979
  49.4387642  36.0166448  88.1683979  50.8517642  36.7806448  88.2413979
  50.8227642  37.8536448  89.2653979  51.3627642  37.3586448  86.9753979
  51.7407642  35.5506448  88.7403979  51.5157642  34.9996448  90.0253979
  50.4727642  34.6906448  90.1093979  51.7227642  35.7566448  90.7823979
  52.3977642  33.7816448  90.2753979  52.2217642  33.4186448  91.2943979
  52.0707642  32.7496448  89.3243979  53.2847642  32.2056448  88.8003979
  53.6767642  31.4946448  89.5433979  53.1997642  31.5506448  87.4893979
  52.6767642  32.2616448  86.4633979  52.3477642  33.2846448  86.6363979
  52.5967642  31.6296448  85.2153979  52.1767642  32.1546448  84.3713979
  53.0197642  30.3156448  85.1183979  52.9427642  29.6696448  83.9983979
  53.1777642  28.6856448  84.0043979  52.5637642  30.1276448  83.1823979
  53.5537642  29.6546448  86.1413979  53.6747642  30.2396448  87.3913979
  54.2077642  29.6276448  88.2983979  53.8947642  34.0826448  90.1013979
  54.0797642  35.1596448  90.0593979  54.2027642  33.4386448  88.7573979
  53.9477642  34.1286448  87.9443979  55.2527642  33.1696448  88.6613979
  54.6587642  33.4496448  91.1173979  55.6397642  34.2996448  92.0503979
  56.0337642  33.4926448  93.2353979  55.0317642  35.5446448  92.5983979
  56.8767642  34.6566448  91.0743979  58.0807642  33.8556448  90.9753979
  58.5947642  33.8676448  91.9463979  58.7567642  34.3046448  90.2443979
  57.7957642  32.3806448  90.6053979  57.3527642  32.2796448  89.2463979
  57.4547642  30.9106448  88.8153979  58.6837642  30.3746448  89.5813979
  59.5237642  30.1176448  88.9263979  58.4067642  29.4676448  90.1333979
  57.5597642  30.8436448  87.3483979  57.1917642  29.6796448  86.6873979
  56.9787642  28.6256448  87.2473979  57.1747642  29.7346448  85.3403979
  57.4557642  30.7906448  84.5403979  57.5197642  30.6216448  83.3393979
  57.6417642  32.1746448  85.2413979  56.2847642  32.9056448  85.3853979
  55.8117642  33.0236448  84.4023979  55.5927642  32.3386448  86.0193979
  56.4137642  33.9046448  85.8203979  58.4767642  33.0816448  84.5223979
  58.5897642  32.7326448  83.6043979  58.2757642  31.9426448  86.6253979
  58.1407642  32.8836448  87.1563979  59.7807642  31.6486448  86.5833979
  60.1217642  30.4096448  86.1493979  61.3347642  29.8106448  86.4233979
  62.1807642  30.5646448  87.2253979  63.1597642  29.7646448  87.9643979
  62.6597642  29.5136448  89.2823979  64.5477642  30.4006448  88.1663979
  64.5237642  31.4926448  88.1343979  65.2397642  30.0696448  87.3893979
  63.3177642  28.7936448  87.4813979  61.9317642  31.8346448  87.6503979
  60.7237642  32.4366448  87.2783979  60.4507642  33.8696448  87.7233979
  60.3297642  34.5246448  86.8483979  59.5527642  33.9606448  88.3373979
  61.2867642  34.2746448  88.3073979  62.6057642  32.3466448  88.3373979
  61.5207642  28.6706448  86.0333979  56.9547642  28.8656448  84.8703979
  56.5497642  30.3546448  89.1163979  57.0637642  31.9246448  91.2833979
  59.0617642  31.5156448  90.5373979  59.8477642  32.1246448  90.0733979
  59.4637642  31.0436448  91.8373979  60.8477642  30.2426448  91.9883979
  60.6387642  28.8626448  91.4943979  61.1387642  30.1216448  93.4403979
  61.8047642  31.2826448  91.2023979  63.2297642  31.1286448  91.0233979
  63.7257642  31.1686448  92.0003979  63.5987642  31.9796448  90.4393979
  63.6217642  29.8016448  90.3163979  63.6487642  28.9896448  91.0513979
  64.9737642  29.9366448  89.5693979  65.5857642  30.7076448  90.0523979
  65.6647642  28.6796448  89.5493979  67.2127642  28.5946448  89.2163979
  67.4417642  27.2946448  89.8923979  67.8337642  29.7066448  89.9773979
  67.2367642  28.5716448  87.6223979  66.8597642  27.3986448  86.9153979
  65.9247642  27.0096448  87.3243979  67.6377642  26.6436448  87.0313979
  66.6457642  27.6626448  85.4253979  66.4857642  26.7066448  84.9093979
  65.4927642  28.5096448  85.2533979  65.8137642  29.5396448  84.3133979
  65.7527642  29.1106448  83.3003979  64.9627642  30.7396448  84.3753979
  65.1997642  31.8556448  85.1563979  66.0937642  31.9216448  85.7553979
  64.3057642  32.8786448  85.1873979  64.6127642  34.0866448  86.0543979
  65.5487642  34.5596448  85.7313979  63.8147642  34.8366448  85.9713979
  64.6917642  33.7986448  87.1093979  63.0727642  32.8116448  84.4043979
  62.1887642  33.6486448  84.3553979  62.9207642  31.6566448  83.6793979
  62.1367642  31.6166448  83.0493979  63.7997642  30.6096448  83.5983979
  63.4987642  29.6656448  82.8903979  67.8277642  28.3886448  84.7663979
  68.7217642  28.3536448  85.3943979  67.3007642  29.8096448  84.6243979
  67.4537642  30.3396448  85.5693979  67.7997642  30.3516448  83.8163979
  68.0737642  27.8726448  83.4773979  69.5637642  27.5546448  82.9923979
  70.1567642  26.3516448  83.6353979  70.4837642  28.7116448  83.1123979
  69.1857642  27.2676448  81.4693979  68.6657642  26.0126448  81.0833979
  67.9497642  25.6636448  81.8303979  69.4837642  25.2926448  81.0293979
  67.9557642  26.0566448  79.7283979  67.7487642  25.0116448  79.4613979
  66.7217642  26.8106448  79.7693979  66.8837642  28.1076448  79.1443979
  66.2887642  28.1266448  78.2243979  66.4737642  29.2846448  79.9093979
  67.0837642  29.9116448  80.9683979  67.9527642  29.4926448  81.4613979
  66.5367642  31.0526448  81.3093979  65.4507642  31.1706448  80.4193979
  64.4417642  32.1846448  80.2553979  64.2557642  33.1956448  80.9123979
  63.5967642  31.9516448  79.1873979  62.9127642  32.6626448  78.9723979
  63.6627642  30.8576448  78.3923979  62.8517642  30.7806448  77.3783979
  62.2127642  31.5506448  77.1773979  62.9697642  30.0396448  76.7203979
  64.5427642  29.8556448  78.5383979  65.4157642  30.0876448  79.5653979
  68.7547642  26.7166448  78.6033979  69.8297642  26.5806448  78.7453979
  68.3547642  28.1876448  78.7053979  68.9837642  28.7116448  79.4333979
  68.4517642  28.7046448  77.7443979  68.3167642  26.1386448  77.3863979
  69.1437642  26.3516448  76.0223979  69.0167642  25.1256448  75.1973979
  70.5417642  26.8126448  76.1713979  68.2637642  27.5606448  75.4673979
  66.9947642  27.3426448  74.8813979  66.3167642  26.9126448  75.6123979
  67.0907642  26.6626448  74.0343979  66.3777642  28.6476448  74.3993979
  65.4487642  28.4176448  73.8613979  66.0717642  29.4956448  75.5213979
  66.3807642  30.8456448  75.1543979  65.5677642  31.2496448  74.5313979
  66.6207642  31.7636448  76.2603979  67.5367642  31.6946448  77.2813979
  68.2357642  30.8776448  77.3673979  67.4787642  32.6866448  78.1343979
  66.4717642  33.5086448  77.5893979  65.9417642  34.7836448  77.9943979
  66.2417642  35.4656448  78.9603979  64.9677642  35.2736448  77.1443979
  64.6017642  36.1916448  77.3353979  64.5117642  34.6136448  76.0533979
  63.6217642  35.1916448  75.2983979  63.3477642  36.1586448  75.4563979
  63.3867642  34.7076448  74.4533979  64.9587642  33.4236448  75.6473979
  65.9447642  32.9356448  76.4533979  67.2977642  29.4396448  73.4613979
  68.2017642  28.8766448  73.2183979  67.6327642  30.6826448  74.2823979
  68.5147642  30.5026448  74.9043979  67.8227642  31.5526448  73.6493979
  66.5497642  29.7166448  72.2933979  67.2207642  30.2806448  70.9523979
  66.8167642  29.4306448  69.7953979  68.7087642  30.3046448  71.0083979
  66.5217642  31.7276448  70.9523979  65.1117642  31.8206448  70.7843979
  64.6187642  31.3216448  71.6203979  64.8347642  31.3026448  69.8653979
  64.5647642  33.2486448  70.6993979  63.4987642  33.1836448  70.4513979
  64.7037642  33.9256448  71.9603979  65.5427642  35.0836448  71.8273979
  64.9107642  35.9856448  71.8063979  66.5237642  35.2236448  72.8933979
  67.5217642  34.3576448  73.2663979  67.7097642  33.4406448  72.7243979
  68.2097642  34.7366448  74.3133979  67.5967642  35.9586448  74.6473979
  67.7687642  36.9256448  75.6623979  68.6487642  36.8486448  76.6403979
  68.6567642  37.5826448  77.3403979  69.2587642  36.0566448  76.6693979
  66.9967642  38.0216448  75.7103979  66.0697642  38.1826448  74.7783979
  65.4737642  39.0836448  74.8403979  65.7887642  37.3666448  73.7753979
  66.5877642  36.2656448  73.7753979  65.2567642  34.1096448  69.6393979
  65.7857642  33.4826448  68.9173979  66.2437642  34.9286448  70.4653979
  67.1897642  34.3806448  70.5523979  66.4507642  35.9026448  70.0113979
  64.2797642  34.8986448  68.9813979  64.6187642  35.6636448  67.6073979
  63.3427642  35.7746448  66.8513979  65.6817642  35.0066448  66.8193979
  65.0037642  37.0806448  68.2433979  63.9857642  37.9076448  68.7793979
  63.4457642  37.3746448  69.5613979  63.2867642  38.1776448  67.9863979
  64.5597642  39.1836448  69.3753979  63.7297642  39.8366448  69.6723979
  65.3457642  38.8836448  70.5393979  66.4937642  39.7336448  70.5443979
  66.1867642  40.7326448  70.8903979  67.6177642  39.2336448  71.3513979
  68.3407642  38.0956448  71.0503979  68.0907642  37.5286448  70.1673979
  69.3447642  37.6796448  71.8673979  70.1187642  36.4286448  71.4933979
  70.6267642  36.5686448  70.5313979  70.8817642  36.2066448  72.2493979
  69.4487642  35.5636448  71.4323979  69.6617642  38.4186448  73.0903979
  70.5107642  38.1346448  73.9183979  68.8757642  39.5216448  73.3043979
  69.0427642  40.0466448  74.1463979  67.8557642  39.9826448  72.5133979
  67.2447642  40.9746448  72.8723979  65.4597642  39.9496448  68.3943979
  65.4547642  39.4876448  67.4053979  66.8357642  39.8296448  69.0443979
  67.3287642  38.9236448  68.6763979  67.4697642  40.6866448  68.8093979
  64.9767642  41.2756448  68.3353979  65.3747642  42.2996448  67.1693979
  64.1957642  42.7396448  66.3783979  66.3807642  41.8686448  66.1633979
  65.8737642  43.4886448  68.1113979  64.9257642  44.1656448  68.9213979
  64.3557642  43.4336448  69.4963979  64.2347642  44.7156448  68.2823979
  65.5707642  45.1296448  69.9123979  64.7767642  45.6746448  70.4333979
  66.3277642  44.3806448  70.8753979  67.7037642  44.7846448  70.8573979
  67.8677642  45.5026448  71.6743979  68.6697642  43.7016448  70.9963979
  68.9327642  42.6476448  70.1603979  68.3837642  42.5016448  69.2413979
  69.8937642  41.8596448  70.5683979  70.3107642  42.4536448  71.7723979
  71.3447642  42.1196448  72.7203979  72.1097642  41.1696448  72.7363979
  71.4757642  43.0466448  73.7363979  72.1817642  42.8766448  74.4353979
  70.6837642  44.1336448  73.8783979  70.9127642  44.9636448  74.8513979
  71.6497642  44.7896448  75.5303979  70.2987642  45.7476448  74.9243979
  69.6967642  44.4666448  73.0473979  69.5687642  43.5876448  72.0173979
  66.5197642  46.1366448  69.2533979  66.3307642  46.2016448  68.1803979
  67.8847642  45.5066448  69.5113979  68.1137642  44.7996448  68.7053979
  68.6847642  46.2486448  69.5593979  66.3347642  47.4046448  69.8633979
  67.1337642  48.7106448  69.3803979  66.2367642  49.8906448  69.4663979
  67.5737642  48.6406448  67.9633979  68.3817642  48.7236448  70.3873979
  68.1767642  48.8856448  71.7853979  67.4907642  48.1136448  72.1393979
  67.7197642  49.8586448  71.9683979  69.4677642  48.7796448  72.6093979
  69.2237642  48.9406448  73.6673979  70.0627642  47.4926448  72.4553979
  71.4857642  47.6206448  72.3363979  71.9317642  47.6796448  73.3423979
  72.0687642  46.5536448  71.5423979  71.5847642  46.1996448  70.3013979
  70.8107642  46.8056448  69.8513979  72.0537642  45.0876448  69.6803979
  71.5017642  44.7156448  68.3183979  71.7187642  45.5016448  67.5853979
  71.9597642  43.7856448  67.9573979  70.4227642  44.5466448  68.3723979
  73.0647642  44.2596448  70.3333979  73.5307642  43.2116448  69.9203979
  73.5317642  44.7596448  71.5213979  74.2177642  44.2126448  72.0113979
  73.1217642  45.8886448  72.1693979  73.6837642  46.2196448  73.1973979
  70.5657642  49.7656448  72.2183979  70.2007642  50.3926448  71.4363979
  71.7017642  48.9566448  71.6273979  71.5757642  48.8806448  70.5403979
  72.6827642  49.3956448  71.8453979  70.9447642  50.4996448  73.3633979
  71.6457642  51.9376448  73.2563979  71.0587642  52.8866448  74.2203979
  71.2867642  52.5606448  71.9763979  73.2117642  51.5566448  73.3273979
  73.8067642  51.1306448  74.5423979  73.1607642  50.3866448  75.0123979
  73.8967642  51.9846448  75.2123979  75.1887642  50.4886448  74.3453979
  75.5957642  50.2226448  75.3293979  75.0547642  49.2856448  73.5693979
  76.2437642  49.1066448  72.7983979  77.0617642  48.7886448  73.4643979
  76.0987642  48.1806448  71.6643979  75.3327642  48.4246448  70.5383979
  74.7957642  49.3556448  70.4543979  75.2357642  47.4906448  69.5533979
  74.3837642  47.7966448  68.3323979  74.7807642  48.6676448  67.7963979
  74.3907642  46.9506448  67.6333979  73.3427642  47.9846448  68.6183979
  75.9267642  46.2056448  69.6823979  75.9097642  45.2816448  68.8843979
  76.6097642  46.0446448  70.8603979  77.1087642  45.1796448  70.9883979
  76.7257642  46.9476448  71.8843979  77.3287642  46.6176448  72.8903979
  76.2347642  51.3516448  73.6163979  75.8347642  52.3376448  73.3743979
  76.5517642  50.5416448  72.3623979  75.9097642  50.8256448  71.5513979
  77.5797642  50.6846448  72.0293979  77.4387642  51.4476448  74.3493979
  78.2417642  52.8296448  74.4493979  77.7357642  53.6326448  75.5913979
  78.3057642  53.6416448  73.2093979  79.6887642  52.2226448  74.7803979
  79.9627642  51.6856448  76.0643979  79.0847642  51.1416448  76.4183979
  80.1617642  52.5026448  76.7573979  81.1397642  50.7036448  76.0803979
  81.3407642  50.4406448  77.1253979  80.7797642  49.5106448  75.3623979
  81.6067642  49.3376448  74.2003979  82.3437642  48.5496448  74.4133979
  80.8987642  48.9806448  72.9783979  79.9877642  49.7076448  72.2593979
  79.6507642  50.6806448  72.5913979  79.5677642  49.1246448  71.1663979
  80.2637642  47.9046448  71.1643979  80.2747642  46.7956448  70.2443979
  79.6307642  46.6266448  69.2223979  81.1627642  45.8006448  70.6003979
  81.2417642  45.0086448  69.9823979  81.9127642  45.8206448  71.7273979
  82.7337642  44.8396448  71.9553979  82.8417642  44.0906448  71.2763979
  83.2987642  44.9166448  72.7713979  81.9297642  46.8156448  72.6163979
  81.0807642  47.8236448  72.2713979  82.4337642  51.2236448  75.4423979
  82.4557642  52.3146448  75.4403979  82.3357642  50.6816448  74.0203979
  81.7647642  51.3786448  73.3963979  83.3177642  50.5456448  73.5623979
  83.5457642  50.7036448  76.1573979  85.0567642  51.1036448  75.7933979
  85.8657642  51.0946448  77.0333979  85.2317642  52.4346448  75.1543979
  85.5057642  49.8776448  74.8603979  85.6227642  48.5746448  75.4233979
  84.6447642  48.2536448  75.7853979  86.3077642  48.6106448  76.2713979
  86.1357642  47.5136448  74.4503979  86.2857642  46.5786448  75.0033979
  85.1497642  47.2926448  73.4343979  85.7457642  47.3556448  72.1363979
  86.0447642  46.3426448  71.8233979  84.8777642  47.9286448  71.1193979
  84.2657642  49.1576448  71.0873979  84.4077642  49.8906448  71.8673979
  83.5107642  49.3646448  70.0423979  83.6327642  48.1516448  69.3433979
  83.1017642  47.6256448  68.1483979  82.2477642  48.2526448  67.3673979
  81.8417642  47.7346448  66.5933979  81.8417642  49.1056448  67.6983979
  83.4537642  46.4056448  67.7163979  84.2847642  45.6826448  68.4553979
  84.5377642  44.6996448  68.0803979  84.8577642  46.0426448  69.5923979
  84.4767642  47.2866448  69.9833979  87.4517642  47.8916448  73.7553979
  87.8857642  48.7736448  74.2263979  86.9967642  48.2276448  72.3333979
  86.7507642  49.2946448  72.2723979  87.7617642  48.0026448  71.5823979
  88.3677642  46.8056448  73.8313979  89.8967642  46.9486448  73.3453979
  90.8397642  46.2286448  74.2303979  90.3187642  48.3756448  73.2903979
  89.7757642  46.3626448  71.8603979  89.4887642  44.9906448  71.6513979
  88.5477642  44.7326448  72.1403979  90.2877642  44.3826448  72.0763979
  89.3517642  44.6666448  70.1663979  89.2307642  43.5826448  70.0463979
  88.1927642  45.3216448  69.6343979  88.4857642  45.7596448  68.3093979
  88.4117642  44.9046448  67.6173979  87.6417642  46.8336448  67.8153979
  87.4317642  48.0966448  68.3153979  87.8897642  48.4266448  69.2373979
  86.6587642  48.8526448  67.5733979  86.2707642  47.9726448  66.5503979
  85.4197642  48.1736448  65.4163979  84.8437642  49.2066448  65.1113979
  85.3567642  47.0856448  64.5743979  84.7667642  47.1536448  63.7573979
  86.0377642  45.9326448  64.7783979  86.0057642  45.0236448  63.8533979
  85.4277642  45.1356448  63.0223979  86.5277642  44.1866448  64.0243979
  86.8587642  45.7136448  65.8083979  86.9077642  46.7646448  66.6683979
  90.5457642  45.1246448  69.3143979  91.3317642  45.5476448  69.9393979
  89.9497642  46.2056448  68.4123979  90.0357642  47.1826448  68.9023979
  90.4367642  46.2536448  67.4313979  91.0317642  44.0046448  68.6003979
  92.3527642  44.0836448  67.7043979  93.1127642  42.8286448  67.9133979
  93.2367642  45.2216448  68.0533979  91.6967642  44.1256448  66.2493979
  90.9917642  42.9866448  65.7793979  90.1197642  42.8086448  66.4113979
  91.6477642  42.1206448  65.8283979  90.5257642  43.1126448  64.3373979
  90.0737642  42.1606448  64.0303979  89.5487642  44.1546448  64.2283979
  89.8957642  45.0396448  63.1593979  89.4457642  44.6536448  62.2293979
  89.4877642  46.4236448  63.4173979  89.9567642  47.1626448  64.4843979
  90.6997642  46.7286448  65.1393979  89.4587642  48.4026448  64.7313979
  90.0117642  49.2076448  65.8933979  91.0997642  49.3146448  65.8013979
  89.5857642  50.2196448  65.9083979  89.7727642  48.7286448  66.8473979
  88.3947642  48.9476448  63.8973979  87.7867642  49.9856448  64.1113979
  88.0467642  48.1646448  62.8243979  87.3547642  48.5166448  62.1793979
  88.5287642  46.9176448  62.5223979  88.1057642  46.3596448  61.5303979
  91.6737642  43.4476448  63.3833979  92.6457642  43.3086448  63.8623979
  91.4307642  44.9136448  63.0593979  91.9537642  45.5366448  63.7933979
  91.8077642  45.1646448  62.0673979  91.5417642  42.6036448  62.2613979
  92.7027642  42.4226448  61.1793979  93.0417642  40.9786448  61.0913979
  93.9777642  43.1176448  61.4973979  91.9777642  43.0516448  59.9083979
  90.8057642  42.4486448  59.3903979  90.0997642  42.2526448  60.1993979
  91.0617642  41.5086448  58.9033979  90.1267642  43.3816448  58.3943979
  89.2337642  42.8956448  57.9823979  89.7287642  44.5726448  59.0793979
  89.9037642  45.7066448  58.2293979  89.0167642  45.8006448  57.5793979
  90.1297642  46.9606448  58.9583979  91.0117642  46.9316448  59.9873979
  91.5637642  46.0096448  60.1783979  91.1447642  48.0946448  60.7633979
  91.8217642  48.1096448  61.5993979  90.3537642  49.1836448  60.4373979
  90.3767642  50.2686448  61.1513979  89.7387642  51.0116448  60.8713979
  90.9797642  50.3636448  61.9363979  89.5257642  49.1856448  59.4023979
  89.3577642  48.0666448  58.6033979  88.5927642  48.1026448  57.6623979
  91.0457642  43.8036448  57.2423979  92.0397642  43.3716448  57.3733979
  91.1257642  45.3286448  57.3713979  92.0657642  45.6006448  57.8673979
  91.0907642  45.8306448  56.3993979  90.4687642  43.3566448  56.0283979
  91.3337642  43.2546448  54.6843979  90.8057642  42.1946448  53.7913979
  92.7547642  42.9026448  54.9403979  91.1297642  44.7316448  54.0953979
  89.8517642  45.1496448  53.6303979  89.1037642  44.9876448  54.4093979
  89.5787642  44.5636448  52.7533979  89.8177642  46.6296448  53.2563979
  88.8527642  46.8546448  52.7843979  89.9417642  47.4356448  54.4343979
  90.8167642  48.5336448  54.1813979  90.2507642  49.3586448  53.7173979
  91.4687642  49.0226448  55.3903979  92.4047642  48.4126448  56.1913979
  92.8197642  47.4416448  55.9573979  92.7447642  49.0976448  57.2553979
  91.9157642  50.2306448  57.1543979  91.6977642  51.3876448  57.9333979
  92.3287642  51.6696448  59.0543979  92.0287642  52.4926448  59.5703979
  92.9387642  50.9856448  59.4543979  90.8267642  52.3316448  57.5453979
  90.1517642  52.1436448  56.4203979  89.4507642  52.9186448  56.1393979
  90.2507642  51.1176448  55.5923979  91.1447642  50.1896448  56.0243979
  90.9397642  47.0466448  52.2973979  91.5077642  46.1776448  51.9623979
  91.8167642  47.9576448  53.1603979  92.5857642  47.3516448  53.6543979
  92.3057642  48.7396448  52.5673979  90.3297642  47.6826448  51.1913979
  91.1227642  47.9696448  49.8253979  90.2787642  47.5326448  48.6783979
  92.4667642  47.3416448  49.7953979  91.1927642  49.5596448  50.0073979
  90.0117642  50.3456448  49.9733979  89.2617642  49.9196448  50.6413979
  89.6147642  50.3646448  48.9583979  90.2827642  51.7736448  50.4383979
  89.3907642  52.3896448  50.2663979  90.6027642  51.7716448  51.8413979
  91.7437642  52.6126448  52.0283979  91.4027642  53.6606448  52.0103979
  92.5017642  52.4216448  53.2493979  93.4147642  51.4496448  53.5793979
  93.6187642  50.6076448  52.9293979  94.0147642  51.6436448  54.7273979
  93.4357642  52.8376448  55.1823979  93.6887642  53.6136448  56.3603979
  94.4897642  53.3646448  57.2473979  92.9377642  54.7646448  56.4423979
  93.0587642  55.3556448  57.2483979  92.0267642  55.1316448  55.5123979
  91.3867642  56.2496448  55.6813979  91.5767642  56.8526448  56.4783979
  90.6867642  56.4696448  55.0023979  91.7707642  54.4546448  54.3893979
  92.5077642  53.3106448  54.2893979  91.4817642  52.4176448  49.7263979
  91.7507642  51.9096448  48.7983979  92.5827642  52.3266448  50.7693979
  93.0337642  51.3276448  50.7823979  93.3577642  53.0776448  50.5873979
  91.2457642  53.7926448  49.5563979  91.3217642  54.5116448  48.1433979
  90.2097642  54.2186448  47.2013979  92.5947642  54.3756448  47.4083979
  91.1537642  55.9856448  48.7413979  89.9537642  56.3476448  49.4133979
  89.5257642  55.4806448  49.9203979  89.2257642  56.7076448  48.6933979
  90.1967642  57.4146448  50.4783979  89.2257642  57.7756448  50.8373979
  90.9147642  56.8346448  51.5763979  92.0517642  57.6346448  51.9223979
  91.7447642  58.3576448  52.6943979  93.2127642  56.8676448  52.3933979
  93.5637642  55.7576448  51.6963979  93.0047642  55.4826448  50.7953979
  94.6397642  55.0046448  52.1943979  94.9677642  54.1226448  51.6763979
  95.2337642  55.4066448  53.3773979  96.1357642  54.6666448  53.9563979
  96.5547642  55.0256448  54.8063979  96.5097642  53.8696448  53.4833979
  94.8537642  56.4926448  54.0423979  93.8357642  57.3036448  53.5643979
  93.5367642  58.3186448  54.1643979  91.0207642  58.6006448  49.9703979
  91.1227642  58.5486448  48.8853979  92.3837642  58.4056448  50.6323979
  93.0377642  57.8216448  49.9733979  92.8697642  59.3626448  50.8543979
  90.3927642  59.8096448  50.3563979  90.5867642  61.1246448  49.4743979
  89.4787642  62.0906448  49.7043979  90.6097642  60.8836448  48.0133979
  91.9517642  61.7026448  50.0343979  91.9497642  62.5026448  51.1983979
  91.3907642  61.9986448  51.9873979  91.4867642  63.4626448  50.9713979
  93.3617642  62.7326448  51.7063979  93.3547642  63.5046448  52.4853979
  93.8447642  61.4976448  52.2493979  95.1877642  61.3526448  51.8013979
  95.8037642  62.0416448  52.4003979  95.7847642  60.0386448  51.9133979
  95.8137642  58.9756448  51.0453979  95.2647642  58.9616448  50.1153979
  96.5707642  57.9896448  51.4403979  97.0767642  58.4376448  52.6713979
  97.9807642  57.8546448  53.6253979  98.5257642  56.7666448  53.6113979
  98.2527642  58.6796448  54.6993979  98.8587642  58.3116448  55.4123979
  97.7197642  59.9106448  54.8653979  98.0507642  60.6196448  55.9023979
  98.6227642  60.2116448  56.6363979  97.5727642  61.4886448  56.0163979
  96.8897642  60.4976448  54.0123979  96.5977642  59.6956448  52.9493979
  94.3437642  63.1366448  50.5943979  93.8357642  63.4736448  49.6883979
  95.1297642  61.8576448  50.3533979  94.5837642  61.1696448  49.6983979
  96.1187642  62.0686448  49.9353979  95.2727642  64.0796448  51.0713979
  95.3607642  65.5506448  50.4603979  94.0357642  66.2176448  50.5253979
  95.8307642  65.5076448  49.0553979  96.4137642  66.0906448  51.5403979
  96.0227642  66.2596448  52.8973979  95.1497642  65.6416448  53.1163979
  95.7577642  67.3016448  53.0683979  97.1297642  65.8386448  53.8663979
  96.8377642  66.1176448  54.8843979  97.2977642  64.4106448  53.7913979
  98.6877642  64.0936448  53.6783979  99.1007642  64.0316448  54.6963979
  99.0127642  62.8796448  52.9273979  98.3597642  62.6586448  51.7593979
  97.6137642  63.3806448  51.4103979  98.6997642  61.4936448  51.0523979
  98.2197642  61.2696448  50.1153979  99.6437642  60.6476448  51.5983979
  99.9527642  59.5276448  51.0273979 100.5727642  58.9196448  51.5523979
  99.4307642  59.1976448  50.2363979 100.2957642  60.9246448  52.7213979
 100.0127642  62.0626448  53.4503979 100.6507642  62.3076448  54.4613979
  98.4957642  66.4706448  53.5523979  98.3917642  67.2656448  52.8123979
  99.2947642  65.3116448  52.9673979  99.1467642  65.2656448  51.8803979
 100.3697642  65.3946448  53.1693979  99.1417642  66.9516448  54.7193979
 100.0697642  67.1756448  54.4693979  60.8198849  23.6547654  88.9085186
  48.8198849  25.6547654  78.9085186  71.8198849  34.6547654  81.9085186
  56.8198849  28.6547654  96.9085186  55.8198849  38.6547654  82.9085186
  44.8198849  17.6547654  86.9085186  89.8198849  53.6547654  70.9085186
  63.8198849  21.6547654  76.9085186  91.8198849  38.6547654  71.9085186
  48.8198849  37.6547654  94.9085186  78.8198849  34.6547654  68.9085186
  53.8198849  16.6547654  73.9085186  37.8198849  29.6547654  97.9085186
  98.8198849  49.6547654  57.9085186  69.8198849  37.6547654  63.9085186
  46.8198849  21.6547654  98.9085186  88.8198849  43.6547654  78.9085186
  85.8198849  50.6547654  43.9085186  60.8198849  48.6547654  83.9085186
  32.8198849  25.6547654  78.9085186  32.8198849  38.6547654  89.9085186
  98.8198849  60.6547654  69.9085186  72.8198849  25.6547654  88.9085186
 120.0130580 113.0858420 101.4783290 119.9324630 112.1713030 101.2075000
 119.5995000 113.5825490 100.7723000 110.5706400 110.1359140  98.0210710
 109.6823100 110.4775110  97.9190590 110.8547590 109.9359460  97.1291540
 108.5339410 112.7364790 103.9050410 109.1055520 111.9686990 103.9054050
 108.5340950 113.0353550 102.9957020 109.7764280 108.1449150 105.6919340
 109.5967120 107.2474900 105.9722100 109.3744360 108.6921020 106.3666290
 118.6162780 110.3465010 103.5931650 118.9927600 109.4736890 103.4805320
 118.5182290 110.6823710 102.7022090 112.7467790 108.7190640  99.0549090
 112.8534540 109.6194370  99.3617850 111.8360150 108.6708610  98.7643740
 110.3950950 110.6409650 104.3001680 111.0761060 110.9048020 104.9189080
 110.0799000 109.8010520 104.6339690 114.5875520 111.6877010 103.3874270
 115.0953740 112.1857980 104.0279290 115.1188760 110.9112210 103.2113630
 112.8711620 106.3275570 107.6537690 112.8730060 106.8447960 106.8483590
 112.0415930 105.8505750 107.6307620 112.5526950 108.0385530 105.6608140
 112.8943760 108.8827580 105.3662010 111.6142760 108.1869270 105.7773480
 116.2354840 105.5267800 101.9852730 116.5429820 104.9714690 101.2688230
 115.3055540 105.6612260 101.8025720 118.6104680 109.8633630  95.7180010
 117.6708350 110.0247590  95.8032470 118.9287940 110.5819310  95.1716000
 112.9420860 110.8924580 105.2831620 113.4935450 111.0019920 104.5084870
 113.4564370 111.2662180 105.9986850 110.9296870 113.0126350  99.0039230
 110.8094470 113.7388440  98.3920500 110.6197760 112.2429260  98.5267140
 113.3960530 106.3561420 102.3862900 112.9528680 107.1370960 102.0547420
 113.9545520 106.6791310 103.0933840 117.6830340 109.2229940 107.9898220
 117.2209710 109.4312960 108.8018160 117.2808450 108.4089290 107.6868890
 116.5119350 105.9772120  97.2668730 115.8873530 105.9731990  97.9922040
 116.4249470 105.1103080  96.8704700 115.4336430 106.9008750 104.2452500
 115.7308760 107.8071580 104.1644520 115.9821990 106.4127530 103.6312070
 113.1874750 111.4794990 100.1144150 112.9615670 111.2632160 101.0190770
 112.4067280 111.9123450  99.7690120 115.6273960 112.3780570 110.7804420
 115.5317560 111.4375300 110.6304820 116.4705940 112.5995640 110.3852490
 119.0237380 110.1221900 100.7438080 119.4166950 110.4394100  99.9306770
 119.3854230 109.2433780 100.8582600 110.7584500 108.7894240 108.9338200
 110.3647890 109.6369450 109.1410980 110.0702900 108.1520610 109.1246840
 108.0601550 106.7122700 102.9668280 107.7714600 107.2825560 103.6793260
 108.8047310 106.2327150 103.3299510 108.2471780 110.6542820  94.1771000
 108.1646450 111.5973580  94.3185990 107.8954840 110.5117730  93.2983350
 119.6092520 112.7127650 104.8388860 118.8773640 113.2214460 105.1878960
 119.2116860 111.8957630 104.5377640 116.0469910 109.3881850 103.2441350
 116.0505970 108.9471800 102.3945890 116.9421030 109.7099180 103.3513170
 111.8972290 109.2708340 102.2035560 111.5572340 109.7483570 102.9602610
 111.1349610 108.8173460 101.8436660 116.1090060 110.3893930  96.2348110
 116.2302880 110.3480410  97.1833930 115.7238570 111.2518080  96.0794840
 120.0718430 108.1661330 104.2511800 120.0891170 108.6169980 105.0953650
 119.8234010 107.2666970 104.4645240 115.1211560 112.6995070  95.6331410
 114.5528460 112.2513320  95.0067320 115.8300560 113.0587850  95.0996560
 109.2118370 108.1927320 101.1200230 108.9265290 107.8282990 101.9578850
 109.1497230 107.4607780 100.5063370 114.1377250 112.4892270 107.3090970
 113.8334320 113.3684250 107.5341330 115.0923710 112.5492060 107.3448410
 118.8856960 107.0856580  97.8413600 118.0721570 106.5869750  97.7658910
 118.6918910 107.9254830  97.4249950 111.7695620 105.0597130  99.6727730
 111.6410250 105.0515030 100.6212650 110.9457640 105.3980220  99.3218740
 108.7689550 106.8188250 109.1334430 108.0548070 107.0185170 109.7387040
 109.1884590 106.0427820 109.5049230 115.5974390 110.5453450  99.1081320
 114.8890540 111.0139790  99.5494930 115.8818870 109.8875460  99.7426510
 117.2230320 111.9650150 107.1073850 117.7215570 112.4395970 107.7725700
 117.3653270 111.0413670 107.3143880 113.8009410 108.8538530  96.4832030
 114.6499940 109.2908680  96.4172220 113.4340680 109.1658790  97.3104090
 111.3947590 112.5395960  95.6400450 111.4751180 111.5923470  95.7517850
 112.2867340 112.8702840  95.7461110 112.8947280 111.0832570 109.7381180
 112.3643740 110.5923520 109.1104520 113.5635350 111.5116770 109.2039110
 113.3819580 108.0494940 109.8178470 113.2876450 107.4315690 109.0929340
 112.8016970 108.7761230 109.5908380 116.1481020 106.6068180 106.8505860
 115.6998320 106.6292440 106.0051410 115.5146220 106.2087200 107.4476160
 118.8904470 113.2338690 108.8556140 119.0100680 112.6379830 109.5950980
 119.7498470 113.2708380 108.4357440 113.6278760 111.1769250  93.8768360
 113.4267820 110.3136610  94.2381700 113.4570810 111.0902610  92.9389960
 115.6573240 109.7760040 110.1131960 116.2472930 109.4675890 110.8009780
 114.8393480 109.3039790 110.2691860 112.4261560 108.2769870  93.8646240
 112.7287460 108.2837300  92.9565390 113.1656150 107.9267730  94.3613900
 115.6446490 107.2204490  94.8502440 115.2968490 106.5428480  94.2704890
 115.8459260 106.7594000  95.6645830 108.9852130 113.7492140 101.2466810
 108.3300970 113.4803780 100.6026510 109.8230080 113.6396620 100.7968790
 109.5744060 111.0453800 109.6928570 108.6800110 111.0120560 110.0322280
 110.1141610 111.2440590 110.4579820 108.1990210 110.9591070  97.1892140
 107.2954290 111.2221270  97.0143800 108.6830830 111.2302240  96.4092100
 110.7417420 110.0156610  95.0986520 111.4509120 109.5939830  94.6133800
 110.0257360 110.0831840  94.4669870 110.3891580 106.0695940  94.1389170
 111.1119710 106.6104880  94.4570390 110.6616100 105.7959360  93.2630710
 110.0783770 105.3202130 104.0411790 110.7259960 104.7699510 103.6006950
 110.4985610 105.5745280 104.8627600 109.8315770 105.4757800 106.7837110
 109.4830590 105.9321620 107.5495290 109.5003470 104.5814930 106.8659540
 110.5036410 105.0034000 110.0587880 111.0519400 104.8222050 109.2953990
 110.5691720 104.2128110 110.5944190 118.4698010 105.8041720 105.2111020
 117.6869800 106.2787220 105.4907780 118.1760940 104.8996550 105.1024200
 109.8138420 106.1089200  97.7324740 110.5717780 106.2218080  97.1588770
 109.3515590 106.9458400  97.6868170 116.3552230 108.2228470 100.7227050
 115.5426740 107.8485360 100.3822930 116.8593870 107.4673550 101.0248240
 112.1863570 106.6353250  96.2726710 112.7156330 105.8483050  96.1434660
 112.8191890 107.3144440  96.5062240 114.3801410 106.3728390  99.3272100
 113.7504150 105.6715700  99.4942230 113.8406550 107.1332520  99.1105260
 120.0130580 113.0858420  82.7039800 119.9324630 112.1713030  82.4331510
 119.5995000 113.5825490  81.9979510 110.5706400 110.1359140  79.2467220
 109.6823100 110.4775110  79.1447100 110.8547590 109.9359460  78.3548050
 108.5339410 112.7364790  85.1306920 109.1055520 111.9686990  85.1310560
 108.5340950 113.0353550  84.2213530 109.7764280 108.1449150  86.9175850
 109.5967120 107.2474900  87.1978610 109.3744360 108.6921020  87.5922800
 118.6162780 110.3465010  84.8188160 118.9927600 109.4736890  84.7061830
 118.5182290 110.6823710  83.9278600 112.7467790 108.7190640  80.2805600
 112.8534540 109.6194370  80.5874360 111.8360150 108.6708610  79.9900250
 110.3950950 110.6409650  85.5258190 111.0761060 110.9048020  86.1445590
 110.0799000 109.8010520  85.8596200 114.5875520 111.6877010  84.6130780
 115.0953740 112.1857980  85.2535800 115.1188760 110.9112210  84.4370140
 112.8711620 106.3275570  88.8794200 112.8730060 106.8447960  88.0740100
 112.0415930 105.8505750  88.8564130 112.5526950 108.0385530  86.8864650
 112.8943760 108.8827580  86.5918520 111.6142760 108.1869270  87.0029990
 116.2354840 105.5267800  83.2109240 116.5429820 104.9714690  82.4944740
 115.3055540 105.6612260  83.0282230 118.6104680 109.8633630  76.9436520
 117.6708350 110.0247590  77.0288980 118.9287940 110.5819310  76.3972510
 112.9420860 110.8924580  86.5088130 113.4935450 111.0019920  85.7341380
 113.4564370 111.2662180  87.2243360 110.9296870 113.0126350  80.2295740
 110.8094470 113.7388440  79.6177010 110.6197760 112.2429260  79.7523650
 113.3960530 106.3561420  83.6119410 112.9528680 107.1370960  83.2803930
 113.9545520 106.6791310  84.3190350 117.6830340 109.2229940  89.2154730
 117.2209710 109.4312960  90.0274670 117.2808450 108.4089290  88.9125400
 116.5119350 105.9772120  78.4925240 115.8873530 105.9731990  79.2178550
 116.4249470 105.1103080  78.0961210 115.4336430 106.9008750  85.4709010
 115.7308760 107.8071580  85.3901030 115.9821990 106.4127530  84.8568580
 113.1874750 111.4794990  81.3400660 112.9615670 111.2632160  82.2447280
 112.4067280 111.9123450  80.9946630 115.6273960 112.3780570  92.0060930
 115.5317560 111.4375300  91.8561330 116.4705940 112.5995640  91.6109000
 119.0237380 110.1221900  81.9694590 119.4166950 110.4394100  81.1563280
 119.3854230 109.2433780  82.0839110 110.7584500 108.7894240  90.1594710
 110.3647890 109.6369450  90.3667490 110.0702900 108.1520610  90.3503350
 117.3329550 108.8729210  93.2291450 116.6427870 108.6801410  93.8637540
 118.0761850 109.1563850  93.7615750 108.0601550 106.7122700  84.1924790
 107.7714600 107.2825560  84.9049770 108.8047310 106.2327150  84.5556020
 108.2471780 110.6542820  75.4027510 108.1646450 111.5973580  75.5442500
 107.8954840 110.5117730  74.5239860 119.6092520 112.7127650  86.0645370
 118.8773640 113.2214460  86.4135470 119.2116860 111.8957630  85.7634150
 116.0469910 109.3881850  84.4697860 116.0505970 108.9471800  83.6202400
 116.9421030 109.7099180  84.5769680 111.8972290 109.2708340  83.4292070
 111.5572340 109.7483570  84.1859120 111.1349610 108.8173460  83.0693170
 116.1090060 110.3893930  77.4604620 116.2302880 110.3480410  78.4090440
 115.7238570 111.2518080  77.3051350 120.0718430 108.1661330  85.4768310
 120.0891170 108.6169980  86.3210160 119.8234010 107.2666970  85.6901750
 115.1211560 112.6995070  76.8587920 114.5528460 112.2513320  76.2323830
 115.8300560 113.0587850  76.3253070 109.2118370 108.1927320  82.3456740
 108.9265290 107.8282990  83.1835360 109.1497230 107.4607780  81.7319880
 114.1377250 112.4892270  88.5347480 113.8334320 113.3684250  88.7597840
 115.0923710 112.5492060  88.5704920 118.8856960 107.0856580  79.0670110
 118.0721570 106.5869750  78.9915420 118.6918910 107.9254830  78.6506460
 111.7695620 105.0597130  80.8984240 111.6410250 105.0515030  81.8469160
 110.9457640 105.3980220  80.5475250 108.7689550 106.8188250  90.3590940
 108.0548070 107.0185170  90.9643550 109.1884590 106.0427820  90.7305740
 115.5974390 110.5453450  80.3337830 114.8890540 111.0139790  80.7751440
 115.8818870 109.8875460  80.9683020 117.2230320 111.9650150  88.3330360
 117.7215570 112.4395970  88.9982210 117.3653270 111.0413670  88.5400390
 113.8009410 108.8538530  77.7088540 114.6499940 109.2908680  77.6428730
 113.4340680 109.1658790  78.5360600 111.3947590 112.5395960  76.8656960
 111.4751180 111.5923470  76.9774360 112.2867340 112.8702840  76.9717620
 110.9541470 112.5040470  92.9963200 110.9946810 112.2054340  93.9048430
 111.8086970 112.9048080  92.8370720 112.8947280 111.0832570  90.9637690
 112.3643740 110.5923520  90.3361030 113.5635350 111.5116770  90.4295620
 113.3819580 108.0494940  91.0434980 113.2876450 107.4315690  90.3185850
 112.8016970 108.7761230  90.8164890 116.1481020 106.6068180  88.0762370
 115.6998320 106.6292440  87.2307920 115.5146220 106.2087200  88.6732670
 118.8904470 113.2338690  90.0812650 119.0100680 112.6379830  90.8207490
 119.7498470 113.2708380  89.6613950 113.6278760 111.1769250  75.1024870
 113.4267820 110.3136610  75.4638210 113.4570810 111.0902610  74.1646470
 115.6573240 109.7760040  91.3388470 116.2472930 109.4675890  92.0266290
 114.8393480 109.3039790  91.4948370 112.4261560 108.2769870  75.0902750
 112.7287460 108.2837300  74.1821900 113.1656150 107.9267730  75.5870410
 115.6446490 107.2204490  76.0758950 115.2968490 106.5428480  75.4961400
 115.8459260 106.7594000  76.8902340 108.9852130 113.7492140  82.4723320
 108.3300970 113.4803780  81.8283020 109.8230080 113.6396620  82.0225300
 109.5744060 111.0453800  90.9185080 108.6800110 111.0120560  91.2578790
 110.1141610 111.2440590  91.6836330 108.1990210 110.9591070  78.4148650
 107.2954290 111.2221270  78.2400310 108.6830830 111.2302240  77.6348610
 110.7417420 110.0156610  76.3243030 111.4509120 109.5939830  75.8390310
 110.0257360 110.0831840  75.6926380 110.3891580 106.0695940  75.3645680
 111.1119710 106.6104880  75.6826900 110.6616100 105.7959360  74.4887220
 110.0783770 105.3202130  85.2668300 110.7259960 104.7699510  84.8263460
 110.4985610 105.5745280  86.0884110 109.8315770 105.4757800  88.0093620
 109.4830590 105.9321620  88.7751800 109.5003470 104.5814930  88.0916050
 117.3440590 106.6669680  91.5313040 117.2829480 107.2591510  92.2808450
 118.2840970 106.5595640  91.3863300 110.5036410 105.0034000  91.2844390
 111.0519400 104.8222050  90.5210500 110.5691720 104.2128110  91.8200700
 118.4698010 105.8041720  86.4367530 117.6869800 106.2787220  86.7164290
 118.1760940 104.8996550  86.3280710 109.8138420 106.1089200  78.9581250
 110.5717780 106.2218080  78.3845280 109.3515590 106.9458400  78.9124680
 116.3552230 108.2228470  81.9483560 115.5426740 107.8485360  81.6079440
 116.8593870 107.4673550  82.2504750 112.1863570 106.6353250  77.4983220
 112.7156330 105.8483050  77.3691170 112.8191890 107.3144440  77.7318750
 114.3801410 106.3728390  80.5528610 113.7504150 105.6715700  80.7198740
 113.8406550 107.1332520  80.3361770 114.5056970 105.6512370  92.9881100
 114.2241240 106.1545970  92.2241920 114.8876670 104.8534120  92.6223230
 120.0130580 113.0858420  63.9296310 119.9324630 112.1713030  63.6588020
 119.5995000 113.5825490  63.2236020 110.5706400 110.1359140  60.4723730
 109.6823100 110.4775110  60.3703610 110.8547590 109.9359460  59.5804560
 108.5339410 112.7364790  66.3563430 109.1055520 111.9686990  66.3567070
 108.5340950 113.0353550  65.4470040 109.7764280 108.1449150  68.1432360
 109.5967120 107.2474900  68.4235120 109.3744360 108.6921020  68.8179310
 118.6162780 110.3465010  66.0444670 118.9927600 109.4736890  65.9318340
 118.5182290 110.6823710  65.1535110 112.7467790 108.7190640  61.5062110
 112.8534540 109.6194370  61.8130870 111.8360150 108.6708610  61.2156760
 110.3950950 110.6409650  66.7514700 111.0761060 110.9048020  67.3702100
 110.0799000 109.8010520  67.0852710 114.5875520 111.6877010  65.8387290
 115.0953740 112.1857980  66.4792310 115.1188760 110.9112210  65.6626650
 112.8711620 106.3275570  70.1050710 112.8730060 106.8447960  69.2996610
 112.0415930 105.8505750  70.0820640 112.5526950 108.0385530  68.1121160
 112.8943760 108.8827580  67.8175030 111.6142760 108.1869270  68.2286500
 116.2354840 105.5267800  64.4365750 116.5429820 104.9714690  63.7201250
 115.3055540 105.6612260  64.2538740 118.6104680 109.8633630  58.1693030
 117.6708350 110.0247590  58.2545490 118.9287940 110.5819310  57.6229020
 112.9420860 110.8924580  67.7344640 113.4935450 111.0019920  66.9597890
 113.4564370 111.2662180  68.4499870 110.9296870 113.0126350  61.4552250
 110.8094470 113.7388440  60.8433520 110.6197760 112.2429260  60.9780160
 113.3960530 106.3561420  64.8375920 112.9528680 107.1370960  64.5060440
 113.9545520 106.6791310  65.5446860 117.6830340 109.2229940  70.4411240
 117.2209710 109.4312960  71.2531180 117.2808450 108.4089290  70.1381910
 116.5119350 105.9772120  59.7181750 115.8873530 105.9731990  60.4435060
 116.4249470 105.1103080  59.3217720 115.4336430 106.9008750  66.6965520
 115.7308760 107.8071580  66.6157540 115.9821990 106.4127530  66.0825090
 113.1874750 111.4794990  62.5657170 112.9615670 111.2632160  63.4703790
 112.4067280 111.9123450  62.2203140 115.6273960 112.3780570  73.2317440
 115.5317560 111.4375300  73.0817840 116.4705940 112.5995640  72.8365510
 119.0237380 110.1221900  63.1951100 119.4166950 110.4394100  62.3819790
 119.3854230 109.2433780  63.3095620 110.7584500 108.7894240  71.3851220
 110.3647890 109.6369450  71.5924000 110.0702900 108.1520610  71.5759860
 117.3329550 108.8729210  74.4547960 116.6427870 108.6801410  75.0894050
 118.0761850 109.1563850  74.9872260 108.0601550 106.7122700  65.4181300
 107.7714600 107.2825560  66.1306280 108.8047310 106.2327150  65.7812530
 108.2471780 110.6542820  56.6284020 108.1646450 111.5973580  56.7699010
 107.8954840 110.5117730  55.7496370 119.6092520 112.7127650  67.2901880
 118.8773640 113.2214460  67.6391980 119.2116860 111.8957630  66.9890660
 116.0469910 109.3881850  65.6954370 116.0505970 108.9471800  64.8458910
 116.9421030 109.7099180  65.8026190 111.8972290 109.2708340  64.6548580
 111.5572340 109.7483570  65.4115630 111.1349610 108.8173460  64.2949680
 116.1090060 110.3893930  58.6861130 116.2302880 110.3480410  59.6346950
 115.7238570 111.2518080  58.5307860 120.0718430 108.1661330  66.7024820
 120.0891170 108.6169980  67.5466670 119.8234010 107.2666970  66.9158260
 115.1211560 112.6995070  58.0844430 114.5528460 112.2513320  57.4580340
 115.8300560 113.0587850  57.5509580 109.2118370 108.1927320  63.5713250
 108.9265290 107.8282990  64.4091870 109.1497230 107.4607780  62.9576390
 114.1377250 112.4892270  69.7603990 113.8334320 113.3684250  69.9854350
 115.0923710 112.5492060  69.7961430 118.8856960 107.0856580  60.2926620
 118.0721570 106.5869750  60.2171930 118.6918910 107.9254830  59.8762970
 111.7695620 105.0597130  62.1240750 111.6410250 105.0515030  63.0725670
 110.9457640 105.3980220  61.7731760 108.7689550 106.8188250  71.5847450
 108.0548070 107.0185170  72.1900060 109.1884590 106.0427820  71.9562250
 115.5974390 110.5453450  61.5594340 114.8890540 111.0139790  62.0007950
 115.8818870 109.8875460  62.1939530 117.2230320 111.9650150  69.5586870
 117.7215570 112.4395970  70.2238720 117.3653270 111.0413670  69.7656900
 113.8009410 108.8538530  58.9345050 114.6499940 109.2908680  58.8685240
 113.4340680 109.1658790  59.7617110 111.3947590 112.5395960  58.0913470
 111.4751180 111.5923470  58.2030870 112.2867340 112.8702840  58.1974130
 110.9541470 112.5040470  74.2219710 110.9946810 112.2054340  75.1304940
 111.8086970 112.9048080  74.0627230 112.8947280 111.0832570  72.1894200
 112.3643740 110.5923520  71.5617540 113.5635350 111.5116770  71.6552130
 113.3819580 108.0494940  72.2691490 113.2876450 107.4315690  71.5442360
 112.8016970 108.7761230  72.0421400 116.1481020 106.6068180  69.3018880
 115.6998320 106.6292440  68.4564430 115.5146220 106.2087200  69.8989180
 118.8904470 113.2338690  71.3069160 119.0100680 112.6379830  72.0464000
 119.7498470 113.2708380  70.8870460 113.6278760 111.1769250  56.3281380
 113.4267820 110.3136610  56.6894720 113.4570810 111.0902610  55.3902980
 115.6573240 109.7760040  72.5644980 116.2472930 109.4675890  73.2522800
 114.8393480 109.3039790  72.7204880 112.4261560 108.2769870  56.3159260
 112.7287460 108.2837300  55.4078410 113.1656150 107.9267730  56.8126920
 115.6446490 107.2204490  57.3015460 115.2968490 106.5428480  56.7217910
 115.8459260 106.7594000  58.1158850 108.9852130 113.7492140  63.6979830
 108.3300970 113.4803780  63.0539530 109.8230080 113.6396620  63.2481810
 109.5744060 111.0453800  72.1441590 108.6800110 111.0120560  72.4835300
 110.1141610 111.2440590  72.9092840 108.1990210 110.9591070  59.6405160
 107.2954290 111.2221270  59.4656820 108.6830830 111.2302240  58.8605120
 110.7417420 110.0156610  57.5499540 111.4509120 109.5939830  57.0646820
 110.0257360 110.0831840  56.9182890 110.3891580 106.0695940  56.5902190
 111.1119710 106.6104880  56.9083410 110.6616100 105.7959360  55.7143730
 110.0783770 105.3202130  66.4924810 110.7259960 104.7699510  66.0519970
 110.4985610 105.5745280  67.3140620 109.8315770 105.4757800  69.2350130
 109.4830590 105.9321620  70.0008310 109.5003470 104.5814930  69.3172560
 117.3440590 106.6669680  72.7569550 117.2829480 107.2591510  73.5064960
 118.2840970 106.5595640  72.6119810 110.5036410 105.0034000  72.5100900
 111.0519400 104.8222050  71.7467010 110.5691720 104.2128110  73.0457210
 118.4698010 105.8041720  67.6624040 117.6869800 106.2787220  67.9420800
 118.1760940 104.8996550  67.5537220 109.8138420 106.1089200  60.1837760
 110.5717780 106.2218080  59.6101790 109.3515590 106.9458400  60.1381190
 116.3552230 108.2228470  63.1740070 115.5426740 107.8485360  62.8335950
 116.8593870 107.4673550  63.4761260 112.1863570 106.6353250  58.7239730
 112.7156330 105.8483050  58.5947680 112.8191890 107.3144440  58.9575260
 114.3801410 106.3728390  61.7785120 113.7504150 105.6715700  61.9455250
 113.8406550 107.1332520  61.5618280 114.5056970 105.6512370  74.2137610
 114.2241240 106.1545970  73.4498430 114.8876670 104.8534120  73.8479740
 120.0130580 113.0858420  45.1552820 119.9324630 112.1713030  44.8844530
 119.5995000 113.5825490  44.4492530 110.5706400 110.1359140  41.6980240
 109.6823100 110.4775110  41.5960120 110.8547590 109.9359460  40.8061070
 108.5339410 112.7364790  47.5819940 109.1055520 111.9686990  47.5823580
 108.5340950 113.0353550  46.6726550 109.7764280 108.1449150  49.3688870
 109.5967120 107.2474900  49.6491630 109.3744360 108.6921020  50.0435820
 118.6162780 110.3465010  47.2701180 118.9927600 109.4736890  47.1574850
 118.5182290 110.6823710  46.3791620 112.7467790 108.7190640  42.7318620
 112.8534540 109.6194370  43.0387380 111.8360150 108.6708610  42.4413270
 110.3950950 110.6409650  47.9771210 111.0761060 110.9048020  48.5958610
 110.0799000 109.8010520  48.3109220 114.5875520 111.6877010  47.0643800
 115.0953740 112.1857980  47.7048820 115.1188760 110.9112210  46.8883160
 112.8711620 106.3275570  51.3307220 112.8730060 106.8447960  50.5253120
 112.0415930 105.8505750  51.3077150 112.5526950 108.0385530  49.3377670
 112.8943760 108.8827580  49.0431540 111.6142760 108.1869270  49.4543010
 116.2354840 105.5267800  45.6622260 116.5429820 104.9714690  44.9457760
 115.3055540 105.6612260  45.4795250 118.6104680 109.8633630  39.3949540
 117.6708350 110.0247590  39.4802000 118.9287940 110.5819310  38.8485530
 112.9420860 110.8924580  48.9601150 113.4935450 111.0019920  48.1854400
 113.4564370 111.2662180  49.6756380 110.9296870 113.0126350  42.6808760
 110.8094470 113.7388440  42.0690030 110.6197760 112.2429260  42.2036670
 113.3960530 106.3561420  46.0632430 112.9528680 107.1370960  45.7316950
 113.9545520 106.6791310  46.7703370 117.6830340 109.2229940  51.6667750
 117.2209710 109.4312960  52.4787690 117.2808450 108.4089290  51.3638420
 116.5119350 105.9772120  40.9438260 115.8873530 105.9731990  41.6691570
 116.4249470 105.1103080  40.5474230 115.4336430 106.9008750  47.9222030
 115.7308760 107.8071580  47.8414050 115.9821990 106.4127530  47.3081600
 113.1874750 111.4794990  43.7913680 112.9615670 111.2632160  44.6960300
 112.4067280 111.9123450  43.4459650 115.6273960 112.3780570  54.4573950
 115.5317560 111.4375300  54.3074350 116.4705940 112.5995640  54.0622020
 119.0237380 110.1221900  44.4207610 119.4166950 110.4394100  43.6076300
 119.3854230 109.2433780  44.5352130 110.7584500 108.7894240  52.6107730
 110.3647890 109.6369450  52.8180510 110.0702900 108.1520610  52.8016370
 117.3329550 108.8729210  55.6804470 116.6427870 108.6801410  56.3150560
 118.0761850 109.1563850  56.2128770 108.0601550 106.7122700  46.6437810
 107.7714600 107.2825560  47.3562790 108.8047310 106.2327150  47.0069040
 108.2471780 110.6542820  37.8540530 108.1646450 111.5973580  37.9955520
 107.8954840 110.5117730  36.9752880 119.6092520 112.7127650  48.5158390
 118.8773640 113.2214460  48.8648490 119.2116860 111.8957630  48.2147170
 116.0469910 109.3881850  46.9210880 116.0505970 108.9471800  46.0715420
 116.9421030 109.7099180  47.0282700 111.8972290 109.2708340  45.8805090
 111.5572340 109.7483570  46.6372140 111.1349610 108.8173460  45.5206190
 116.1090060 110.3893930  39.9117640 116.2302880 110.3480410  40.8603460
 115.7238570 111.2518080  39.7564370 120.0718430 108.1661330  47.9281330
 120.0891170 108.6169980  48.7723180 119.8234010 107.2666970  48.1414770
 115.1211560 112.6995070  39.3100940 114.5528460 112.2513320  38.6836850
 115.8300560 113.0587850  38.7766090 109.2118370 108.1927320  44.7969760
 108.9265290 107.8282990  45.6348380 109.1497230 107.4607780  44.1832900
 114.1377250 112.4892270  50.9860500 113.8334320 113.3684250  51.2110860
 115.0923710 112.5492060  51.0217940 118.8856960 107.0856580  41.5183130
 118.0721570 106.5869750  41.4428440 118.6918910 107.9254830  41.1019480
 111.7695620 105.0597130  43.3497260 111.6410250 105.0515030  44.2982180
 110.9457640 105.3980220  42.9988270 108.7689550 106.8188250  52.8103960
 108.0548070 107.0185170  53.4156570 109.1884590 106.0427820  53.1818760
 115.5974390 110.5453450  42.7850850 114.8890540 111.0139790  43.2264460
 115.8818870 109.8875460  43.4196040 117.2230320 111.9650150  50.7843380
 117.7215570 112.4395970  51.4495230 117.3653270 111.0413670  50.9913410
 113.8009410 108.8538530  40.1601560 114.6499940 109.2908680  40.0941750
 113.4340680 109.1658790  40.9873620 111.3947590 112.5395960  39.3169980
 111.4751180 111.5923470  39.4287380 112.2867340 112.8702840  39.4230640
 110.9541470 112.5040470  55.4476220 110.9946810 112.2054340  56.3561450
 111.8086970 112.9048080  55.2883740 112.8947280 111.0832570  53.4150710
 112.3643740 110.5923520  52.7874050 113.5635350 111.5116770  52.8808640
 113.3819580 108.0494940  53.4948000 113.2876450 107.4315690  52.7698870
 112.8016970 108.7761230  53.2677910 116.1481020 106.6068180  50.5275390
 115.6998320 106.6292440  49.6820940 115.5146220 106.2087200  51.1245690
 118.8904470 113.2338690  52.5325670 119.0100680 112.6379830  53.2720510
 119.7498470 113.2708380  52.1126970 113.6278760 111.1769250  37.5537890
 113.4267820 110.3136610  37.9151230 113.4570810 111.0902610  36.6159490
 115.6573240 109.7760040  53.7901490 116.2472930 109.4675890  54.4779310
 114.8393480 109.3039790  53.9461390 112.4261560 108.2769870  37.5415770
 112.7287460 108.2837300  36.6334920 113.1656150 107.9267730  38.0383430
 115.6446490 107.2204490  38.5271970 115.2968490 106.5428480  37.9474420
 115.8459260 106.7594000  39.3415360 108.9852130 113.7492140  44.9236340
 108.3300970 113.4803780  44.2796040 109.8230080 113.6396620  44.4738320
 109.5744060 111.0453800  53.3698100 108.6800110 111.0120560  53.7091810
 110.1141610 111.2440590  54.1349350 108.1990210 110.9591070  40.8661670
 107.2954290 111.2221270  40.6913330 108.6830830 111.2302240  40.0861630
 110.7417420 110.0156610  38.7756050 111.4509120 109.5939830  38.2903330
 110.0257360 110.0831840  38.1439400 110.3891580 106.0695940  37.8158700
 111.1119710 106.6104880  38.1339920 110.6616100 105.7959360  36.9400240
 110.0783770 105.3202130  47.7181320 110.7259960 104.7699510  47.2776480
 110.4985610 105.5745280  48.5397130 109.8315770 105.4757800  50.4606640
 109.4830590 105.9321620  51.2264820 109.5003470 104.5814930  50.5429070
 117.3440590 106.6669680  53.9826060 117.2829480 107.2591510  54.7321470
 118.2840970 106.5595640  53.8376320 110.5036410 105.0034000  53.7357410
 111.0519400 104.8222050  52.9723520 110.5691720 104.2128110  54.2713720
 118.4698010 105.8041720  48.8880550 117.6869800 106.2787220  49.1677310
 118.1760940 104.8996550  48.7793730 109.8138420 106.1089200  41.4094270
 110.5717780 106.2218080  40.8358300 109.3515590 106.9458400  41.3637700
 116.3552230 108.2228470  44.3996580 115.5426740 107.8485360  44.0592460
 116.8593870 107.4673550  44.7017770 112.1863570 106.6353250  39.9496240
 112.7156330 105.8483050  39.8204190 112.8191890 107.3144440  40.1831770
 114.3801410 106.3728390  43.0041630 113.7504150 105.6715700  43.1711760
 113.8406550 107.1332520  42.7874790 114.5056970 105.6512370  55.4394120
 114.2241240 106.1545970  54.6754940 114.8876670 104.8534120  55.0736250
 120.0130580 113.0858420  26.3809330 119.9324630 112.1713030  26.1101040
 119.5995000 113.5825490  25.6749040 110.5706400 110.1359140  22.9236750
 109.6823100 110.4775110  22.8216630 110.8547590 109.9359460  22.0317580
 108.5339410 112.7364790  28.8076450 109.1055520 111.9686990  28.8080090
 108.5340950 113.0353550  27.8983060 109.7764280 108.1449150  30.5945380
 109.5967120 107.2474900  30.8748140 109.3744360 108.6921020  31.2692330
 118.6162780 110.3465010  28.4957690 118.9927600 109.4736890  28.3831360
 118.5182290 110.6823710  27.6048130 112.7467790 108.7190640  23.9575130
 112.8534540 109.6194370  24.2643890 111.8360150 108.6708610  23.6669780
 110.3950950 110.6409650  29.2027720 111.0761060 110.9048020  29.8215120
 110.0799000 109.8010520  29.5365730 114.5875520 111.6877010  28.2900310
 115.0953740 112.1857980  28.9305330 115.1188760 110.9112210  28.1139670
 112.8711620 106.3275570  32.5563730 112.8730060 106.8447960  31.7509630
 112.0415930 105.8505750  32.5333660 112.5526950 108.0385530  30.5634180
 112.8943760 108.8827580  30.2688050 111.6142760 108.1869270  30.6799520
 116.2354840 105.5267800  26.8878770 116.5429820 104.9714690  26.1714270
 115.3055540 105.6612260  26.7051760 118.6104680 109.8633630  20.6206050
 117.6708350 110.0247590  20.7058510 118.9287940 110.5819310  20.0742040
 112.9420860 110.8924580  30.1857660 113.4935450 111.0019920  29.4110910
 113.4564370 111.2662180  30.9012890 110.9296870 113.0126350  23.9065270
 110.8094470 113.7388440  23.2946540 110.6197760 112.2429260  23.4293180
 113.3960530 106.3561420  27.2888940 112.9528680 107.1370960  26.9573460
 113.9545520 106.6791310  27.9959880 117.6830340 109.2229940  32.8924260
 117.2209710 109.4312960  33.7044200 117.2808450 108.4089290  32.5894930
 116.5119350 105.9772120  22.1694770 115.8873530 105.9731990  22.8948080
 116.4249470 105.1103080  21.7730740 115.4336430 106.9008750  29.1478540
 115.7308760 107.8071580  29.0670560 115.9821990 106.4127530  28.5338110
 113.1874750 111.4794990  25.0170190 112.9615670 111.2632160  25.9216810
 112.4067280 111.9123450  24.6716160 115.6273960 112.3780570  35.6830460
 115.5317560 111.4375300  35.5330860 116.4705940 112.5995640  35.2878530
 119.0237380 110.1221900  25.6464120 119.4166950 110.4394100  24.8332810
 119.3854230 109.2433780  25.7608640 110.7584500 108.7894240  33.8364240
 110.3647890 109.6369450  34.0437020 110.0702900 108.1520610  34.0272880
 117.3329550 108.8729210  36.9060980 116.6427870 108.6801410  37.5407070
 118.0761850 109.1563850  37.4385280 108.0601550 106.7122700  27.8694320
 107.7714600 107.2825560  28.5819300 108.8047310 106.2327150  28.2325550
 108.2471780 110.6542820  19.0797040 108.1646450 111.5973580  19.2212030
 107.8954840 110.5117730  18.2009390 119.6092520 112.7127650  29.7414900
 118.8773640 113.2214460  30.0905000 119.2116860 111.8957630  29.4403680
 116.0469910 109.3881850  28.1467390 116.0505970 108.9471800  27.2971930
 116.9421030 109.7099180  28.2539210 111.8972290 109.2708340  27.1061600
 111.5572340 109.7483570  27.8628650 111.1349610 108.8173460  26.7462700
 116.1090060 110.3893930  21.1374150 116.2302880 110.3480410  22.0859970
 115.7238570 111.2518080  20.9820880 120.0718430 108.1661330  29.1537840
 120.0891170 108.6169980  29.9979690 119.8234010 107.2666970  29.3671280
 115.1211560 112.6995070  20.5357450 114.5528460 112.2513320  19.9093360
 115.8300560 113.0587850  20.0022600 109.2118370 108.1927320  26.0226270
 108.9265290 107.8282990  26.8604890 109.1497230 107.4607780  25.4089410
 114.1377250 112.4892270  32.2117010 113.8334320 113.3684250  32.4367370
 115.0923710 112.5492060  32.2474450 118.8856960 107.0856580  22.7439640
 118.0721570 106.5869750  22.6684950 118.6918910 107.9254830  22.3275990
 111.7695620 105.0597130  24.5753770 111.6410250 105.0515030  25.5238690
 110.9457640 105.3980220  24.2244780 108.7689550 106.8188250  34.0360470
 108.0548070 107.0185170  34.6413080 109.1884590 106.0427820  34.4075270
 115.5974390 110.5453450  24.0107360 114.8890540 111.0139790  24.4520970
 115.8818870 109.8875460  24.6452550 117.2230320 111.9650150  32.0099890
 117.7215570 112.4395970  32.6751740 117.3653270 111.0413670  32.2169920
 113.8009410 108.8538530  21.3858070 114.6499940 109.2908680  21.3198260
 113.4340680 109.1658790  22.2130130 111.3947590 112.5395960  20.5426490
 111.4751180 111.5923470  20.6543890 112.2867340 112.8702840  20.6487150
 110.9541470 112.5040470  36.6732730 110.9946810 112.2054340  37.5817960
 111.8086970 112.9048080  36.5140250 112.8947280 111.0832570  34.6407220
 112.3643740 110.5923520  34.0130560 113.5635350 111.5116770  34.1065150
 113.3819580 108.0494940  34.7204510 113.2876450 107.4315690  33.9955380
 112.8016970 108.7761230  34.4934420 116.1481020 106.6068180  31.7531900
 115.6998320 106.6292440  30.9077450 115.5146220 106.2087200  32.3502200
 118.8904470 113.2338690  33.7582180 119.0100680 112.6379830  34.4977020
 119.7498470 113.2708380  33.3383480 113.6278760 111.1769250  18.7794400
 113.4267820 110.3136610  19.1407740 113.4570810 111.0902610  17.8416000
 115.6573240 109.7760040  35.0158000 116.2472930 109.4675890  35.7035820
 114.8393480 109.3039790  35.1717900 112.4261560 108.2769870  18.7672280
 112.7287460 108.2837300  17.8591430 113.1656150 107.9267730  19.2639940
 115.6446490 107.2204490  19.7528480 115.2968490 106.5428480  19.1730930
 115.8459260 106.7594000  20.5671870 108.9852130 113.7492140  26.1492850
 108.3300970 113.4803780  25.5052550 109.8230080 113.6396620  25.6994830
 109.5744060 111.0453800  34.5954610 108.6800110 111.0120560  34.9348320
 110.1141610 111.2440590  35.3605860 108.1990210 110.9591070  22.0918180
 107.2954290 111.2221270  21.9169840 108.6830830 111.2302240  21.3118140
 110.7417420 110.0156610  20.0012560 111.4509120 109.5939830  19.5159840
 110.0257360 110.0831840  19.3695910 110.3891580 106.0695940  19.0415210
 111.1119710 106.6104880  19.3596430 110.6616100 105.7959360  18.1656750
 110.0783770 105.3202130  28.9437830 110.7259960 104.7699510  28.5032990
 110.4985610 105.5745280  29.7653640 109.8315770 105.4757800  31.6863150
 109.4830590 105.9321620  32.4521330 109.5003470 104.5814930  31.7685580
 117.3440590 106.6669680  35.2082570 117.2829480 107.2591510  35.9577980
 118.2840970 106.5595640  35.0632830 110.5036410 105.0034000  34.9613920
 111.0519400 104.8222050  34.1980030 110.5691720 104.2128110  35.4970230
 118.4698010 105.8041720  30.1137060 117.6869800 106.2787220  30.3933820
 118.1760940 104.8996550  30.0050240 109.8138420 106.1089200  22.6350780
 110.5717780 106.2218080  22.0614810 109.3515590 106.9458400  22.5894210
 116.3552230 108.2228470  25.6253090 115.5426740 107.8485360  25.2848970
 116.8593870 107.4673550  25.9274280 112.1863570 106.6353250  21.1752750
 112.7156330 105.8483050  21.0460700 112.8191890 107.3144440  21.4088280
 114.3801410 106.3728390  24.2298140 113.7504150 105.6715700  24.3968270
 113.8406550 107.1332520  24.0131300 114.5056970 105.6512370  36.6650630
 114.2241240 106.1545970  35.9011450 114.8876670 104.8534120  36.2992760
 120.0130580 113.0858420   7.6065840 119.9324630 112.1713030   7.3357550
 119.5995000 113.5825490   6.9005550 110.5706400 110.1359140   4.1493260
 109.6823100 110.4775110   4.0473140 110.8547590 109.9359460   3.2574090
 108.5339410 112.7364790  10.0332960 109.1055520 111.9686990  10.0336600
 108.5340950 113.0353550   9.1239570 109.7764280 108.1449150  11.8201890
 109.5967120 107.2474900  12.1004650 109.3744360 108.6921020  12.4948840
 118.6162780 110.3465010   9.7214200 118.9927600 109.4736890   9.6087870
 118.5182290 110.6823710   8.8304640 112.7467790 108.7190640   5.1831640
 112.8534540 109.6194370   5.4900400 111.8360150 108.6708610   4.8926290
 110.3950950 110.6409650  10.4284230 111.0761060 110.9048020  11.0471630
 110.0799000 109.8010520  10.7622240 114.5875520 111.6877010   9.5156820
 115.0953740 112.1857980  10.1561840 115.1188760 110.9112210   9.3396180
 112.8711620 106.3275570  13.7820240 112.8730060 106.8447960  12.9766140
 112.0415930 105.8505750  13.7590170 112.5526950 108.0385530  11.7890690
 112.8943760 108.8827580  11.4944560 111.6142760 108.1869270  11.9056030
 116.2354840 105.5267800   8.1135280 116.5429820 104.9714690   7.3970780
 115.3055540 105.6612260   7.9308270 118.6104680 109.8633630   1.8462560
 117.6708350 110.0247590   1.9315020 118.9287940 110.5819310   1.2998550
 112.9420860 110.8924580  11.4114170 113.4935450 111.0019920  10.6367420
 113.4564370 111.2662180  12.1269400 110.9296870 113.0126350   5.1321780
 110.8094470 113.7388440   4.5203050 110.6197760 112.2429260   4.6549690
 113.3960530 106.3561420   8.5145450 112.9528680 107.1370960   8.1829970
 113.9545520 106.6791310   9.2216390 117.6830340 109.2229940  14.1180770
 117.2209710 109.4312960  14.9300710 117.2808450 108.4089290  13.8151440
 116.5119350 105.9772120   3.3951280 115.8873530 105.9731990   4.1204590
 116.4249470 105.1103080   2.9987250 115.4336430 106.9008750  10.3735050
 115.7308760 107.8071580  10.2927070 115.9821990 106.4127530   9.7594620
 113.1874750 111.4794990   6.2426700 112.9615670 111.2632160   7.1473320
 112.4067280 111.9123450   5.8972670 115.6273960 112.3780570  16.9086970
 115.5317560 111.4375300  16.7587370 116.4705940 112.5995640  16.5135040
 119.0237380 110.1221900   6.8720630 119.4166950 110.4394100   6.0589320
 119.3854230 109.2433780   6.9865150 110.7584500 108.7894240  15.0620750
 110.3647890 109.6369450  15.2693530 110.0702900 108.1520610  15.2529390
 117.3329550 108.8729210  18.1317490 116.6427870 108.6801410  18.7663580
 118.0761850 109.1563850  18.6641790 108.0601550 106.7122700   9.0950830
 107.7714600 107.2825560   9.8075810 108.8047310 106.2327150   9.4582060
 119.6092520 112.7127650  10.9671410 118.8773640 113.2214460  11.3161510
 119.2116860 111.8957630  10.6660190 116.0469910 109.3881850   9.3723900
 116.0505970 108.9471800   8.5228440 116.9421030 109.7099180   9.4795720
 111.8972290 109.2708340   8.3318110 111.5572340 109.7483570   9.0885160
 111.1349610 108.8173460   7.9719210 116.1090060 110.3893930   2.3630660
 116.2302880 110.3480410   3.3116480 115.7238570 111.2518080   2.2077390
 120.0718430 108.1661330  10.3794350 120.0891170 108.6169980  11.2236200
 119.8234010 107.2666970  10.5927790 109.2118370 108.1927320   7.2482780
 108.9265290 107.8282990   8.0861400 109.1497230 107.4607780   6.6345920
 114.1377250 112.4892270  13.4373520 113.8334320 113.3684250  13.6623880
 115.0923710 112.5492060  13.4730960 118.8856960 107.0856580   3.9696150
 118.0721570 106.5869750   3.8941460 118.6918910 107.9254830   3.5532500
 111.7695620 105.0597130   5.8010280 111.6410250 105.0515030   6.7495200
 110.9457640 105.3980220   5.4501290 108.7689550 106.8188250  15.2616980
 108.0548070 107.0185170  15.8669590 109.1884590 106.0427820  15.6331780
 115.5974390 110.5453450   5.2363870 114.8890540 111.0139790   5.6777480
 115.8818870 109.8875460   5.8709060 117.2230320 111.9650150  13.2356400
 117.7215570 112.4395970  13.9008250 117.3653270 111.0413670  13.4426430
 113.8009410 108.8538530   2.6114580 114.6499940 109.2908680   2.5454770
 113.4340680 109.1658790   3.4386640 111.3947590 112.5395960   1.7683000
 111.4751180 111.5923470   1.8800400 112.2867340 112.8702840   1.8743660
 110.9541470 112.5040470  17.8989240 110.9946810 112.2054340  18.8074470
 111.8086970 112.9048080  17.7396760 112.8947280 111.0832570  15.8663730
 112.3643740 110.5923520  15.2387070 113.5635350 111.5116770  15.3321660
 113.3819580 108.0494940  15.9461020 113.2876450 107.4315690  15.2211890
 112.8016970 108.7761230  15.7190930 116.1481020 106.6068180  12.9788410
 115.6998320 106.6292440  12.1333960 115.5146220 106.2087200  13.5758710
 118.8904470 113.2338690  14.9838690 119.0100680 112.6379830  15.7233530
 119.7498470 113.2708380  14.5639990 115.6573240 109.7760040  16.2414510
 116.2472930 109.4675890  16.9292330 114.8393480 109.3039790  16.3974410
 108.9852130 113.7492140   7.3749360 108.3300970 113.4803780   6.7309060
 109.8230080 113.6396620   6.9251340 109.5744060 111.0453800  15.8211120
 108.6800110 111.0120560  16.1604830 110.1141610 111.2440590  16.5862370
 108.1990210 110.9591070   3.3174690 107.2954290 111.2221270   3.1426350
 108.6830830 111.2302240   2.5374650 110.0783770 105.3202130  10.1694340
 110.7259960 104.7699510   9.7289500 110.4985610 105.5745280  10.9910150
 109.8315770 105.4757800  12.9119660 109.4830590 105.9321620  13.6777840
 109.5003470 104.5814930  12.9942090 117.3440590 106.6669680  16.4339080
 117.2829480 107.2591510  17.1834490 118.2840970 106.5595640  16.2889340
 110.5036410 105.0034000  16.1870430 111.0519400 104.8222050  15.4236540
 110.5691720 104.2128110  16.7226740 118.4698010 105.8041720  11.3393570
 117.6869800 106.2787220  11.6190330 118.1760940 104.8996550  11.2306750
 109.8138420 106.1089200   3.8607290 110.5717780 106.2218080   3.2871320
 109.3515590 106.9458400   3.8150720 116.3552230 108.2228470   6.8509600
 115.5426740 107.8485360   6.5105480 116.8593870 107.4673550   7.1530790
 112.1863570 106.6353250   2.4009260 112.7156330 105.8483050   2.2717210
 112.8191890 107.3144440   2.6344790 114.3801410 106.3728390   5.4554650
 113.7504150 105.6715700   5.6224780 113.8406550 107.1332520   5.2387810
 114.5056970 105.6512370  17.8907140 114.2241240 106.1545970  17.1267960
 114.8876670 104.8534120  17.5249270 120.0130580  94.3114930 101.4783290
 119.9324630  93.3969540 101.2075000 119.5995000  94.8082000 100.7723000
 118.1448620  96.0893950 103.3592560 117.3690720  95.6094390 103.6491130
 118.7961550  95.4099600 103.1848720 112.1614450  96.4013760 104.2368320
 111.3299330  96.1462470 104.6364830 112.7695430  96.4724530 104.9726240
 112.1415710 100.4353850 104.4326340 112.4443750  99.5451590 104.2536560
 112.8859300 100.9924070 104.2048590 110.5706400  91.3615650  98.0210710
 109.6823100  91.7031620  97.9190590 110.8547590  91.1615970  97.1291540
 108.5339410  93.9621300 103.9050410 109.1055520  93.1943500 103.9054050
 108.5340950  94.2610060 102.9957020 118.3919360 102.7812150 101.7595680
 117.7730800 103.2369650 101.1890120 119.2471140 102.9363610 101.3585380
 117.5857610  98.7651140 103.3662720 117.5165890  97.8241080 103.2051850
 118.3477470  98.8552550 103.9385290 109.7764280  89.3705660 105.6919340
 109.5967120  88.4731410 105.9722100 109.3744360  89.9177530 106.3666290
 118.6162780  91.5721520 103.5931650 118.9927600  90.6993400 103.4805320
 118.5182290  91.9080220 102.7022090 112.7467790  89.9447150  99.0549090
 112.8534540  90.8450880  99.3617850 111.8360150  89.8965120  98.7643740
 110.3950950  91.8666160 104.3001680 111.0761060  92.1304530 104.9189080
 110.0799000  91.0267030 104.6339690 114.5875520  92.9133520 103.3874270
 115.0953740  93.4114490 104.0279290 115.1188760  92.1368720 103.2113630
 112.8711620  87.5532080 107.6537690 112.8730060  88.0704470 106.8483590
 112.0415930  87.0762260 107.6307620 119.2582710  97.6651390  99.1527590
 118.6399980  98.1300840  98.5890310 119.7705960  98.3578870  99.5697100
 114.1214470  97.1927260 105.8311190 113.7883850  97.8196180 106.4732260
 114.2981150  97.7189140 105.0512860 112.5526950  89.2642040 105.6608140
 112.8943760  90.1084090 105.3662010 111.6142760  89.4125780 105.7773480
 113.3333570  99.1608060 107.6460370 113.9507570  99.8359140 107.3644820
 112.4726690  99.5696040 107.5547870 108.6265910  98.3507920  96.5267220
 108.2493890  98.8395020  95.7952120 108.8838980  99.0233200  97.1573750
 116.2354840  86.7524310 101.9852730 116.5429820  86.1971200 101.2688230
 115.3055540  86.8868770 101.8025720 118.6235600  94.8173140  98.7212850
 117.6964880  94.7510520  98.9501320 118.7760420  95.7553270  98.6068090
 118.6104680  91.0890140  95.7180010 117.6708350  91.2504100  95.8032470
 118.9287940  91.8075820  95.1716000 114.2292240  95.3437880 101.5032580
 113.8249240  94.6315130 101.0078480 114.3155360  94.9991120 102.3920620
 114.6973940  99.0305440 103.6671790 114.4002230  98.4250910 102.9879570
 115.6473760  99.0682750 103.5561150 112.9420860  92.1181090 105.2831620
 113.4935450  92.2276430 104.5084870 113.4564370  92.4918690 105.9986850
 113.7892370  98.7687130 110.3179590 112.8920900  98.9927100 110.5652990
 113.8145240  98.8922070 109.3690990 112.6163590  95.6400450 108.8936960
 112.4771360  96.5123250 109.2624360 111.7344950  95.2973260 108.7484900
 118.9392970 100.5576320 100.2002090 119.3788880 101.3000650  99.7857480
 118.8779860 100.8002890 101.1241050 110.9296870  94.2382860  99.0039230
 110.8094470  94.9644950  98.3920500 110.6197760  93.4685770  98.5267140
 108.5682240  97.4098000 104.8107870 108.6462660  97.5446770 103.8663590
 109.1823920  96.7013890 105.0035990 109.8129870  99.1098190 101.2214050
 109.4057950  99.2512780 100.3667650 110.7042880  98.8258350 101.0185260
 119.6308750 103.2590100 108.1281100 120.1453420 103.1698110 108.9303530
 118.7877830 103.6049800 108.4209010 114.0851530 103.3243970  99.3336720
 113.9094010 102.4079510  99.1204520 113.2307270 103.6831260  99.5734520
 108.6241760  98.4512170 107.3502330 108.7872800  97.9817530 106.5321700
 109.0894210  97.9435730 108.0151170 113.3960530  87.5817930 102.3862900
 112.9528680  88.3627470 102.0547420 113.9545520  87.9047820 103.0933840
 117.6830340  90.4486450 107.9898220 117.2209710  90.6569470 108.8018160
 117.2808450  89.6345800 107.6868890 116.5119350  87.2028630  97.2668730
 115.8873530  87.1988500  97.9922040 116.4249470  86.3359590  96.8704700
 115.4336430  88.1265260 104.2452500 115.7308760  89.0328090 104.1644520
 115.9821990  87.6384040 103.6312070 113.1874750  92.7051500 100.1144150
 112.9615670  92.4888670 101.0190770 112.4067280  93.1379960  99.7690120
 115.6273960  93.6037080 110.7804420 115.5317560  92.6631810 110.6304820
 116.4705940  93.8252150 110.3852490 119.0237380  91.3478410 100.7438080
 119.4166950  91.6650610  99.9306770 119.3854230  90.4690290 100.8582600
 110.7584500  90.0150750 108.9338200 110.3647890  90.8625960 109.1410980
 110.0702900  89.3777120 109.1246840 108.0601550  87.9379210 102.9668280
 107.7714600  88.5082070 103.6793260 108.8047310  87.4583660 103.3299510
 108.2471780  91.8799330  94.1771000 108.1646450  92.8230090  94.3185990
 107.8954840  91.7374240  93.2983350 119.6092520  93.9384160 104.8388860
 118.8773640  94.4470970 105.1878960 119.2116860  93.1214140 104.5377640
 116.0469910  90.6138360 103.2441350 116.0505970  90.1728310 102.3945890
 116.9421030  90.9355690 103.3513170 111.8972290  90.4964850 102.2035560
 111.5572340  90.9740080 102.9602610 111.1349610  90.0429970 101.8436660
 116.1090060  91.6150440  96.2348110 116.2302880  91.5736920  97.1833930
 115.7238570  92.4774590  96.0794840 120.0718430  89.3917840 104.2511800
 120.0891170  89.8426490 105.0953650 119.8234010  88.4923480 104.4645240
 115.1211560  93.9251580  95.6331410 114.5528460  93.4769830  95.0067320
 115.8300560  94.2844360  95.0996560 110.1980740  97.8263600 109.5098140
 109.8135530  97.1857270 110.1081100 110.5092930  98.5299720 110.0792870
 116.3477880  94.6740140 104.9906760 116.7148010  94.1998710 105.7368100
 116.1582940  95.5481710 105.3315100 109.2118370  89.4183830 101.1200230
 108.9265290  89.0539500 101.9578850 109.1497230  88.6864290 100.5063370
 114.1377250  93.7148780 107.3090970 113.8334320  94.5940760 107.5341330
 115.0923710  93.7748570 107.3448410 112.6659040  97.9209770  97.9057820
 111.8921300  97.3807390  97.7456540 113.3953670  97.4016380  97.5675580
 118.8856960  88.3113090  97.8413600 118.0721570  87.8126260  97.7658910
 118.6918910  89.1511340  97.4249950 118.8065820  96.9884190 109.5853210
 118.7403130  96.0679860 109.3310800 118.1770960  97.0859630 110.2997850
 112.7096440  97.5890150 101.5436630 113.2275110  96.7858410 101.4893520
 112.2580460  97.5269290 102.3853460 117.5965940  98.8556430  96.8163930
 117.9381640  99.5998660  96.3207250 116.7678650  99.1687550  97.1788760
 110.1940980  94.5551520 108.4562330 109.8355920  95.2205370 109.0435670
 109.8995540  93.7235070 108.8274950 118.7382550  99.8104760 109.3357010
 118.7527090  98.8785720 109.1175920 118.0307650  99.8964520 109.9746780
 116.5656630  98.9369960  99.5879850 117.2527760  99.4839170  99.9687440
 115.7789050  99.4810690  99.6229460 108.7049030  94.5542780  95.0796930
 109.5743880  94.8367580  95.3632850 108.2139350  95.3678650  94.9645740
 115.8683840  95.9415990  99.2005210 116.3246620  96.7521240  99.4265400
 115.5172050  95.6239130 100.0323700 118.1716450 101.4522330 106.4297510
 118.8158670 101.6581710 107.1070930 118.5345890 100.6910730 105.9768360
 111.7695620  86.2853640  99.6727730 111.6410250  86.2771540 100.6212650
 110.9457640  86.6236730  99.3218740 119.4448530  99.4554680 105.1474960
 120.0870760  98.7547840 105.2607130 119.9697880 100.2353120 104.9671850
 109.0720280 103.7670160  95.6458560 109.4317920 104.3659500  94.9915830
 108.9312620 104.3130050  96.4193590 108.7689550  88.0444760 109.1334430
 108.0548070  88.2441680 109.7387040 109.1884590  87.2684330 109.5049230
 109.0562140 102.0325020 110.1200960 109.1653260 101.0919760 109.9796350
 108.4042700 102.2979770 109.4714690 115.0888900 101.1501360  96.4632230
 115.0799000 101.8831050  95.8476740 114.1687260 100.9032940  96.5559190
 110.6895540  96.3716250  97.2078990 110.0823490  97.1115150  97.2174290
 111.1644890  96.4615610  96.3817190 118.0748500 101.2129600  95.1257420
 118.1760480 101.0093590  94.1959400 117.1750240 100.9587880  95.3305200
 115.5974390  91.7709960  99.1081320 114.8890540  92.2396300  99.5494930
 115.8818870  91.1131970  99.7426510 117.2230320  93.1906660 107.1073850
 117.7215570  93.6652480 107.7725700 117.3653270  92.2670180 107.3143880
 116.7166610 103.7315920  99.8205090 116.9708110 103.6937310  98.8984460
 115.7679090 103.6049250  99.8133340 113.8009410  90.0795040  96.4832030
 114.6499940  90.5165190  96.4172220 113.4340680  90.3915300  97.3104090
 112.7000830  96.3327400  94.9567560 113.4664100  96.2208760  95.5192990
 112.7775520  95.6365370  94.3044330 111.3947590  93.7652470  95.6400450
 111.4751180  92.8179980  95.7517850 112.2867340  94.0959350  95.7461110
 112.1962300 103.9147860 102.7434990 112.9324780 103.3663320 103.0143560
 112.5803220 104.7803870 102.6040980 109.0807780  99.9821430  98.6176500
 108.1547560 100.2242570  98.6081910 109.5464210 100.8095690  98.4961250
 115.3064610 103.0878170  94.5660560 116.0993220 103.3767000  94.1142350
 114.7868960 102.6570340  93.8873040 115.8242010  98.3081580  94.4302910
 115.7192650  97.6933930  95.1564290 115.6566230  97.7847470  93.6465920
 115.9756330  96.9938380 110.4092140 115.2102000  97.5623380 110.3246810
 116.1572290  96.7014590 109.5160370 119.0644740  97.3701610  95.0344900
 118.5154840  97.8170910  95.6787640 119.6864000  96.8650860  95.5582570
 114.7319860  96.3292530  96.9310200 115.1536280  96.1632400  97.7741590
 114.8570700  95.5192760  96.4365340 112.8947280  92.3089080 109.7381180
 112.3643740  91.8180030 109.1104520 113.5635350  92.7373280 109.2039110
 117.2447500  95.3530140  94.1787300 117.7653160  94.6379160  93.8128450
 117.8915900  95.9916010  94.4787810 113.3819580  89.2751450 109.8178470
 113.2876450  88.6572200 109.0929340 112.8016970  90.0017740 109.5908380
 116.1481020  87.8324690 106.8505860 115.6998320  87.8548950 106.0051410
 115.5146220  87.4343710 107.4476160 116.5540570  96.7279020 107.4718300
 116.9728680  97.5711750 107.2994540 115.6349200  96.8651060 107.2425080
 118.8904470  94.4595200 108.8556140 119.0100680  93.8636340 109.5950980
 119.7498470  94.4964890 108.4357440 113.6278760  92.4025760  93.8768360
 113.4267820  91.5393120  94.2381700 113.4570810  92.3159120  92.9389960
 114.4047990 103.0332030 108.5876030 113.8669080 103.7578090 108.2684730
 114.6581950 102.5562370 107.7973370 115.6573240  91.0016550 110.1131960
 116.2472930  90.6932400 110.8009780 114.8393480  90.5296300 110.2691860
 112.4261560  89.5026380  93.8646240 112.7287460  89.5093810  92.9565390
 113.1656150  89.1524240  94.3613900 117.2610200 104.2683240 108.8462680
 117.1868900 105.1718380 109.1535050 116.3589040 103.9495140 108.8184750
 115.6446490  88.4461000  94.8502440 115.2968490  87.7684990  94.2704890
 115.8459260  87.9850510  95.6645830 117.8095530 103.4341750  96.4689040
 118.7046320 103.7726720  96.4907800 117.8413160 102.7121160  95.8413320
 111.4491690  98.8068800  94.6976040 111.8866560  99.3498470  95.3533620
 111.9339420  97.9815750  94.7072380 108.6637490 101.5957830 102.1496300
 108.9940500 100.7278890 101.9174940 109.0928490 101.8016350 102.9801260
 113.2599410  99.9266840  99.8098270 112.9594950  99.8031810 100.7102180
 113.1536900  99.0675430  99.4014000 109.1527700 102.4628420 104.8877930
 108.7158690 102.6429220 105.7202080 109.7205380 103.2203040 104.7459650
 108.9852130  94.9748650 101.2466810 108.3300970  94.7060290 100.6026510
 109.8230080  94.8653130 100.7968790 110.0228060  95.3601220 105.7870150
 110.3901100  95.2728620 106.6666170 109.4538880  94.5967770 105.6877010
 109.5744060  92.2710310 109.6928570 108.6800110  92.2377070 110.0322280
 110.1141610  92.4697100 110.4579820 108.1990210  92.1847580  97.1892140
 107.2954290  92.4477780  97.0143800 108.6830830  92.4558750  96.4092100
 110.7417420  91.2413120  95.0986520 111.4509120  90.8196340  94.6133800
 110.0257360  91.3088350  94.4669870 110.3891580  87.2952450  94.1389170
 111.1119710  87.8361390  94.4570390 110.6616100  87.0215870  93.2630710
 110.0783770  86.5458640 104.0411790 110.7259960  85.9956020 103.6006950
 110.4985610  86.8001790 104.8627600 109.8315770  86.7014310 106.7837110
 109.4830590  87.1578130 107.5495290 109.5003470  85.8071440 106.8659540
 115.1386170 101.4293500 106.5500020 114.8977530 101.6968060 105.6630540
 116.0788810 101.5999230 106.6050880 110.5036410  86.2290510 110.0587880
 111.0519400  86.0478560 109.2953990 110.5691720  85.4384620 110.5944190
 111.2768170 102.8196160 108.0688080 110.6828490 102.6880860 108.8078120
 111.2692010 101.9834300 107.6030180 110.9080400 100.1854540 107.0196120
 110.1814460  99.5659830 106.9522070 110.9689550 100.5795150 106.1494200
 114.5125500 102.3999540 103.8045530 115.0290520 101.7886900 103.2793790
 115.1622880 102.9028320 104.2956540 117.2521000 103.2908030 104.6314510
 117.5398810 103.0362330 103.7547520 117.7644220 102.7385390 105.2220080
 118.4698010  87.0298230 105.2111020 117.6869800  87.5043730 105.4907780
 118.1760940  86.1253060 105.1024200 109.1910400 103.5028930 100.2292880
 109.0232440 102.8699610 100.9274770 108.3244910 103.7088330  99.8787070
 109.8138420  87.3345710  97.7324740 110.5717780  87.4474590  97.1588770
 109.3515590  88.1714910  97.6868170 116.3552230  89.4484980 100.7227050
 115.5426740  89.0741870 100.3822930 116.8593870  88.6930060 101.0248240
 110.7973100 102.1962160  97.6743020 110.2720720 102.5770190  96.9704980
 110.7217680 102.8212930  98.3952730 112.1863570  87.8609760  96.2726710
 112.7156330  87.0739560  96.1434660 112.8191890  88.5400950  96.5062240
 114.3801410  87.5984900  99.3272100 113.7504150  86.8972210  99.4942230
 113.8406550  88.3589030  99.1105260 113.3966070 104.1444540  96.5492270
 114.1284890 103.8603820  96.0016160 113.6559740 103.9057820  97.4391650
 112.5580860 100.2609270  96.5538600 111.9289740 100.7294370  97.1024430
 112.6728690  99.4158490  96.9884790 120.0130580  94.3114930  82.7039800
 119.9324630  93.3969540  82.4331510 119.5995000  94.8082000  81.9979510
 118.1448620  96.0893950  84.5849070 117.3690720  95.6094390  84.8747640
 118.7961550  95.4099600  84.4105230 112.1614450  96.4013760  85.4624830
 111.3299330  96.1462470  85.8621340 112.7695430  96.4724530  86.1982750
 112.1415710 100.4353850  85.6582850 112.4443750  99.5451590  85.4793070
 112.8859300 100.9924070  85.4305100 110.5706400  91.3615650  79.2467220
 109.6823100  91.7031620  79.1447100 110.8547590  91.1615970  78.3548050
 108.5339410  93.9621300  85.1306920 109.1055520  93.1943500  85.1310560
 108.5340950  94.2610060  84.2213530 118.3919360 102.7812150  82.9852190
 117.7730800 103.2369650  82.4146630 119.2471140 102.9363610  82.5841890
 117.5857610  98.7651140  84.5919230 117.5165890  97.8241080  84.4308360
 118.3477470  98.8552550  85.1641800 109.7764280  89.3705660  86.9175850
 109.5967120  88.4731410  87.1978610 109.3744360  89.9177530  87.5922800
 118.6162780  91.5721520  84.8188160 118.9927600  90.6993400  84.7061830
 118.5182290  91.9080220  83.9278600 112.7467790  89.9447150  80.2805600
 112.8534540  90.8450880  80.5874360 111.8360150  89.8965120  79.9900250
 110.3950950  91.8666160  85.5258190 111.0761060  92.1304530  86.1445590
 110.0799000  91.0267030  85.8596200 114.5875520  92.9133520  84.6130780
 115.0953740  93.4114490  85.2535800 115.1188760  92.1368720  84.4370140
 112.8711620  87.5532080  88.8794200 112.8730060  88.0704470  88.0740100
 112.0415930  87.0762260  88.8564130 119.2582710  97.6651390  80.3784100
 118.6399980  98.1300840  79.8146820 119.7705960  98.3578870  80.7953610
 114.1214470  97.1927260  87.0567700 113.7883850  97.8196180  87.6988770
 114.2981150  97.7189140  86.2769370 112.5526950  89.2642040  86.8864650
 112.8943760  90.1084090  86.5918520 111.6142760  89.4125780  87.0029990
 113.3333570  99.1608060  88.8716880 113.9507570  99.8359140  88.5901330
 112.4726690  99.5696040  88.7804380 108.6265910  98.3507920  77.7523730
 108.2493890  98.8395020  77.0208630 108.8838980  99.0233200  78.3830260
 116.2354840  86.7524310  83.2109240 116.5429820  86.1971200  82.4944740
 115.3055540  86.8868770  83.0282230 118.6235600  94.8173140  79.9469360
 117.6964880  94.7510520  80.1757830 118.7760420  95.7553270  79.8324600
 118.6104680  91.0890140  76.9436520 117.6708350  91.2504100  77.0288980
 118.9287940  91.8075820  76.3972510 114.2292240  95.3437880  82.7289090
 113.8249240  94.6315130  82.2334990 114.3155360  94.9991120  83.6177130
 114.6973940  99.0305440  84.8928300 114.4002230  98.4250910  84.2136080
 115.6473760  99.0682750  84.7817660 112.9420860  92.1181090  86.5088130
 113.4935450  92.2276430  85.7341380 113.4564370  92.4918690  87.2243360
 113.7892370  98.7687130  91.5436100 112.8920900  98.9927100  91.7909500
 113.8145240  98.8922070  90.5947500 112.6163590  95.6400450  90.1193470
 112.4771360  96.5123250  90.4880870 111.7344950  95.2973260  89.9741410
 118.9392970 100.5576320  81.4258600 119.3788880 101.3000650  81.0113990
 118.8779860 100.8002890  82.3497560 114.4143940 101.5822150  92.3278620
 114.3859370 101.9865100  91.4607050 114.2508910 100.6532510  92.1650220
 110.9296870  94.2382860  80.2295740 110.8094470  94.9644950  79.6177010
 110.6197760  93.4685770  79.7523650 108.5682240  97.4098000  86.0364380
 108.6462660  97.5446770  85.0920100 109.1823920  96.7013890  86.2292500
 109.8129870  99.1098190  82.4470560 109.4057950  99.2512780  81.5924160
 110.7042880  98.8258350  82.2441770 119.6308750 103.2590100  89.3537610
 120.1453420 103.1698110  90.1560040 118.7877830 103.6049800  89.6465520
 114.0851530 103.3243970  80.5593230 113.9094010 102.4079510  80.3461030
 113.2307270 103.6831260  80.7991030 108.6241760  98.4512170  88.5758840
 108.7872800  97.9817530  87.7578210 109.0894210  97.9435730  89.2407680
 113.3960530  87.5817930  83.6119410 112.9528680  88.3627470  83.2803930
 113.9545520  87.9047820  84.3190350 117.6830340  90.4486450  89.2154730
 117.2209710  90.6569470  90.0274670 117.2808450  89.6345800  88.9125400
 116.5119350  87.2028630  78.4925240 115.8873530  87.1988500  79.2178550
 116.4249470  86.3359590  78.0961210 115.4336430  88.1265260  85.4709010
 115.7308760  89.0328090  85.3901030 115.9821990  87.6384040  84.8568580
 113.1874750  92.7051500  81.3400660 112.9615670  92.4888670  82.2447280
 112.4067280  93.1379960  80.9946630 115.6273960  93.6037080  92.0060930
 115.5317560  92.6631810  91.8561330 116.4705940  93.8252150  91.6109000
 119.0237380  91.3478410  81.9694590 119.4166950  91.6650610  81.1563280
 119.3854230  90.4690290  82.0839110 110.7584500  90.0150750  90.1594710
 110.3647890  90.8625960  90.3667490 110.0702900  89.3777120  90.3503350
 117.3329550  90.0985720  93.2291450 116.6427870  89.9057920  93.8637540
 118.0761850  90.3820360  93.7615750 108.0601550  87.9379210  84.1924790
 107.7714600  88.5082070  84.9049770 108.8047310  87.4583660  84.5556020
 108.2471780  91.8799330  75.4027510 108.1646450  92.8230090  75.5442500
 107.8954840  91.7374240  74.5239860 119.6092520  93.9384160  86.0645370
 118.8773640  94.4470970  86.4135470 119.2116860  93.1214140  85.7634150
 116.0469910  90.6138360  84.4697860 116.0505970  90.1728310  83.6202400
 116.9421030  90.9355690  84.5769680 111.8972290  90.4964850  83.4292070
 111.5572340  90.9740080  84.1859120 111.1349610  90.0429970  83.0693170
 116.1090060  91.6150440  77.4604620 116.2302880  91.5736920  78.4090440
 115.7238570  92.4774590  77.3051350 120.0718430  89.3917840  85.4768310
 120.0891170  89.8426490  86.3210160 119.8234010  88.4923480  85.6901750
 115.1211560  93.9251580  76.8587920 114.5528460  93.4769830  76.2323830
 115.8300560  94.2844360  76.3253070 110.1980740  97.8263600  90.7354650
 109.8135530  97.1857270  91.3337610 110.5092930  98.5299720  91.3049380
 116.3477880  94.6740140  86.2163270 116.7148010  94.1998710  86.9624610
 116.1582940  95.5481710  86.5571610 109.2118370  89.4183830  82.3456740
 108.9265290  89.0539500  83.1835360 109.1497230  88.6864290  81.7319880
 114.1377250  93.7148780  88.5347480 113.8334320  94.5940760  88.7597840
 115.0923710  93.7748570  88.5704920 112.6659040  97.9209770  79.1314330
 111.8921300  97.3807390  78.9713050 113.3953670  97.4016380  78.7932090
 118.8856960  88.3113090  79.0670110 118.0721570  87.8126260  78.9915420
 118.6918910  89.1511340  78.6506460 118.8065820  96.9884190  90.8109720
 118.7403130  96.0679860  90.5567310 118.1770960  97.0859630  91.5254360
 112.7096440  97.5890150  82.7693140 113.2275110  96.7858410  82.7150030
 112.2580460  97.5269290  83.6109970 117.5965940  98.8556430  78.0420440
 117.9381640  99.5998660  77.5463760 116.7678650  99.1687550  78.4045270
 110.1940980  94.5551520  89.6818840 109.8355920  95.2205370  90.2692180
 109.8995540  93.7235070  90.0531460 113.3954100  95.0135760  92.5658390
 113.0954240  95.1592940  91.6686210 114.1665340  94.4541050  92.4731780
 118.7382550  99.8104760  90.5613520 118.7527090  98.8785720  90.3432430
 118.0307650  99.8964520  91.2003290 116.5656630  98.9369960  80.8136360
 117.2527760  99.4839170  81.1943950 115.7789050  99.4810690  80.8485970
 108.7049030  94.5542780  76.3053440 109.5743880  94.8367580  76.5889360
 108.2139350  95.3678650  76.1902250 115.8683840  95.9415990  80.4261720
 116.3246620  96.7521240  80.6521910 115.5172050  95.6239130  81.2580210
 118.1716450 101.4522330  87.6554020 118.8158670 101.6581710  88.3327440
 118.5345890 100.6910730  87.2024870 111.7695620  86.2853640  80.8984240
 111.6410250  86.2771540  81.8469160 110.9457640  86.6236730  80.5475250
 119.4448530  99.4554680  86.3731470 120.0870760  98.7547840  86.4863640
 119.9697880 100.2353120  86.1928360 109.0720280 103.7670160  76.8715070
 109.4317920 104.3659500  76.2172340 108.9312620 104.3130050  77.6450100
 108.7689550  88.0444760  90.3590940 108.0548070  88.2441680  90.9643550
 109.1884590  87.2684330  90.7305740 109.0562140 102.0325020  91.3457470
 109.1653260 101.0919760  91.2052860 108.4042700 102.2979770  90.6971200
 117.0474730 100.3040910  92.7455590 116.7271600  99.5850150  93.2901280
 116.3733090 100.9795980  92.8191650 115.0888900 101.1501360  77.6888740
 115.0799000 101.8831050  77.0733250 114.1687260 100.9032940  77.7815700
 110.6895540  96.3716250  78.4335500 110.0823490  97.1115150  78.4430800
 111.1644890  96.4615610  77.6073700 118.0748500 101.2129600  76.3513930
 118.1760480 101.0093590  75.4215910 117.1750240 100.9587880  76.5561710
 115.5974390  91.7709960  80.3337830 114.8890540  92.2396300  80.7751440
 115.8818870  91.1131970  80.9683020 117.2230320  93.1906660  88.3330360
 117.7215570  93.6652480  88.9982210 117.3653270  92.2670180  88.5400390
 116.7166610 103.7315920  81.0461600 116.9708110 103.6937310  80.1240970
 115.7679090 103.6049250  81.0389850 113.8009410  90.0795040  77.7088540
 114.6499940  90.5165190  77.6428730 113.4340680  90.3915300  78.5360600
 112.7000830  96.3327400  76.1824070 113.4664100  96.2208760  76.7449500
 112.7775520  95.6365370  75.5300840 111.3947590  93.7652470  76.8656960
 111.4751180  92.8179980  76.9774360 112.2867340  94.0959350  76.9717620
 112.1962300 103.9147860  83.9691500 112.9324780 103.3663320  84.2400070
 112.5803220 104.7803870  83.8297490 109.0807780  99.9821430  79.8433010
 108.1547560 100.2242570  79.8338420 109.5464210 100.8095690  79.7217760
 111.2020580 103.0993930  93.1577080 112.0033310 103.4205980  93.5712480
 110.6872400 102.7389510  93.8796990 115.3064610 103.0878170  75.7917070
 116.0993220 103.3767000  75.3398860 114.7868960 102.6570340  75.1129550
 120.0385210  99.2073800  93.1052490 119.4323370  99.2305400  92.3648240
 119.7339320  98.4756840  93.6419740 108.9218390  95.5867390  92.1013130
 109.4257410  95.0074670  92.6729360 108.1825810  95.8707620  92.6389500
 115.8242010  98.3081580  75.6559420 115.7192650  97.6933930  76.3820800
 115.6566230  97.7847470  74.8722430 115.9756330  96.9938380  91.6348650
 115.2102000  97.5623380  91.5503320 116.1572290  96.7014590  90.7416880
 119.0644740  97.3701610  76.2601410 118.5154840  97.8170910  76.9044150
 119.6864000  96.8650860  76.7839080 110.9541470  93.7296980  92.9963200
 110.9946810  93.4310850  93.9048430 111.8086970  94.1304590  92.8370720
 114.7319860  96.3292530  78.1566710 115.1536280  96.1632400  78.9998100
 114.8570700  95.5192760  77.6621850 112.8947280  92.3089080  90.9637690
 112.3643740  91.8180030  90.3361030 113.5635350  92.7373280  90.4295620
 117.2447500  95.3530140  75.4043810 117.7653160  94.6379160  75.0384960
 117.8915900  95.9916010  75.7044320 113.3819580  89.2751450  91.0434980
 113.2876450  88.6572200  90.3185850 112.8016970  90.0017740  90.8164890
 116.1481020  87.8324690  88.0762370 115.6998320  87.8548950  87.2307920
 115.5146220  87.4343710  88.6732670 116.5540570  96.7279020  88.6974810
 116.9728680  97.5711750  88.5251050 115.6349200  96.8651060  88.4681590
 118.8904470  94.4595200  90.0812650 119.0100680  93.8636340  90.8207490
 119.7498470  94.4964890  89.6613950 113.6278760  92.4025760  75.1024870
 113.4267820  91.5393120  75.4638210 113.4570810  92.3159120  74.1646470
 114.4047990 103.0332030  89.8132540 113.8669080 103.7578090  89.4941240
 114.6581950 102.5562370  89.0229880 115.6573240  91.0016550  91.3388470
 116.2472930  90.6932400  92.0266290 114.8393480  90.5296300  91.4948370
 112.4261560  89.5026380  75.0902750 112.7287460  89.5093810  74.1821900
 113.1656150  89.1524240  75.5870410 117.2610200 104.2683240  90.0719190
 117.1868900 105.1718380  90.3791560 116.3589040 103.9495140  90.0441260
 115.6446490  88.4461000  76.0758950 115.2968490  87.7684990  75.4961400
 115.8459260  87.9850510  76.8902340 117.8095530 103.4341750  77.6945550
 118.7046320 103.7726720  77.7164310 117.8413160 102.7121160  77.0669830
 111.4491690  98.8068800  75.9232550 111.8866560  99.3498470  76.5790130
 111.9339420  97.9815750  75.9328890 108.6637490 101.5957830  83.3752810
 108.9940500 100.7278890  83.1431450 109.0928490 101.8016350  84.2057770
 113.2599410  99.9266840  81.0354780 112.9594950  99.8031810  81.9358690
 113.1536900  99.0675430  80.6270510 109.1527700 102.4628420  86.1134440
 108.7158690 102.6429220  86.9458590 109.7205380 103.2203040  85.9716160
 108.9852130  94.9748650  82.4723320 108.3300970  94.7060290  81.8283020
 109.8230080  94.8653130  82.0225300 110.0228060  95.3601220  87.0126660
 110.3901100  95.2728620  87.8922680 109.4538880  94.5967770  86.9133520
 109.5744060  92.2710310  90.9185080 108.6800110  92.2377070  91.2578790
 110.1141610  92.4697100  91.6836330 108.1990210  92.1847580  78.4148650
 107.2954290  92.4477780  78.2400310 108.6830830  92.4558750  77.6348610
 110.7417420  91.2413120  76.3243030 111.4509120  90.8196340  75.8390310
 110.0257360  91.3088350  75.6926380 110.3891580  87.2952450  75.3645680
 111.1119710  87.8361390  75.6826900 110.6616100  87.0215870  74.4887220
 110.0783770  86.5458640  85.2668300 110.7259960  85.9956020  84.8263460
 110.4985610  86.8001790  86.0884110 109.8315770  86.7014310  88.0093620
 109.4830590  87.1578130  88.7751800 109.5003470  85.8071440  88.0916050
 111.4380140  99.8733910  92.1746810 111.3949770  99.5026820  93.0561270
 111.5691150 100.8111480  92.3148630 115.1386170 101.4293500  87.7756530
 114.8977530 101.6968060  86.8887050 116.0788810 101.5999230  87.8307390
 117.3440590  87.8926190  91.5313040 117.2829480  88.4848020  92.2808450
 118.2840970  87.7852150  91.3863300 110.5036410  86.2290510  91.2844390
 111.0519400  86.0478560  90.5210500 110.5691720  85.4384620  91.8200700
 111.2768170 102.8196160  89.2944590 110.6828490 102.6880860  90.0334630
 111.2692010 101.9834300  88.8286690 110.9080400 100.1854540  88.2452630
 110.1814460  99.5659830  88.1778580 110.9689550 100.5795150  87.3750710
 114.5125500 102.3999540  85.0302040 115.0290520 101.7886900  84.5050300
 115.1622880 102.9028320  85.5213050 117.2521000 103.2908030  85.8571020
 117.5398810 103.0362330  84.9804030 117.7644220 102.7385390  86.4476590
 118.4698010  87.0298230  86.4367530 117.6869800  87.5043730  86.7164290
 118.1760940  86.1253060  86.3280710 109.1910400 103.5028930  81.4549390
 109.0232440 102.8699610  82.1531280 108.3244910 103.7088330  81.1043580
 109.8138420  87.3345710  78.9581250 110.5717780  87.4474590  78.3845280
 109.3515590  88.1714910  78.9124680 116.3552230  89.4484980  81.9483560
 115.5426740  89.0741870  81.6079440 116.8593870  88.6930060  82.2504750
 110.7973100 102.1962160  78.8999530 110.2720720 102.5770190  78.1961490
 110.7217680 102.8212930  79.6209240 112.1863570  87.8609760  77.4983220
 112.7156330  87.0739560  77.3691170 112.8191890  88.5400950  77.7318750
 114.3801410  87.5984900  80.5528610 113.7504150  86.8972210  80.7198740
 113.8406550  88.3589030  80.3361770 117.3193360 104.2124130  93.2239220
 118.2460670 103.9768400  93.2675180 117.3043790 105.0396130  92.7425250
 114.5056970  86.8768880  92.9881100 114.2241240  87.3802480  92.2241920
 114.8876670  86.0790630  92.6223230 113.3966070 104.1444540  77.7748780
 114.1284890 103.8603820  77.2272670 113.6559740 103.9057820  78.6648160
 112.5580860 100.2609270  77.7795110 111.9289740 100.7294370  78.3280940
 112.6728690  99.4158490  78.2141300 120.0130580  94.3114930  63.9296310
 119.9324630  93.3969540  63.6588020 119.5995000  94.8082000  63.2236020
 118.1448620  96.0893950  65.8105580 117.3690720  95.6094390  66.1004150
 118.7961550  95.4099600  65.6361740 112.1614450  96.4013760  66.6881340
 111.3299330  96.1462470  67.0877850 112.7695430  96.4724530  67.4239260
 112.1415710 100.4353850  66.8839360 112.4443750  99.5451590  66.7049580
 112.8859300 100.9924070  66.6561610 110.5706400  91.3615650  60.4723730
 109.6823100  91.7031620  60.3703610 110.8547590  91.1615970  59.5804560
 108.5339410  93.9621300  66.3563430 109.1055520  93.1943500  66.3567070
 108.5340950  94.2610060  65.4470040 118.3919360 102.7812150  64.2108700
 117.7730800 103.2369650  63.6403140 119.2471140 102.9363610  63.8098400
 117.5857610  98.7651140  65.8175740 117.5165890  97.8241080  65.6564870
 118.3477470  98.8552550  66.3898310 109.7764280  89.3705660  68.1432360
 109.5967120  88.4731410  68.4235120 109.3744360  89.9177530  68.8179310
 118.6162780  91.5721520  66.0444670 118.9927600  90.6993400  65.9318340
 118.5182290  91.9080220  65.1535110 112.7467790  89.9447150  61.5062110
 112.8534540  90.8450880  61.8130870 111.8360150  89.8965120  61.2156760
 110.3950950  91.8666160  66.7514700 111.0761060  92.1304530  67.3702100
 110.0799000  91.0267030  67.0852710 114.5875520  92.9133520  65.8387290
 115.0953740  93.4114490  66.4792310 115.1188760  92.1368720  65.6626650
 112.8711620  87.5532080  70.1050710 112.8730060  88.0704470  69.2996610
 112.0415930  87.0762260  70.0820640 119.2582710  97.6651390  61.6040610
 118.6399980  98.1300840  61.0403330 119.7705960  98.3578870  62.0210120
 114.1214470  97.1927260  68.2824210 113.7883850  97.8196180  68.9245280
 114.2981150  97.7189140  67.5025880 112.5526950  89.2642040  68.1121160
 112.8943760  90.1084090  67.8175030 111.6142760  89.4125780  68.2286500
 113.3333570  99.1608060  70.0973390 113.9507570  99.8359140  69.8157840
 112.4726690  99.5696040  70.0060890 108.6265910  98.3507920  58.9780240
 108.2493890  98.8395020  58.2465140 108.8838980  99.0233200  59.6086770
 116.2354840  86.7524310  64.4365750 116.5429820  86.1971200  63.7201250
 115.3055540  86.8868770  64.2538740 118.6235600  94.8173140  61.1725870
 117.6964880  94.7510520  61.4014340 118.7760420  95.7553270  61.0581110
 118.6104680  91.0890140  58.1693030 117.6708350  91.2504100  58.2545490
 118.9287940  91.8075820  57.6229020 114.2292240  95.3437880  63.9545600
 113.8249240  94.6315130  63.4591500 114.3155360  94.9991120  64.8433640
 114.6973940  99.0305440  66.1184810 114.4002230  98.4250910  65.4392590
 115.6473760  99.0682750  66.0074170 112.9420860  92.1181090  67.7344640
 113.4935450  92.2276430  66.9597890 113.4564370  92.4918690  68.4499870
 113.7892370  98.7687130  72.7692610 112.8920900  98.9927100  73.0166010
 113.8145240  98.8922070  71.8204010 112.6163590  95.6400450  71.3449980
 112.4771360  96.5123250  71.7137380 111.7344950  95.2973260  71.1997920
 118.9392970 100.5576320  62.6515110 119.3788880 101.3000650  62.2370500
 118.8779860 100.8002890  63.5754070 114.4143940 101.5822150  73.5535130
 114.3859370 101.9865100  72.6863560 114.2508910 100.6532510  73.3906730
 110.9296870  94.2382860  61.4552250 110.8094470  94.9644950  60.8433520
 110.6197760  93.4685770  60.9780160 108.5682240  97.4098000  67.2620890
 108.6462660  97.5446770  66.3176610 109.1823920  96.7013890  67.4549010
 109.8129870  99.1098190  63.6727070 109.4057950  99.2512780  62.8180670
 110.7042880  98.8258350  63.4698280 119.6308750 103.2590100  70.5794120
 120.1453420 103.1698110  71.3816550 118.7877830 103.6049800  70.8722030
 114.0851530 103.3243970  61.7849740 113.9094010 102.4079510  61.5717540
 113.2307270 103.6831260  62.0247540 108.6241760  98.4512170  69.8015350
 108.7872800  97.9817530  68.9834720 109.0894210  97.9435730  70.4664190
 113.3960530  87.5817930  64.8375920 112.9528680  88.3627470  64.5060440
 113.9545520  87.9047820  65.5446860 117.6830340  90.4486450  70.4411240
 117.2209710  90.6569470  71.2531180 117.2808450  89.6345800  70.1381910
 116.5119350  87.2028630  59.7181750 115.8873530  87.1988500  60.4435060
 116.4249470  86.3359590  59.3217720 115.4336430  88.1265260  66.6965520
 115.7308760  89.0328090  66.6157540 115.9821990  87.6384040  66.0825090
 113.1874750  92.7051500  62.5657170 112.9615670  92.4888670  63.4703790
 112.4067280  93.1379960  62.2203140 115.6273960  93.6037080  73.2317440
 115.5317560  92.6631810  73.0817840 116.4705940  93.8252150  72.8365510
 119.0237380  91.3478410  63.1951100 119.4166950  91.6650610  62.3819790
 119.3854230  90.4690290  63.3095620 110.7584500  90.0150750  71.3851220
 110.3647890  90.8625960  71.5924000 110.0702900  89.3777120  71.5759860
 117.3329550  90.0985720  74.4547960 116.6427870  89.9057920  75.0894050
 118.0761850  90.3820360  74.9872260 108.0601550  87.9379210  65.4181300
 107.7714600  88.5082070  66.1306280 108.8047310  87.4583660  65.7812530
 108.2471780  91.8799330  56.6284020 108.1646450  92.8230090  56.7699010
 107.8954840  91.7374240  55.7496370 119.6092520  93.9384160  67.2901880
 118.8773640  94.4470970  67.6391980 119.2116860  93.1214140  66.9890660
 116.0469910  90.6138360  65.6954370 116.0505970  90.1728310  64.8458910
 116.9421030  90.9355690  65.8026190 111.8972290  90.4964850  64.6548580
 111.5572340  90.9740080  65.4115630 111.1349610  90.0429970  64.2949680
 116.1090060  91.6150440  58.6861130 116.2302880  91.5736920  59.6346950
 115.7238570  92.4774590  58.5307860 120.0718430  89.3917840  66.7024820
 120.0891170  89.8426490  67.5466670 119.8234010  88.4923480  66.9158260
 115.1211560  93.9251580  58.0844430 114.5528460  93.4769830  57.4580340
 115.8300560  94.2844360  57.5509580 110.1980740  97.8263600  71.9611160
 109.8135530  97.1857270  72.5594120 110.5092930  98.5299720  72.5305890
 116.3477880  94.6740140  67.4419780 116.7148010  94.1998710  68.1881120
 116.1582940  95.5481710  67.7828120 109.2118370  89.4183830  63.5713250
 108.9265290  89.0539500  64.4091870 109.1497230  88.6864290  62.9576390
 114.1377250  93.7148780  69.7603990 113.8334320  94.5940760  69.9854350
 115.0923710  93.7748570  69.7961430 112.6659040  97.9209770  60.3570840
 111.8921300  97.3807390  60.1969560 113.3953670  97.4016380  60.0188600
 118.8856960  88.3113090  60.2926620 118.0721570  87.8126260  60.2171930
 118.6918910  89.1511340  59.8762970 118.8065820  96.9884190  72.0366230
 118.7403130  96.0679860  71.7823820 118.1770960  97.0859630  72.7510870
 112.7096440  97.5890150  63.9949650 113.2275110  96.7858410  63.9406540
 112.2580460  97.5269290  64.8366480 117.5965940  98.8556430  59.2676950
 117.9381640  99.5998660  58.7720270 116.7678650  99.1687550  59.6301780
 110.1940980  94.5551520  70.9075350 109.8355920  95.2205370  71.4948690
 109.8995540  93.7235070  71.2787970 113.3954100  95.0135760  73.7914900
 113.0954240  95.1592940  72.8942720 114.1665340  94.4541050  73.6988290
 118.7382550  99.8104760  71.7870030 118.7527090  98.8785720  71.5688940
 118.0307650  99.8964520  72.4259800 116.5656630  98.9369960  62.0392870
 117.2527760  99.4839170  62.4200460 115.7789050  99.4810690  62.0742480
 108.7049030  94.5542780  57.5309950 109.5743880  94.8367580  57.8145870
 108.2139350  95.3678650  57.4158760 115.8683840  95.9415990  61.6518230
 116.3246620  96.7521240  61.8778420 115.5172050  95.6239130  62.4836720
 118.1716450 101.4522330  68.8810530 118.8158670 101.6581710  69.5583950
 118.5345890 100.6910730  68.4281380 111.7695620  86.2853640  62.1240750
 111.6410250  86.2771540  63.0725670 110.9457640  86.6236730  61.7731760
 119.4448530  99.4554680  67.5987980 120.0870760  98.7547840  67.7120150
 119.9697880 100.2353120  67.4184870 109.0720280 103.7670160  58.0971580
 109.4317920 104.3659500  57.4428850 108.9312620 104.3130050  58.8706610
 108.7689550  88.0444760  71.5847450 108.0548070  88.2441680  72.1900060
 109.1884590  87.2684330  71.9562250 109.0562140 102.0325020  72.5713980
 109.1653260 101.0919760  72.4309370 108.4042700 102.2979770  71.9227710
 117.0474730 100.3040910  73.9712100 116.7271600  99.5850150  74.5157790
 116.3733090 100.9795980  74.0448160 115.0888900 101.1501360  58.9145250
 115.0799000 101.8831050  58.2989760 114.1687260 100.9032940  59.0072210
 110.6895540  96.3716250  59.6592010 110.0823490  97.1115150  59.6687310
 111.1644890  96.4615610  58.8330210 118.0748500 101.2129600  57.5770440
 118.1760480 101.0093590  56.6472420 117.1750240 100.9587880  57.7818220
 115.5974390  91.7709960  61.5594340 114.8890540  92.2396300  62.0007950
 115.8818870  91.1131970  62.1939530 117.2230320  93.1906660  69.5586870
 117.7215570  93.6652480  70.2238720 117.3653270  92.2670180  69.7656900
 116.7166610 103.7315920  62.2718110 116.9708110 103.6937310  61.3497480
 115.7679090 103.6049250  62.2646360 113.8009410  90.0795040  58.9345050
 114.6499940  90.5165190  58.8685240 113.4340680  90.3915300  59.7617110
 112.7000830  96.3327400  57.4080580 113.4664100  96.2208760  57.9706010
 112.7775520  95.6365370  56.7557350 111.3947590  93.7652470  58.0913470
 111.4751180  92.8179980  58.2030870 112.2867340  94.0959350  58.1974130
 112.1962300 103.9147860  65.1948010 112.9324780 103.3663320  65.4656580
 112.5803220 104.7803870  65.0554000 109.0807780  99.9821430  61.0689520
 108.1547560 100.2242570  61.0594930 109.5464210 100.8095690  60.9474270
 111.2020580 103.0993930  74.3833590 112.0033310 103.4205980  74.7968990
 110.6872400 102.7389510  75.1053500 115.3064610 103.0878170  57.0173580
 116.0993220 103.3767000  56.5655370 114.7868960 102.6570340  56.3386060
 120.0385210  99.2073800  74.3309000 119.4323370  99.2305400  73.5904750
 119.7339320  98.4756840  74.8676250 108.9218390  95.5867390  73.3269640
 109.4257410  95.0074670  73.8985870 108.1825810  95.8707620  73.8646010
 115.8242010  98.3081580  56.8815930 115.7192650  97.6933930  57.6077310
 115.6566230  97.7847470  56.0978940 115.9756330  96.9938380  72.8605160
 115.2102000  97.5623380  72.7759830 116.1572290  96.7014590  71.9673390
 119.0644740  97.3701610  57.4857920 118.5154840  97.8170910  58.1300660
 119.6864000  96.8650860  58.0095590 110.9541470  93.7296980  74.2219710
 110.9946810  93.4310850  75.1304940 111.8086970  94.1304590  74.0627230
 114.7319860  96.3292530  59.3823220 115.1536280  96.1632400  60.2254610
 114.8570700  95.5192760  58.8878360 112.8947280  92.3089080  72.1894200
 112.3643740  91.8180030  71.5617540 113.5635350  92.7373280  71.6552130
 117.2447500  95.3530140  56.6300320 117.7653160  94.6379160  56.2641470
 117.8915900  95.9916010  56.9300830 113.3819580  89.2751450  72.2691490
 113.2876450  88.6572200  71.5442360 112.8016970  90.0017740  72.0421400
 116.1481020  87.8324690  69.3018880 115.6998320  87.8548950  68.4564430
 115.5146220  87.4343710  69.8989180 116.5540570  96.7279020  69.9231320
 116.9728680  97.5711750  69.7507560 115.6349200  96.8651060  69.6938100
 118.8904470  94.4595200  71.3069160 119.0100680  93.8636340  72.0464000
 119.7498470  94.4964890  70.8870460 113.6278760  92.4025760  56.3281380
 113.4267820  91.5393120  56.6894720 113.4570810  92.3159120  55.3902980
 114.4047990 103.0332030  71.0389050 113.8669080 103.7578090  70.7197750
 114.6581950 102.5562370  70.2486390 115.6573240  91.0016550  72.5644980
 116.2472930  90.6932400  73.2522800 114.8393480  90.5296300  72.7204880
 112.4261560  89.5026380  56.3159260 112.7287460  89.5093810  55.4078410
 113.1656150  89.1524240  56.8126920 117.2610200 104.2683240  71.2975700
 117.1868900 105.1718380  71.6048070 116.3589040 103.9495140  71.2697770
 115.6446490  88.4461000  57.3015460 115.2968490  87.7684990  56.7217910
 115.8459260  87.9850510  58.1158850 117.8095530 103.4341750  58.9202060
 118.7046320 103.7726720  58.9420820 117.8413160 102.7121160  58.2926340
 111.4491690  98.8068800  57.1489060 111.8866560  99.3498470  57.8046640
 111.9339420  97.9815750  57.1585400 108.6637490 101.5957830  64.6009320
 108.9940500 100.7278890  64.3687960 109.0928490 101.8016350  65.4314280
 113.2599410  99.9266840  62.2611290 112.9594950  99.8031810  63.1615200
 113.1536900  99.0675430  61.8527020 109.1527700 102.4628420  67.3390950
 108.7158690 102.6429220  68.1715100 109.7205380 103.2203040  67.1972670
 108.9852130  94.9748650  63.6979830 108.3300970  94.7060290  63.0539530
 109.8230080  94.8653130  63.2481810 110.0228060  95.3601220  68.2383170
 110.3901100  95.2728620  69.1179190 109.4538880  94.5967770  68.1390030
 109.5744060  92.2710310  72.1441590 108.6800110  92.2377070  72.4835300
 110.1141610  92.4697100  72.9092840 108.1990210  92.1847580  59.6405160
 107.2954290  92.4477780  59.4656820 108.6830830  92.4558750  58.8605120
 110.7417420  91.2413120  57.5499540 111.4509120  90.8196340  57.0646820
 110.0257360  91.3088350  56.9182890 110.3891580  87.2952450  56.5902190
 111.1119710  87.8361390  56.9083410 110.6616100  87.0215870  55.7143730
 110.0783770  86.5458640  66.4924810 110.7259960  85.9956020  66.0519970
 110.4985610  86.8001790  67.3140620 109.8315770  86.7014310  69.2350130
 109.4830590  87.1578130  70.0008310 109.5003470  85.8071440  69.3172560
 111.4380140  99.8733910  73.4003320 111.3949770  99.5026820  74.2817780
 111.5691150 100.8111480  73.5405140 115.1386170 101.4293500  69.0013040
 114.8977530 101.6968060  68.1143560 116.0788810 101.5999230  69.0563900
 117.3440590  87.8926190  72.7569550 117.2829480  88.4848020  73.5064960
 118.2840970  87.7852150  72.6119810 110.5036410  86.2290510  72.5100900
 111.0519400  86.0478560  71.7467010 110.5691720  85.4384620  73.0457210
 111.2768170 102.8196160  70.5201100 110.6828490 102.6880860  71.2591140
 111.2692010 101.9834300  70.0543200 110.9080400 100.1854540  69.4709140
 110.1814460  99.5659830  69.4035090 110.9689550 100.5795150  68.6007220
 114.5125500 102.3999540  66.2558550 115.0290520 101.7886900  65.7306810
 115.1622880 102.9028320  66.7469560 117.2521000 103.2908030  67.0827530
 117.5398810 103.0362330  66.2060540 117.7644220 102.7385390  67.6733100
 118.4698010  87.0298230  67.6624040 117.6869800  87.5043730  67.9420800
 118.1760940  86.1253060  67.5537220 109.1910400 103.5028930  62.6805900
 109.0232440 102.8699610  63.3787790 108.3244910 103.7088330  62.3300090
 109.8138420  87.3345710  60.1837760 110.5717780  87.4474590  59.6101790
 109.3515590  88.1714910  60.1381190 116.3552230  89.4484980  63.1740070
 115.5426740  89.0741870  62.8335950 116.8593870  88.6930060  63.4761260
 110.7973100 102.1962160  60.1256040 110.2720720 102.5770190  59.4218000
 110.7217680 102.8212930  60.8465750 112.1863570  87.8609760  58.7239730
 112.7156330  87.0739560  58.5947680 112.8191890  88.5400950  58.9575260
 114.3801410  87.5984900  61.7785120 113.7504150  86.8972210  61.9455250
 113.8406550  88.3589030  61.5618280 117.3193360 104.2124130  74.4495730
 118.2460670 103.9768400  74.4931690 117.3043790 105.0396130  73.9681760
 114.5056970  86.8768880  74.2137610 114.2241240  87.3802480  73.4498430
 114.8876670  86.0790630  73.8479740 113.3966070 104.1444540  59.0005290
 114.1284890 103.8603820  58.4529180 113.6559740 103.9057820  59.8904670
 112.5580860 100.2609270  59.0051620 111.9289740 100.7294370  59.5537450
 112.6728690  99.4158490  59.4397810 120.0130580  94.3114930  45.1552820
 119.9324630  93.3969540  44.8844530 119.5995000  94.8082000  44.4492530
 118.1448620  96.0893950  47.0362090 117.3690720  95.6094390  47.3260660
 118.7961550  95.4099600  46.8618250 112.1614450  96.4013760  47.9137850
 111.3299330  96.1462470  48.3134360 112.7695430  96.4724530  48.6495770
 112.1415710 100.4353850  48.1095870 112.4443750  99.5451590  47.9306090
 112.8859300 100.9924070  47.8818120 110.5706400  91.3615650  41.6980240
 109.6823100  91.7031620  41.5960120 110.8547590  91.1615970  40.8061070
 108.5339410  93.9621300  47.5819940 109.1055520  93.1943500  47.5823580
 108.5340950  94.2610060  46.6726550 118.3919360 102.7812150  45.4365210
 117.7730800 103.2369650  44.8659650 119.2471140 102.9363610  45.0354910
 117.5857610  98.7651140  47.0432250 117.5165890  97.8241080  46.8821380
 118.3477470  98.8552550  47.6154820 109.7764280  89.3705660  49.3688870
 109.5967120  88.4731410  49.6491630 109.3744360  89.9177530  50.0435820
 118.6162780  91.5721520  47.2701180 118.9927600  90.6993400  47.1574850
 118.5182290  91.9080220  46.3791620 112.7467790  89.9447150  42.7318620
 112.8534540  90.8450880  43.0387380 111.8360150  89.8965120  42.4413270
 110.3950950  91.8666160  47.9771210 111.0761060  92.1304530  48.5958610
 110.0799000  91.0267030  48.3109220 114.5875520  92.9133520  47.0643800
 115.0953740  93.4114490  47.7048820 115.1188760  92.1368720  46.8883160
 112.8711620  87.5532080  51.3307220 112.8730060  88.0704470  50.5253120
 112.0415930  87.0762260  51.3077150 119.2582710  97.6651390  42.8297120
 118.6399980  98.1300840  42.2659840 119.7705960  98.3578870  43.2466630
 114.1214470  97.1927260  49.5080720 113.7883850  97.8196180  50.1501790
 114.2981150  97.7189140  48.7282390 112.5526950  89.2642040  49.3377670
 112.8943760  90.1084090  49.0431540 111.6142760  89.4125780  49.4543010
 113.3333570  99.1608060  51.3229900 113.9507570  99.8359140  51.0414350
 112.4726690  99.5696040  51.2317400 108.6265910  98.3507920  40.2036750
 108.2493890  98.8395020  39.4721650 108.8838980  99.0233200  40.8343280
 116.2354840  86.7524310  45.6622260 116.5429820  86.1971200  44.9457760
 115.3055540  86.8868770  45.4795250 118.6235600  94.8173140  42.3982380
 117.6964880  94.7510520  42.6270850 118.7760420  95.7553270  42.2837620
 118.6104680  91.0890140  39.3949540 117.6708350  91.2504100  39.4802000
 118.9287940  91.8075820  38.8485530 114.2292240  95.3437880  45.1802110
 113.8249240  94.6315130  44.6848010 114.3155360  94.9991120  46.0690150
 114.6973940  99.0305440  47.3441320 114.4002230  98.4250910  46.6649100
 115.6473760  99.0682750  47.2330680 112.9420860  92.1181090  48.9601150
 113.4935450  92.2276430  48.1854400 113.4564370  92.4918690  49.6756380
 113.7892370  98.7687130  53.9949120 112.8920900  98.9927100  54.2422520
 113.8145240  98.8922070  53.0460520 112.6163590  95.6400450  52.5706490
 112.4771360  96.5123250  52.9393890 111.7344950  95.2973260  52.4254430
 118.9392970 100.5576320  43.8771620 119.3788880 101.3000650  43.4627010
 118.8779860 100.8002890  44.8010580 114.4143940 101.5822150  54.7791640
 114.3859370 101.9865100  53.9120070 114.2508910 100.6532510  54.6163240
 110.9296870  94.2382860  42.6808760 110.8094470  94.9644950  42.0690030
 110.6197760  93.4685770  42.2036670 108.5682240  97.4098000  48.4877400
 108.6462660  97.5446770  47.5433120 109.1823920  96.7013890  48.6805520
 109.8129870  99.1098190  44.8983580 109.4057950  99.2512780  44.0437180
 110.7042880  98.8258350  44.6954790 119.6308750 103.2590100  51.8050630
 120.1453420 103.1698110  52.6073060 118.7877830 103.6049800  52.0978540
 114.0851530 103.3243970  43.0106250 113.9094010 102.4079510  42.7974050
 113.2307270 103.6831260  43.2504050 108.6241760  98.4512170  51.0271860
 108.7872800  97.9817530  50.2091230 109.0894210  97.9435730  51.6920700
 113.3960530  87.5817930  46.0632430 112.9528680  88.3627470  45.7316950
 113.9545520  87.9047820  46.7703370 117.6830340  90.4486450  51.6667750
 117.2209710  90.6569470  52.4787690 117.2808450  89.6345800  51.3638420
 116.5119350  87.2028630  40.9438260 115.8873530  87.1988500  41.6691570
 116.4249470  86.3359590  40.5474230 115.4336430  88.1265260  47.9222030
 115.7308760  89.0328090  47.8414050 115.9821990  87.6384040  47.3081600
 113.1874750  92.7051500  43.7913680 112.9615670  92.4888670  44.6960300
 112.4067280  93.1379960  43.4459650 115.6273960  93.6037080  54.4573950
 115.5317560  92.6631810  54.3074350 116.4705940  93.8252150  54.0622020
 119.0237380  91.3478410  44.4207610 119.4166950  91.6650610  43.6076300
 119.3854230  90.4690290  44.5352130 110.7584500  90.0150750  52.6107730
 110.3647890  90.8625960  52.8180510 110.0702900  89.3777120  52.8016370
 117.3329550  90.0985720  55.6804470 116.6427870  89.9057920  56.3150560
 118.0761850  90.3820360  56.2128770 108.0601550  87.9379210  46.6437810
 107.7714600  88.5082070  47.3562790 108.8047310  87.4583660  47.0069040
 108.2471780  91.8799330  37.8540530 108.1646450  92.8230090  37.9955520
 107.8954840  91.7374240  36.9752880 119.6092520  93.9384160  48.5158390
 118.8773640  94.4470970  48.8648490 119.2116860  93.1214140  48.2147170
 116.0469910  90.6138360  46.9210880 116.0505970  90.1728310  46.0715420
 116.9421030  90.9355690  47.0282700 111.8972290  90.4964850  45.8805090
 111.5572340  90.9740080  46.6372140 111.1349610  90.0429970  45.5206190
 116.1090060  91.6150440  39.9117640 116.2302880  91.5736920  40.8603460
 115.7238570  92.4774590  39.7564370 120.0718430  89.3917840  47.9281330
 120.0891170  89.8426490  48.7723180 119.8234010  88.4923480  48.1414770
 115.1211560  93.9251580  39.3100940 114.5528460  93.4769830  38.6836850
 115.8300560  94.2844360  38.7766090 110.1980740  97.8263600  53.1867670
 109.8135530  97.1857270  53.7850630 110.5092930  98.5299720  53.7562400
 116.3477880  94.6740140  48.6676290 116.7148010  94.1998710  49.4137630
 116.1582940  95.5481710  49.0084630 109.2118370  89.4183830  44.7969760
 108.9265290  89.0539500  45.6348380 109.1497230  88.6864290  44.1832900
 114.1377250  93.7148780  50.9860500 113.8334320  94.5940760  51.2110860
 115.0923710  93.7748570  51.0217940 112.6659040  97.9209770  41.5827350
 111.8921300  97.3807390  41.4226070 113.3953670  97.4016380  41.2445110
 118.8856960  88.3113090  41.5183130 118.0721570  87.8126260  41.4428440
 118.6918910  89.1511340  41.1019480 118.8065820  96.9884190  53.2622740
 118.7403130  96.0679860  53.0080330 118.1770960  97.0859630  53.9767380
 112.7096440  97.5890150  45.2206160 113.2275110  96.7858410  45.1663050
 112.2580460  97.5269290  46.0622990 117.5965940  98.8556430  40.4933460
 117.9381640  99.5998660  39.9976780 116.7678650  99.1687550  40.8558290
 110.1940980  94.5551520  52.1331860 109.8355920  95.2205370  52.7205200
 109.8995540  93.7235070  52.5044480 113.3954100  95.0135760  55.0171410
 113.0954240  95.1592940  54.1199230 114.1665340  94.4541050  54.9244800
 118.7382550  99.8104760  53.0126540 118.7527090  98.8785720  52.7945450
 118.0307650  99.8964520  53.6516310 116.5656630  98.9369960  43.2649380
 117.2527760  99.4839170  43.6456970 115.7789050  99.4810690  43.2998990
 108.7049030  94.5542780  38.7566460 109.5743880  94.8367580  39.0402380
 108.2139350  95.3678650  38.6415270 115.8683840  95.9415990  42.8774740
 116.3246620  96.7521240  43.1034930 115.5172050  95.6239130  43.7093230
 118.1716450 101.4522330  50.1067040 118.8158670 101.6581710  50.7840460
 118.5345890 100.6910730  49.6537890 111.7695620  86.2853640  43.3497260
 111.6410250  86.2771540  44.2982180 110.9457640  86.6236730  42.9988270
 119.4448530  99.4554680  48.8244490 120.0870760  98.7547840  48.9376660
 119.9697880 100.2353120  48.6441380 109.0720280 103.7670160  39.3228090
 109.4317920 104.3659500  38.6685360 108.9312620 104.3130050  40.0963120
 108.7689550  88.0444760  52.8103960 108.0548070  88.2441680  53.4156570
 109.1884590  87.2684330  53.1818760 109.0562140 102.0325020  53.7970490
 109.1653260 101.0919760  53.6565880 108.4042700 102.2979770  53.1484220
 117.0474730 100.3040910  55.1968610 116.7271600  99.5850150  55.7414300
 116.3733090 100.9795980  55.2704670 115.0888900 101.1501360  40.1401760
 115.0799000 101.8831050  39.5246270 114.1687260 100.9032940  40.2328720
 110.6895540  96.3716250  40.8848520 110.0823490  97.1115150  40.8943820
 111.1644890  96.4615610  40.0586720 118.0748500 101.2129600  38.8026950
 118.1760480 101.0093590  37.8728930 117.1750240 100.9587880  39.0074730
 115.5974390  91.7709960  42.7850850 114.8890540  92.2396300  43.2264460
 115.8818870  91.1131970  43.4196040 117.2230320  93.1906660  50.7843380
 117.7215570  93.6652480  51.4495230 117.3653270  92.2670180  50.9913410
 116.7166610 103.7315920  43.4974620 116.9708110 103.6937310  42.5753990
 115.7679090 103.6049250  43.4902870 113.8009410  90.0795040  40.1601560
 114.6499940  90.5165190  40.0941750 113.4340680  90.3915300  40.9873620
 112.7000830  96.3327400  38.6337090 113.4664100  96.2208760  39.1962520
 112.7775520  95.6365370  37.9813860 111.3947590  93.7652470  39.3169980
 111.4751180  92.8179980  39.4287380 112.2867340  94.0959350  39.4230640
 112.1962300 103.9147860  46.4204520 112.9324780 103.3663320  46.6913090
 112.5803220 104.7803870  46.2810510 109.0807780  99.9821430  42.2946030
 108.1547560 100.2242570  42.2851440 109.5464210 100.8095690  42.1730780
 111.2020580 103.0993930  55.6090100 112.0033310 103.4205980  56.0225500
 110.6872400 102.7389510  56.3310010 115.3064610 103.0878170  38.2430090
 116.0993220 103.3767000  37.7911880 114.7868960 102.6570340  37.5642570
 120.0385210  99.2073800  55.5565510 119.4323370  99.2305400  54.8161260
 119.7339320  98.4756840  56.0932760 108.9218390  95.5867390  54.5526150
 109.4257410  95.0074670  55.1242380 108.1825810  95.8707620  55.0902520
 115.8242010  98.3081580  38.1072440 115.7192650  97.6933930  38.8333820
 115.6566230  97.7847470  37.3235450 115.9756330  96.9938380  54.0861670
 115.2102000  97.5623380  54.0016340 116.1572290  96.7014590  53.1929900
 119.0644740  97.3701610  38.7114430 118.5154840  97.8170910  39.3557170
 119.6864000  96.8650860  39.2352100 110.9541470  93.7296980  55.4476220
 110.9946810  93.4310850  56.3561450 111.8086970  94.1304590  55.2883740
 114.7319860  96.3292530  40.6079730 115.1536280  96.1632400  41.4511120
 114.8570700  95.5192760  40.1134870 112.8947280  92.3089080  53.4150710
 112.3643740  91.8180030  52.7874050 113.5635350  92.7373280  52.8808640
 117.2447500  95.3530140  37.8556830 117.7653160  94.6379160  37.4897980
 117.8915900  95.9916010  38.1557340 113.3819580  89.2751450  53.4948000
 113.2876450  88.6572200  52.7698870 112.8016970  90.0017740  53.2677910
 116.1481020  87.8324690  50.5275390 115.6998320  87.8548950  49.6820940
 115.5146220  87.4343710  51.1245690 116.5540570  96.7279020  51.1487830
 116.9728680  97.5711750  50.9764070 115.6349200  96.8651060  50.9194610
 118.8904470  94.4595200  52.5325670 119.0100680  93.8636340  53.2720510
 119.7498470  94.4964890  52.1126970 113.6278760  92.4025760  37.5537890
 113.4267820  91.5393120  37.9151230 113.4570810  92.3159120  36.6159490
 114.4047990 103.0332030  52.2645560 113.8669080 103.7578090  51.9454260
 114.6581950 102.5562370  51.4742900 115.6573240  91.0016550  53.7901490
 116.2472930  90.6932400  54.4779310 114.8393480  90.5296300  53.9461390
 112.4261560  89.5026380  37.5415770 112.7287460  89.5093810  36.6334920
 113.1656150  89.1524240  38.0383430 117.2610200 104.2683240  52.5232210
 117.1868900 105.1718380  52.8304580 116.3589040 103.9495140  52.4954280
 115.6446490  88.4461000  38.5271970 115.2968490  87.7684990  37.9474420
 115.8459260  87.9850510  39.3415360 117.8095530 103.4341750  40.1458570
 118.7046320 103.7726720  40.1677330 117.8413160 102.7121160  39.5182850
 111.4491690  98.8068800  38.3745570 111.8866560  99.3498470  39.0303150
 111.9339420  97.9815750  38.3841910 108.6637490 101.5957830  45.8265830
 108.9940500 100.7278890  45.5944470 109.0928490 101.8016350  46.6570790
 113.2599410  99.9266840  43.4867800 112.9594950  99.8031810  44.3871710
 113.1536900  99.0675430  43.0783530 109.1527700 102.4628420  48.5647460
 108.7158690 102.6429220  49.3971610 109.7205380 103.2203040  48.4229180
 108.9852130  94.9748650  44.9236340 108.3300970  94.7060290  44.2796040
 109.8230080  94.8653130  44.4738320 110.0228060  95.3601220  49.4639680
 110.3901100  95.2728620  50.3435700 109.4538880  94.5967770  49.3646540
 109.5744060  92.2710310  53.3698100 108.6800110  92.2377070  53.7091810
 110.1141610  92.4697100  54.1349350 108.1990210  92.1847580  40.8661670
 107.2954290  92.4477780  40.6913330 108.6830830  92.4558750  40.0861630
 110.7417420  91.2413120  38.7756050 111.4509120  90.8196340  38.2903330
 110.0257360  91.3088350  38.1439400 110.3891580  87.2952450  37.8158700
 111.1119710  87.8361390  38.1339920 110.6616100  87.0215870  36.9400240
 110.0783770  86.5458640  47.7181320 110.7259960  85.9956020  47.2776480
 110.4985610  86.8001790  48.5397130 109.8315770  86.7014310  50.4606640
 109.4830590  87.1578130  51.2264820 109.5003470  85.8071440  50.5429070
 111.4380140  99.8733910  54.6259830 111.3949770  99.5026820  55.5074290
 111.5691150 100.8111480  54.7661650 115.1386170 101.4293500  50.2269550
 114.8977530 101.6968060  49.3400070 116.0788810 101.5999230  50.2820410
 117.3440590  87.8926190  53.9826060 117.2829480  88.4848020  54.7321470
 118.2840970  87.7852150  53.8376320 110.5036410  86.2290510  53.7357410
 111.0519400  86.0478560  52.9723520 110.5691720  85.4384620  54.2713720
 111.2768170 102.8196160  51.7457610 110.6828490 102.6880860  52.4847650
 111.2692010 101.9834300  51.2799710 110.9080400 100.1854540  50.6965650
 110.1814460  99.5659830  50.6291600 110.9689550 100.5795150  49.8263730
 114.5125500 102.3999540  47.4815060 115.0290520 101.7886900  46.9563320
 115.1622880 102.9028320  47.9726070 117.2521000 103.2908030  48.3084040
 117.5398810 103.0362330  47.4317050 117.7644220 102.7385390  48.8989610
 118.4698010  87.0298230  48.8880550 117.6869800  87.5043730  49.1677310
 118.1760940  86.1253060  48.7793730 109.1910400 103.5028930  43.9062410
 109.0232440 102.8699610  44.6044300 108.3244910 103.7088330  43.5556600
 109.8138420  87.3345710  41.4094270 110.5717780  87.4474590  40.8358300
 109.3515590  88.1714910  41.3637700 116.3552230  89.4484980  44.3996580
 115.5426740  89.0741870  44.0592460 116.8593870  88.6930060  44.7017770
 110.7973100 102.1962160  41.3512550 110.2720720 102.5770190  40.6474510
 110.7217680 102.8212930  42.0722260 112.1863570  87.8609760  39.9496240
 112.7156330  87.0739560  39.8204190 112.8191890  88.5400950  40.1831770
 114.3801410  87.5984900  43.0041630 113.7504150  86.8972210  43.1711760
 113.8406550  88.3589030  42.7874790 117.3193360 104.2124130  55.6752240
 118.2460670 103.9768400  55.7188200 117.3043790 105.0396130  55.1938270
 114.5056970  86.8768880  55.4394120 114.2241240  87.3802480  54.6754940
 114.8876670  86.0790630  55.0736250 113.3966070 104.1444540  40.2261800
 114.1284890 103.8603820  39.6785690 113.6559740 103.9057820  41.1161180
 112.5580860 100.2609270  40.2308130 111.9289740 100.7294370  40.7793960
 112.6728690  99.4158490  40.6654320 120.0130580  94.3114930  26.3809330
 119.9324630  93.3969540  26.1101040 119.5995000  94.8082000  25.6749040
 118.1448620  96.0893950  28.2618600 117.3690720  95.6094390  28.5517170
 118.7961550  95.4099600  28.0874760 112.1614450  96.4013760  29.1394360
 111.3299330  96.1462470  29.5390870 112.7695430  96.4724530  29.8752280
 112.1415710 100.4353850  29.3352380 112.4443750  99.5451590  29.1562600
 112.8859300 100.9924070  29.1074630 110.5706400  91.3615650  22.9236750
 109.6823100  91.7031620  22.8216630 110.8547590  91.1615970  22.0317580
 108.5339410  93.9621300  28.8076450 109.1055520  93.1943500  28.8080090
 108.5340950  94.2610060  27.8983060 118.3919360 102.7812150  26.6621720
 117.7730800 103.2369650  26.0916160 119.2471140 102.9363610  26.2611420
 117.5857610  98.7651140  28.2688760 117.5165890  97.8241080  28.1077890
 118.3477470  98.8552550  28.8411330 109.7764280  89.3705660  30.5945380
 109.5967120  88.4731410  30.8748140 109.3744360  89.9177530  31.2692330
 118.6162780  91.5721520  28.4957690 118.9927600  90.6993400  28.3831360
 118.5182290  91.9080220  27.6048130 112.7467790  89.9447150  23.9575130
 112.8534540  90.8450880  24.2643890 111.8360150  89.8965120  23.6669780
 110.3950950  91.8666160  29.2027720 111.0761060  92.1304530  29.8215120
 110.0799000  91.0267030  29.5365730 114.5875520  92.9133520  28.2900310
 115.0953740  93.4114490  28.9305330 115.1188760  92.1368720  28.1139670
 112.8711620  87.5532080  32.5563730 112.8730060  88.0704470  31.7509630
 112.0415930  87.0762260  32.5333660 119.2582710  97.6651390  24.0553630
 118.6399980  98.1300840  23.4916350 119.7705960  98.3578870  24.4723140
 114.1214470  97.1927260  30.7337230 113.7883850  97.8196180  31.3758300
 114.2981150  97.7189140  29.9538900 112.5526950  89.2642040  30.5634180
 112.8943760  90.1084090  30.2688050 111.6142760  89.4125780  30.6799520
 113.3333570  99.1608060  32.5486410 113.9507570  99.8359140  32.2670860
 112.4726690  99.5696040  32.4573910 108.6265910  98.3507920  21.4293260
 108.2493890  98.8395020  20.6978160 108.8838980  99.0233200  22.0599790
 116.2354840  86.7524310  26.8878770 116.5429820  86.1971200  26.1714270
 115.3055540  86.8868770  26.7051760 118.6235600  94.8173140  23.6238890
 117.6964880  94.7510520  23.8527360 118.7760420  95.7553270  23.5094130
 118.6104680  91.0890140  20.6206050 117.6708350  91.2504100  20.7058510
 118.9287940  91.8075820  20.0742040 114.2292240  95.3437880  26.4058620
 113.8249240  94.6315130  25.9104520 114.3155360  94.9991120  27.2946660
 114.6973940  99.0305440  28.5697830 114.4002230  98.4250910  27.8905610
 115.6473760  99.0682750  28.4587190 112.9420860  92.1181090  30.1857660
 113.4935450  92.2276430  29.4110910 113.4564370  92.4918690  30.9012890
 113.7892370  98.7687130  35.2205630 112.8920900  98.9927100  35.4679030
 113.8145240  98.8922070  34.2717030 112.6163590  95.6400450  33.7963000
 112.4771360  96.5123250  34.1650400 111.7344950  95.2973260  33.6510940
 118.9392970 100.5576320  25.1028130 119.3788880 101.3000650  24.6883520
 118.8779860 100.8002890  26.0267090 114.4143940 101.5822150  36.0048150
 114.3859370 101.9865100  35.1376580 114.2508910 100.6532510  35.8419750
 110.9296870  94.2382860  23.9065270 110.8094470  94.9644950  23.2946540
 110.6197760  93.4685770  23.4293180 108.5682240  97.4098000  29.7133910
 108.6462660  97.5446770  28.7689630 109.1823920  96.7013890  29.9062030
 109.8129870  99.1098190  26.1240090 109.4057950  99.2512780  25.2693690
 110.7042880  98.8258350  25.9211300 119.6308750 103.2590100  33.0307140
 120.1453420 103.1698110  33.8329570 118.7877830 103.6049800  33.3235050
 114.0851530 103.3243970  24.2362760 113.9094010 102.4079510  24.0230560
 113.2307270 103.6831260  24.4760560 108.6241760  98.4512170  32.2528370
 108.7872800  97.9817530  31.4347740 109.0894210  97.9435730  32.9177210
 113.3960530  87.5817930  27.2888940 112.9528680  88.3627470  26.9573460
 113.9545520  87.9047820  27.9959880 117.6830340  90.4486450  32.8924260
 117.2209710  90.6569470  33.7044200 117.2808450  89.6345800  32.5894930
 116.5119350  87.2028630  22.1694770 115.8873530  87.1988500  22.8948080
 116.4249470  86.3359590  21.7730740 115.4336430  88.1265260  29.1478540
 115.7308760  89.0328090  29.0670560 115.9821990  87.6384040  28.5338110
 113.1874750  92.7051500  25.0170190 112.9615670  92.4888670  25.9216810
 112.4067280  93.1379960  24.6716160 115.6273960  93.6037080  35.6830460
 115.5317560  92.6631810  35.5330860 116.4705940  93.8252150  35.2878530
 119.0237380  91.3478410  25.6464120 119.4166950  91.6650610  24.8332810
 119.3854230  90.4690290  25.7608640 110.7584500  90.0150750  33.8364240
 110.3647890  90.8625960  34.0437020 110.0702900  89.3777120  34.0272880
 117.3329550  90.0985720  36.9060980 116.6427870  89.9057920  37.5407070
 118.0761850  90.3820360  37.4385280 108.0601550  87.9379210  27.8694320
 107.7714600  88.5082070  28.5819300 108.8047310  87.4583660  28.2325550
 108.2471780  91.8799330  19.0797040 108.1646450  92.8230090  19.2212030
 107.8954840  91.7374240  18.2009390 119.6092520  93.9384160  29.7414900
 118.8773640  94.4470970  30.0905000 119.2116860  93.1214140  29.4403680
 116.0469910  90.6138360  28.1467390 116.0505970  90.1728310  27.2971930
 116.9421030  90.9355690  28.2539210 111.8972290  90.4964850  27.1061600
 111.5572340  90.9740080  27.8628650 111.1349610  90.0429970  26.7462700
 116.1090060  91.6150440  21.1374150 116.2302880  91.5736920  22.0859970
 115.7238570  92.4774590  20.9820880 120.0718430  89.3917840  29.1537840
 120.0891170  89.8426490  29.9979690 119.8234010  88.4923480  29.3671280
 115.1211560  93.9251580  20.5357450 114.5528460  93.4769830  19.9093360
 115.8300560  94.2844360  20.0022600 110.1980740  97.8263600  34.4124180
 109.8135530  97.1857270  35.0107140 110.5092930  98.5299720  34.9818910
 116.3477880  94.6740140  29.8932800 116.7148010  94.1998710  30.6394140
 116.1582940  95.5481710  30.2341140 109.2118370  89.4183830  26.0226270
 108.9265290  89.0539500  26.8604890 109.1497230  88.6864290  25.4089410
 114.1377250  93.7148780  32.2117010 113.8334320  94.5940760  32.4367370
 115.0923710  93.7748570  32.2474450 112.6659040  97.9209770  22.8083860
 111.8921300  97.3807390  22.6482580 113.3953670  97.4016380  22.4701620
 118.8856960  88.3113090  22.7439640 118.0721570  87.8126260  22.6684950
 118.6918910  89.1511340  22.3275990 118.8065820  96.9884190  34.4879250
 118.7403130  96.0679860  34.2336840 118.1770960  97.0859630  35.2023890
 112.7096440  97.5890150  26.4462670 113.2275110  96.7858410  26.3919560
 112.2580460  97.5269290  27.2879500 117.5965940  98.8556430  21.7189970
 117.9381640  99.5998660  21.2233290 116.7678650  99.1687550  22.0814800
 110.1940980  94.5551520  33.3588370 109.8355920  95.2205370  33.9461710
 109.8995540  93.7235070  33.7300990 113.3954100  95.0135760  36.2427920
 113.0954240  95.1592940  35.3455740 114.1665340  94.4541050  36.1501310
 118.7382550  99.8104760  34.2383050 118.7527090  98.8785720  34.0201960
 118.0307650  99.8964520  34.8772820 116.5656630  98.9369960  24.4905890
 117.2527760  99.4839170  24.8713480 115.7789050  99.4810690  24.5255500
 108.7049030  94.5542780  19.9822970 109.5743880  94.8367580  20.2658890
 108.2139350  95.3678650  19.8671780 115.8683840  95.9415990  24.1031250
 116.3246620  96.7521240  24.3291440 115.5172050  95.6239130  24.9349740
 118.1716450 101.4522330  31.3323550 118.8158670 101.6581710  32.0096970
 118.5345890 100.6910730  30.8794400 111.7695620  86.2853640  24.5753770
 111.6410250  86.2771540  25.5238690 110.9457640  86.6236730  24.2244780
 119.4448530  99.4554680  30.0501000 120.0870760  98.7547840  30.1633170
 119.9697880 100.2353120  29.8697890 109.0720280 103.7670160  20.5484600
 109.4317920 104.3659500  19.8941870 108.9312620 104.3130050  21.3219630
 108.7689550  88.0444760  34.0360470 108.0548070  88.2441680  34.6413080
 109.1884590  87.2684330  34.4075270 109.0562140 102.0325020  35.0227000
 109.1653260 101.0919760  34.8822390 108.4042700 102.2979770  34.3740730
 117.0474730 100.3040910  36.4225120 116.7271600  99.5850150  36.9670810
 116.3733090 100.9795980  36.4961180 115.0888900 101.1501360  21.3658270
 115.0799000 101.8831050  20.7502780 114.1687260 100.9032940  21.4585230
 110.6895540  96.3716250  22.1105030 110.0823490  97.1115150  22.1200330
 111.1644890  96.4615610  21.2843230 118.0748500 101.2129600  20.0283460
 118.1760480 101.0093590  19.0985440 117.1750240 100.9587880  20.2331240
 115.5974390  91.7709960  24.0107360 114.8890540  92.2396300  24.4520970
 115.8818870  91.1131970  24.6452550 117.2230320  93.1906660  32.0099890
 117.7215570  93.6652480  32.6751740 117.3653270  92.2670180  32.2169920
 116.7166610 103.7315920  24.7231130 116.9708110 103.6937310  23.8010500
 115.7679090 103.6049250  24.7159380 113.8009410  90.0795040  21.3858070
 114.6499940  90.5165190  21.3198260 113.4340680  90.3915300  22.2130130
 112.7000830  96.3327400  19.8593600 113.4664100  96.2208760  20.4219030
 112.7775520  95.6365370  19.2070370 111.3947590  93.7652470  20.5426490
 111.4751180  92.8179980  20.6543890 112.2867340  94.0959350  20.6487150
 112.1962300 103.9147860  27.6461030 112.9324780 103.3663320  27.9169600
 112.5803220 104.7803870  27.5067020 109.0807780  99.9821430  23.5202540
 108.1547560 100.2242570  23.5107950 109.5464210 100.8095690  23.3987290
 111.2020580 103.0993930  36.8346610 112.0033310 103.4205980  37.2482010
 110.6872400 102.7389510  37.5566520 115.3064610 103.0878170  19.4686600
 116.0993220 103.3767000  19.0168390 114.7868960 102.6570340  18.7899080
 120.0385210  99.2073800  36.7822020 119.4323370  99.2305400  36.0417770
 119.7339320  98.4756840  37.3189270 108.9218390  95.5867390  35.7782660
 109.4257410  95.0074670  36.3498890 108.1825810  95.8707620  36.3159030
 115.8242010  98.3081580  19.3328950 115.7192650  97.6933930  20.0590330
 115.6566230  97.7847470  18.5491960 115.9756330  96.9938380  35.3118180
 115.2102000  97.5623380  35.2272850 116.1572290  96.7014590  34.4186410
 119.0644740  97.3701610  19.9370940 118.5154840  97.8170910  20.5813680
 119.6864000  96.8650860  20.4608610 110.9541470  93.7296980  36.6732730
 110.9946810  93.4310850  37.5817960 111.8086970  94.1304590  36.5140250
 114.7319860  96.3292530  21.8336240 115.1536280  96.1632400  22.6767630
 114.8570700  95.5192760  21.3391380 112.8947280  92.3089080  34.6407220
 112.3643740  91.8180030  34.0130560 113.5635350  92.7373280  34.1065150
 117.2447500  95.3530140  19.0813340 117.7653160  94.6379160  18.7154490
 117.8915900  95.9916010  19.3813850 113.3819580  89.2751450  34.7204510
 113.2876450  88.6572200  33.9955380 112.8016970  90.0017740  34.4934420
 116.1481020  87.8324690  31.7531900 115.6998320  87.8548950  30.9077450
 115.5146220  87.4343710  32.3502200 116.5540570  96.7279020  32.3744340
 116.9728680  97.5711750  32.2020580 115.6349200  96.8651060  32.1451120
 118.8904470  94.4595200  33.7582180 119.0100680  93.8636340  34.4977020
 119.7498470  94.4964890  33.3383480 113.6278760  92.4025760  18.7794400
 113.4267820  91.5393120  19.1407740 113.4570810  92.3159120  17.8416000
 114.4047990 103.0332030  33.4902070 113.8669080 103.7578090  33.1710770
 114.6581950 102.5562370  32.6999410 115.6573240  91.0016550  35.0158000
 116.2472930  90.6932400  35.7035820 114.8393480  90.5296300  35.1717900
 112.4261560  89.5026380  18.7672280 112.7287460  89.5093810  17.8591430
 113.1656150  89.1524240  19.2639940 117.2610200 104.2683240  33.7488720
 117.1868900 105.1718380  34.0561090 116.3589040 103.9495140  33.7210790
 115.6446490  88.4461000  19.7528480 115.2968490  87.7684990  19.1730930
 115.8459260  87.9850510  20.5671870 117.8095530 103.4341750  21.3715080
 118.7046320 103.7726720  21.3933840 117.8413160 102.7121160  20.7439360
 111.4491690  98.8068800  19.6002080 111.8866560  99.3498470  20.2559660
 111.9339420  97.9815750  19.6098420 108.6637490 101.5957830  27.0522340
 108.9940500 100.7278890  26.8200980 109.0928490 101.8016350  27.8827300
 113.2599410  99.9266840  24.7124310 112.9594950  99.8031810  25.6128220
 113.1536900  99.0675430  24.3040040 109.1527700 102.4628420  29.7903970
 108.7158690 102.6429220  30.6228120 109.7205380 103.2203040  29.6485690
 108.9852130  94.9748650  26.1492850 108.3300970  94.7060290  25.5052550
 109.8230080  94.8653130  25.6994830 110.0228060  95.3601220  30.6896190
 110.3901100  95.2728620  31.5692210 109.4538880  94.5967770  30.5903050
 109.5744060  92.2710310  34.5954610 108.6800110  92.2377070  34.9348320
 110.1141610  92.4697100  35.3605860 108.1990210  92.1847580  22.0918180
 107.2954290  92.4477780  21.9169840 108.6830830  92.4558750  21.3118140
 110.7417420  91.2413120  20.0012560 111.4509120  90.8196340  19.5159840
 110.0257360  91.3088350  19.3695910 110.3891580  87.2952450  19.0415210
 111.1119710  87.8361390  19.3596430 110.6616100  87.0215870  18.1656750
 110.0783770  86.5458640  28.9437830 110.7259960  85.9956020  28.5032990
 110.4985610  86.8001790  29.7653640 109.8315770  86.7014310  31.6863150
 109.4830590  87.1578130  32.4521330 109.5003470  85.8071440  31.7685580
 111.4380140  99.8733910  35.8516340 111.3949770  99.5026820  36.7330800
 111.5691150 100.8111480  35.9918160 115.1386170 101.4293500  31.4526060
 114.8977530 101.6968060  30.5656580 116.0788810 101.5999230  31.5076920
 117.3440590  87.8926190  35.2082570 117.2829480  88.4848020  35.9577980
 118.2840970  87.7852150  35.0632830 110.5036410  86.2290510  34.9613920
 111.0519400  86.0478560  34.1980030 110.5691720  85.4384620  35.4970230
 111.2768170 102.8196160  32.9714120 110.6828490 102.6880860  33.7104160
 111.2692010 101.9834300  32.5056220 110.9080400 100.1854540  31.9222160
 110.1814460  99.5659830  31.8548110 110.9689550 100.5795150  31.0520240
 114.5125500 102.3999540  28.7071570 115.0290520 101.7886900  28.1819830
 115.1622880 102.9028320  29.1982580 117.2521000 103.2908030  29.5340550
 117.5398810 103.0362330  28.6573560 117.7644220 102.7385390  30.1246120
 118.4698010  87.0298230  30.1137060 117.6869800  87.5043730  30.3933820
 118.1760940  86.1253060  30.0050240 109.1910400 103.5028930  25.1318920
 109.0232440 102.8699610  25.8300810 108.3244910 103.7088330  24.7813110
 109.8138420  87.3345710  22.6350780 110.5717780  87.4474590  22.0614810
 109.3515590  88.1714910  22.5894210 116.3552230  89.4484980  25.6253090
 115.5426740  89.0741870  25.2848970 116.8593870  88.6930060  25.9274280
 110.7973100 102.1962160  22.5769060 110.2720720 102.5770190  21.8731020
 110.7217680 102.8212930  23.2978770 112.1863570  87.8609760  21.1752750
 112.7156330  87.0739560  21.0460700 112.8191890  88.5400950  21.4088280
 114.3801410  87.5984900  24.2298140 113.7504150  86.8972210  24.3968270
 113.8406550  88.3589030  24.0131300 117.3193360 104.2124130  36.9008750
 118.2460670 103.9768400  36.9444710 117.3043790 105.0396130  36.4194780
 114.5056970  86.8768880  36.6650630 114.2241240  87.3802480  35.9011450
 114.8876670  86.0790630  36.2992760 113.3966070 104.1444540  21.4518310
 114.1284890 103.8603820  20.9042200 113.6559740 103.9057820  22.3417690
 112.5580860 100.2609270  21.4564640 111.9289740 100.7294370  22.0050470
 112.6728690  99.4158490  21.8910830 120.0130580  94.3114930   7.6065840
 119.9324630  93.3969540   7.3357550 119.5995000  94.8082000   6.9005550
 118.1448620  96.0893950   9.4875110 117.3690720  95.6094390   9.7773680
 118.7961550  95.4099600   9.3131270 112.1614450  96.4013760  10.3650870
 111.3299330  96.1462470  10.7647380 112.7695430  96.4724530  11.1008790
 112.1415710 100.4353850  10.5608890 112.4443750  99.5451590  10.3819110
 112.8859300 100.9924070  10.3331140 110.5706400  91.3615650   4.1493260
 109.6823100  91.7031620   4.0473140 110.8547590  91.1615970   3.2574090
 108.5339410  93.9621300  10.0332960 109.1055520  93.1943500  10.0336600
 108.5340950  94.2610060   9.1239570 118.3919360 102.7812150   7.8878230
 117.7730800 103.2369650   7.3172670 119.2471140 102.9363610   7.4867930
 117.5857610  98.7651140   9.4945270 117.5165890  97.8241080   9.3334400
 118.3477470  98.8552550  10.0667840 109.7764280  89.3705660  11.8201890
 109.5967120  88.4731410  12.1004650 109.3744360  89.9177530  12.4948840
 118.6162780  91.5721520   9.7214200 118.9927600  90.6993400   9.6087870
 118.5182290  91.9080220   8.8304640 112.7467790  89.9447150   5.1831640
 112.8534540  90.8450880   5.4900400 111.8360150  89.8965120   4.8926290
 110.3950950  91.8666160  10.4284230 111.0761060  92.1304530  11.0471630
 110.0799000  91.0267030  10.7622240 114.5875520  92.9133520   9.5156820
 115.0953740  93.4114490  10.1561840 115.1188760  92.1368720   9.3396180
 112.8711620  87.5532080  13.7820240 112.8730060  88.0704470  12.9766140
 112.0415930  87.0762260  13.7590170 119.2582710  97.6651390   5.2810140
 118.6399980  98.1300840   4.7172860 119.7705960  98.3578870   5.6979650
 114.1214470  97.1927260  11.9593740 113.7883850  97.8196180  12.6014810
 114.2981150  97.7189140  11.1795410 112.5526950  89.2642040  11.7890690
 112.8943760  90.1084090  11.4944560 111.6142760  89.4125780  11.9056030
 113.3333570  99.1608060  13.7742920 113.9507570  99.8359140  13.4927370
 112.4726690  99.5696040  13.6830420 108.6265910  98.3507920   2.6549770
 108.2493890  98.8395020   1.9234670 108.8838980  99.0233200   3.2856300
 116.2354840  86.7524310   8.1135280 116.5429820  86.1971200   7.3970780
 115.3055540  86.8868770   7.9308270 118.6235600  94.8173140   4.8495400
 117.6964880  94.7510520   5.0783870 118.7760420  95.7553270   4.7350640
 118.6104680  91.0890140   1.8462560 117.6708350  91.2504100   1.9315020
 118.9287940  91.8075820   1.2998550 114.2292240  95.3437880   7.6315130
 113.8249240  94.6315130   7.1361030 114.3155360  94.9991120   8.5203170
 114.6973940  99.0305440   9.7954340 114.4002230  98.4250910   9.1162120
 115.6473760  99.0682750   9.6843700 112.9420860  92.1181090  11.4114170
 113.4935450  92.2276430  10.6367420 113.4564370  92.4918690  12.1269400
 113.7892370  98.7687130  16.4462140 112.8920900  98.9927100  16.6935540
 113.8145240  98.8922070  15.4973540 112.6163590  95.6400450  15.0219510
 112.4771360  96.5123250  15.3906910 111.7344950  95.2973260  14.8767450
 118.9392970 100.5576320   6.3284640 119.3788880 101.3000650   5.9140030
 118.8779860 100.8002890   7.2523600 114.4143940 101.5822150  17.2304660
 114.3859370 101.9865100  16.3633090 114.2508910 100.6532510  17.0676260
 110.9296870  94.2382860   5.1321780 110.8094470  94.9644950   4.5203050
 110.6197760  93.4685770   4.6549690 108.5682240  97.4098000  10.9390420
 108.6462660  97.5446770   9.9946140 109.1823920  96.7013890  11.1318540
 109.8129870  99.1098190   7.3496600 109.4057950  99.2512780   6.4950200
 110.7042880  98.8258350   7.1467810 119.6308750 103.2590100  14.2563650
 120.1453420 103.1698110  15.0586080 118.7877830 103.6049800  14.5491560
 114.0851530 103.3243970   5.4619270 113.9094010 102.4079510   5.2487070
 113.2307270 103.6831260   5.7017070 108.6241760  98.4512170  13.4784880
 108.7872800  97.9817530  12.6604250 109.0894210  97.9435730  14.1433720
 113.3960530  87.5817930   8.5145450 112.9528680  88.3627470   8.1829970
 113.9545520  87.9047820   9.2216390 117.6830340  90.4486450  14.1180770
 117.2209710  90.6569470  14.9300710 117.2808450  89.6345800  13.8151440
 116.5119350  87.2028630   3.3951280 115.8873530  87.1988500   4.1204590
 116.4249470  86.3359590   2.9987250 115.4336430  88.1265260  10.3735050
 115.7308760  89.0328090  10.2927070 115.9821990  87.6384040   9.7594620
 113.1874750  92.7051500   6.2426700 112.9615670  92.4888670   7.1473320
 112.4067280  93.1379960   5.8972670 115.6273960  93.6037080  16.9086970
 115.5317560  92.6631810  16.7587370 116.4705940  93.8252150  16.5135040
 119.0237380  91.3478410   6.8720630 119.4166950  91.6650610   6.0589320
 119.3854230  90.4690290   6.9865150 110.7584500  90.0150750  15.0620750
 110.3647890  90.8625960  15.2693530 110.0702900  89.3777120  15.2529390
 117.3329550  90.0985720  18.1317490 116.6427870  89.9057920  18.7663580
 118.0761850  90.3820360  18.6641790 108.0601550  87.9379210   9.0950830
 107.7714600  88.5082070   9.8075810 108.8047310  87.4583660   9.4582060
 119.6092520  93.9384160  10.9671410 118.8773640  94.4470970  11.3161510
 119.2116860  93.1214140  10.6660190 116.0469910  90.6138360   9.3723900
 116.0505970  90.1728310   8.5228440 116.9421030  90.9355690   9.4795720
 111.8972290  90.4964850   8.3318110 111.5572340  90.9740080   9.0885160
 111.1349610  90.0429970   7.9719210 116.1090060  91.6150440   2.3630660
 116.2302880  91.5736920   3.3116480 115.7238570  92.4774590   2.2077390
 120.0718430  89.3917840  10.3794350 120.0891170  89.8426490  11.2236200
 119.8234010  88.4923480  10.5927790 110.1980740  97.8263600  15.6380690
 109.8135530  97.1857270  16.2363650 110.5092930  98.5299720  16.2075420
 116.3477880  94.6740140  11.1189310 116.7148010  94.1998710  11.8650650
 116.1582940  95.5481710  11.4597650 109.2118370  89.4183830   7.2482780
 108.9265290  89.0539500   8.0861400 109.1497230  88.6864290   6.6345920
 114.1377250  93.7148780  13.4373520 113.8334320  94.5940760  13.6623880
 115.0923710  93.7748570  13.4730960 112.6659040  97.9209770   4.0340370
 111.8921300  97.3807390   3.8739090 113.3953670  97.4016380   3.6958130
 118.8856960  88.3113090   3.9696150 118.0721570  87.8126260   3.8941460
 118.6918910  89.1511340   3.5532500 118.8065820  96.9884190  15.7135760
 118.7403130  96.0679860  15.4593350 118.1770960  97.0859630  16.4280400
 112.7096440  97.5890150   7.6719180 113.2275110  96.7858410   7.6176070
 112.2580460  97.5269290   8.5136010 117.5965940  98.8556430   2.9446480
 117.9381640  99.5998660   2.4489800 116.7678650  99.1687550   3.3071310
 110.1940980  94.5551520  14.5844880 109.8355920  95.2205370  15.1718220
 109.8995540  93.7235070  14.9557500 113.3954100  95.0135760  17.4684430
 113.0954240  95.1592940  16.5712250 114.1665340  94.4541050  17.3757820
 118.7382550  99.8104760  15.4639560 118.7527090  98.8785720  15.2458470
 118.0307650  99.8964520  16.1029330 116.5656630  98.9369960   5.7162400
 117.2527760  99.4839170   6.0969990 115.7789050  99.4810690   5.7512010
 115.8683840  95.9415990   5.3287760 116.3246620  96.7521240   5.5547950
 115.5172050  95.6239130   6.1606250 118.1716450 101.4522330  12.5580060
 118.8158670 101.6581710  13.2353480 118.5345890 100.6910730  12.1050910
 111.7695620  86.2853640   5.8010280 111.6410250  86.2771540   6.7495200
 110.9457640  86.6236730   5.4501290 119.4448530  99.4554680  11.2757510
 120.0870760  98.7547840  11.3889680 119.9697880 100.2353120  11.0954400
 108.7689550  88.0444760  15.2616980 108.0548070  88.2441680  15.8669590
 109.1884590  87.2684330  15.6331780 109.0562140 102.0325020  16.2483510
 109.1653260 101.0919760  16.1078900 108.4042700 102.2979770  15.5997240
 117.0474730 100.3040910  17.6481630 116.7271600  99.5850150  18.1927320
 116.3733090 100.9795980  17.7217690 115.0888900 101.1501360   2.5914780
 115.0799000 101.8831050   1.9759290 114.1687260 100.9032940   2.6841740
 110.6895540  96.3716250   3.3361540 110.0823490  97.1115150   3.3456840
 111.1644890  96.4615610   2.5099740 115.5974390  91.7709960   5.2363870
 114.8890540  92.2396300   5.6777480 115.8818870  91.1131970   5.8709060
 117.2230320  93.1906660  13.2356400 117.7215570  93.6652480  13.9008250
 117.3653270  92.2670180  13.4426430 116.7166610 103.7315920   5.9487640
 116.9708110 103.6937310   5.0267010 115.7679090 103.6049250   5.9415890
 113.8009410  90.0795040   2.6114580 114.6499940  90.5165190   2.5454770
 113.4340680  90.3915300   3.4386640 111.3947590  93.7652470   1.7683000
 111.4751180  92.8179980   1.8800400 112.2867340  94.0959350   1.8743660
 112.1962300 103.9147860   8.8717540 112.9324780 103.3663320   9.1426110
 112.5803220 104.7803870   8.7323530 109.0807780  99.9821430   4.7459050
 108.1547560 100.2242570   4.7364460 109.5464210 100.8095690   4.6243800
 111.2020580 103.0993930  18.0603120 112.0033310 103.4205980  18.4738520
 110.6872400 102.7389510  18.7823030 120.0385210  99.2073800  18.0078530
 119.4323370  99.2305400  17.2674280 119.7339320  98.4756840  18.5445780
 108.9218390  95.5867390  17.0039170 109.4257410  95.0074670  17.5755400
 108.1825810  95.8707620  17.5415540 115.9756330  96.9938380  16.5374690
 115.2102000  97.5623380  16.4529360 116.1572290  96.7014590  15.6442920
 110.9541470  93.7296980  17.8989240 110.9946810  93.4310850  18.8074470
 111.8086970  94.1304590  17.7396760 114.7319860  96.3292530   3.0592750
 115.1536280  96.1632400   3.9024140 114.8570700  95.5192760   2.5647890
 112.8947280  92.3089080  15.8663730 112.3643740  91.8180030  15.2387070
 113.5635350  92.7373280  15.3321660 113.3819580  89.2751450  15.9461020
 113.2876450  88.6572200  15.2211890 112.8016970  90.0017740  15.7190930
 116.1481020  87.8324690  12.9788410 115.6998320  87.8548950  12.1333960
 115.5146220  87.4343710  13.5758710 116.5540570  96.7279020  13.6000850
 116.9728680  97.5711750  13.4277090 115.6349200  96.8651060  13.3707630
 118.8904470  94.4595200  14.9838690 119.0100680  93.8636340  15.7233530
 119.7498470  94.4964890  14.5639990 114.4047990 103.0332030  14.7158580
 113.8669080 103.7578090  14.3967280 114.6581950 102.5562370  13.9255920
 115.6573240  91.0016550  16.2414510 116.2472930  90.6932400  16.9292330
 114.8393480  90.5296300  16.3974410 117.2610200 104.2683240  14.9745230
 117.1868900 105.1718380  15.2817600 116.3589040 103.9495140  14.9467300
 117.8095530 103.4341750   2.5971590 118.7046320 103.7726720   2.6190350
 117.8413160 102.7121160   1.9695870 108.6637490 101.5957830   8.2778850
 108.9940500 100.7278890   8.0457490 109.0928490 101.8016350   9.1083810
 113.2599410  99.9266840   5.9380820 112.9594950  99.8031810   6.8384730
 113.1536900  99.0675430   5.5296550 109.1527700 102.4628420  11.0160480
 108.7158690 102.6429220  11.8484630 109.7205380 103.2203040  10.8742200
 108.9852130  94.9748650   7.3749360 108.3300970  94.7060290   6.7309060
 109.8230080  94.8653130   6.9251340 110.0228060  95.3601220  11.9152700
 110.3901100  95.2728620  12.7948720 109.4538880  94.5967770  11.8159560
 109.5744060  92.2710310  15.8211120 108.6800110  92.2377070  16.1604830
 110.1141610  92.4697100  16.5862370 108.1990210  92.1847580   3.3174690
 107.2954290  92.4477780   3.1426350 108.6830830  92.4558750   2.5374650
 110.0783770  86.5458640  10.1694340 110.7259960  85.9956020   9.7289500
 110.4985610  86.8001790  10.9910150 109.8315770  86.7014310  12.9119660
 109.4830590  87.1578130  13.6777840 109.5003470  85.8071440  12.9942090
 111.4380140  99.8733910  17.0772850 111.3949770  99.5026820  17.9587310
 111.5691150 100.8111480  17.2174670 115.1386170 101.4293500  12.6782570
 114.8977530 101.6968060  11.7913090 116.0788810 101.5999230  12.7333430
 117.3440590  87.8926190  16.4339080 117.2829480  88.4848020  17.1834490
 118.2840970  87.7852150  16.2889340 110.5036410  86.2290510  16.1870430
 111.0519400  86.0478560  15.4236540 110.5691720  85.4384620  16.7226740
 111.2768170 102.8196160  14.1970630 110.6828490 102.6880860  14.9360670
 111.2692010 101.9834300  13.7312730 110.9080400 100.1854540  13.1478670
 110.1814460  99.5659830  13.0804620 110.9689550 100.5795150  12.2776750
 114.5125500 102.3999540   9.9328080 115.0290520 101.7886900   9.4076340
 115.1622880 102.9028320  10.4239090 117.2521000 103.2908030  10.7597060
 117.5398810 103.0362330   9.8830070 117.7644220 102.7385390  11.3502630
 118.4698010  87.0298230  11.3393570 117.6869800  87.5043730  11.6190330
 118.1760940  86.1253060  11.2306750 109.1910400 103.5028930   6.3575430
 109.0232440 102.8699610   7.0557320 108.3244910 103.7088330   6.0069620
 109.8138420  87.3345710   3.8607290 110.5717780  87.4474590   3.2871320
 109.3515590  88.1714910   3.8150720 116.3552230  89.4484980   6.8509600
 115.5426740  89.0741870   6.5105480 116.8593870  88.6930060   7.1530790
 110.7973100 102.1962160   3.8025570 110.2720720 102.5770190   3.0987530
 110.7217680 102.8212930   4.5235280 112.1863570  87.8609760   2.4009260
 112.7156330  87.0739560   2.2717210 112.8191890  88.5400950   2.6344790
 114.3801410  87.5984900   5.4554650 113.7504150  86.8972210   5.6224780
 113.8406550  88.3589030   5.2387810 117.3193360 104.2124130  18.1265260
 118.2460670 103.9768400  18.1701220 117.3043790 105.0396130  17.6451290
 114.5056970  86.8768880  17.8907140 114.2241240  87.3802480  17.1267960
 114.8876670  86.0790630  17.5249270 113.3966070 104.1444540   2.6774820
 114.1284890 103.8603820   2.1298710 113.6559740 103.9057820   3.5674200
 112.5580860 100.2609270   2.6821150 111.9289740 100.7294370   3.2306980
 112.6728690  99.4158490   3.1167340 120.0130580  75.5371440 101.4783290
 119.9324630  74.6226050 101.2075000 119.5995000  76.0338510 100.7723000
 118.1448620  77.3150460 103.3592560 117.3690720  76.8350900 103.6491130
 118.7961550  76.6356110 103.1848720 112.1614450  77.6270270 104.2368320
 111.3299330  77.3718980 104.6364830 112.7695430  77.6981040 104.9726240
 112.1415710  81.6610360 104.4326340 112.4443750  80.7708100 104.2536560
 112.8859300  82.2180580 104.2048590 110.5706400  72.5872160  98.0210710
 109.6823100  72.9288130  97.9190590 110.8547590  72.3872480  97.1291540
 108.5339410  75.1877810 103.9050410 109.1055520  74.4200010 103.9054050
 108.5340950  75.4866570 102.9957020 118.3919360  84.0068660 101.7595680
 117.7730800  84.4626160 101.1890120 119.2471140  84.1620120 101.3585380
 117.5857610  79.9907650 103.3662720 117.5165890  79.0497590 103.2051850
 118.3477470  80.0809060 103.9385290 109.7764280  70.5962170 105.6919340
 109.5967120  69.6987920 105.9722100 109.3744360  71.1434040 106.3666290
 118.6162780  72.7978030 103.5931650 118.9927600  71.9249910 103.4805320
 118.5182290  73.1336730 102.7022090 112.7467790  71.1703660  99.0549090
 112.8534540  72.0707390  99.3617850 111.8360150  71.1221630  98.7643740
 110.3950950  73.0922670 104.3001680 111.0761060  73.3561040 104.9189080
 110.0799000  72.2523540 104.6339690 114.5875520  74.1390030 103.3874270
 115.0953740  74.6371000 104.0279290 115.1188760  73.3625230 103.2113630
 112.8711620  68.7788590 107.6537690 112.8730060  69.2960980 106.8483590
 112.0415930  68.3018770 107.6307620 119.2582710  78.8907900  99.1527590
 118.6399980  79.3557350  98.5890310 119.7705960  79.5835380  99.5697100
 114.1214470  78.4183770 105.8311190 113.7883850  79.0452690 106.4732260
 114.2981150  78.9445650 105.0512860 112.5526950  70.4898550 105.6608140
 112.8943760  71.3340600 105.3662010 111.6142760  70.6382290 105.7773480
 113.3333570  80.3864570 107.6460370 113.9507570  81.0615650 107.3644820
 112.4726690  80.7952550 107.5547870 108.6265910  79.5764430  96.5267220
 108.2493890  80.0651530  95.7952120 108.8838980  80.2489710  97.1573750
 116.2354840  67.9780820 101.9852730 116.5429820  67.4227710 101.2688230
 115.3055540  68.1125280 101.8025720 118.6235600  76.0429650  98.7212850
 117.6964880  75.9767030  98.9501320 118.7760420  76.9809780  98.6068090
 118.6104680  72.3146650  95.7180010 117.6708350  72.4760610  95.8032470
 118.9287940  73.0332330  95.1716000 114.2292240  76.5694390 101.5032580
 113.8249240  75.8571640 101.0078480 114.3155360  76.2247630 102.3920620
 114.6973940  80.2561950 103.6671790 114.4002230  79.6507420 102.9879570
 115.6473760  80.2939260 103.5561150 112.9420860  73.3437600 105.2831620
 113.4935450  73.4532940 104.5084870 113.4564370  73.7175200 105.9986850
 113.7892370  79.9943640 110.3179590 112.8920900  80.2183610 110.5652990
 113.8145240  80.1178580 109.3690990 112.6163590  76.8656960 108.8936960
 112.4771360  77.7379760 109.2624360 111.7344950  76.5229770 108.7484900
 118.9392970  81.7832830 100.2002090 119.3788880  82.5257160  99.7857480
 118.8779860  82.0259400 101.1241050 110.9296870  75.4639370  99.0039230
 110.8094470  76.1901460  98.3920500 110.6197760  74.6942280  98.5267140
 108.5682240  78.6354510 104.8107870 108.6462660  78.7703280 103.8663590
 109.1823920  77.9270400 105.0035990 109.8129870  80.3354700 101.2214050
 109.4057950  80.4769290 100.3667650 110.7042880  80.0514860 101.0185260
 119.6308750  84.4846610 108.1281100 120.1453420  84.3954620 108.9303530
 118.7877830  84.8306310 108.4209010 114.0851530  84.5500480  99.3336720
 113.9094010  83.6336020  99.1204520 113.2307270  84.9087770  99.5734520
 108.6241760  79.6768680 107.3502330 108.7872800  79.2074040 106.5321700
 109.0894210  79.1692240 108.0151170 113.3960530  68.8074440 102.3862900
 112.9528680  69.5883980 102.0547420 113.9545520  69.1304330 103.0933840
 117.6830340  71.6742960 107.9898220 117.2209710  71.8825980 108.8018160
 117.2808450  70.8602310 107.6868890 116.5119350  68.4285140  97.2668730
 115.8873530  68.4245010  97.9922040 116.4249470  67.5616100  96.8704700
 115.4336430  69.3521770 104.2452500 115.7308760  70.2584600 104.1644520
 115.9821990  68.8640550 103.6312070 113.1874750  73.9308010 100.1144150
 112.9615670  73.7145180 101.0190770 112.4067280  74.3636470  99.7690120
 115.6273960  74.8293590 110.7804420 115.5317560  73.8888320 110.6304820
 116.4705940  75.0508660 110.3852490 119.0237380  72.5734920 100.7438080
 119.4166950  72.8907120  99.9306770 119.3854230  71.6946800 100.8582600
 110.7584500  71.2407260 108.9338200 110.3647890  72.0882470 109.1410980
 110.0702900  70.6033630 109.1246840 108.0601550  69.1635720 102.9668280
 107.7714600  69.7338580 103.6793260 108.8047310  68.6840170 103.3299510
 108.2471780  73.1055840  94.1771000 108.1646450  74.0486600  94.3185990
 107.8954840  72.9630750  93.2983350 119.6092520  75.1640670 104.8388860
 118.8773640  75.6727480 105.1878960 119.2116860  74.3470650 104.5377640
 116.0469910  71.8394870 103.2441350 116.0505970  71.3984820 102.3945890
 116.9421030  72.1612200 103.3513170 111.8972290  71.7221360 102.2035560
 111.5572340  72.1996590 102.9602610 111.1349610  71.2686480 101.8436660
 116.1090060  72.8406950  96.2348110 116.2302880  72.7993430  97.1833930
 115.7238570  73.7031100  96.0794840 120.0718430  70.6174350 104.2511800
 120.0891170  71.0683000 105.0953650 119.8234010  69.7179990 104.4645240
 115.1211560  75.1508090  95.6331410 114.5528460  74.7026340  95.0067320
 115.8300560  75.5100870  95.0996560 110.1980740  79.0520110 109.5098140
 109.8135530  78.4113780 110.1081100 110.5092930  79.7556230 110.0792870
 116.3477880  75.8996650 104.9906760 116.7148010  75.4255220 105.7368100
 116.1582940  76.7738220 105.3315100 109.2118370  70.6440340 101.1200230
 108.9265290  70.2796010 101.9578850 109.1497230  69.9120800 100.5063370
 114.1377250  74.9405290 107.3090970 113.8334320  75.8197270 107.5341330
 115.0923710  75.0005080 107.3448410 112.6659040  79.1466280  97.9057820
 111.8921300  78.6063900  97.7456540 113.3953670  78.6272890  97.5675580
 118.8856960  69.5369600  97.8413600 118.0721570  69.0382770  97.7658910
 118.6918910  70.3767850  97.4249950 118.8065820  78.2140700 109.5853210
 118.7403130  77.2936370 109.3310800 118.1770960  78.3116140 110.2997850
 112.7096440  78.8146660 101.5436630 113.2275110  78.0114920 101.4893520
 112.2580460  78.7525800 102.3853460 117.5965940  80.0812940  96.8163930
 117.9381640  80.8255170  96.3207250 116.7678650  80.3944060  97.1788760
 110.1940980  75.7808030 108.4562330 109.8355920  76.4461880 109.0435670
 109.8995540  74.9491580 108.8274950 118.7382550  81.0361270 109.3357010
 118.7527090  80.1042230 109.1175920 118.0307650  81.1221030 109.9746780
 116.5656630  80.1626470  99.5879850 117.2527760  80.7095680  99.9687440
 115.7789050  80.7067200  99.6229460 108.7049030  75.7799290  95.0796930
 109.5743880  76.0624090  95.3632850 108.2139350  76.5935160  94.9645740
 115.8683840  77.1672500  99.2005210 116.3246620  77.9777750  99.4265400
 115.5172050  76.8495640 100.0323700 118.1716450  82.6778840 106.4297510
 118.8158670  82.8838220 107.1070930 118.5345890  81.9167240 105.9768360
 111.7695620  67.5110150  99.6727730 111.6410250  67.5028050 100.6212650
 110.9457640  67.8493240  99.3218740 119.4448530  80.6811190 105.1474960
 120.0870760  79.9804350 105.2607130 119.9697880  81.4609630 104.9671850
 109.0720280  84.9926670  95.6458560 109.4317920  85.5916010  94.9915830
 108.9312620  85.5386560  96.4193590 108.7689550  69.2701270 109.1334430
 108.0548070  69.4698190 109.7387040 109.1884590  68.4940840 109.5049230
 109.0562140  83.2581530 110.1200960 109.1653260  82.3176270 109.9796350
 108.4042700  83.5236280 109.4714690 115.0888900  82.3757870  96.4632230
 115.0799000  83.1087560  95.8476740 114.1687260  82.1289450  96.5559190
 110.6895540  77.5972760  97.2078990 110.0823490  78.3371660  97.2174290
 111.1644890  77.6872120  96.3817190 118.0748500  82.4386110  95.1257420
 118.1760480  82.2350100  94.1959400 117.1750240  82.1844390  95.3305200
 115.5974390  72.9966470  99.1081320 114.8890540  73.4652810  99.5494930
 115.8818870  72.3388480  99.7426510 117.2230320  74.4163170 107.1073850
 117.7215570  74.8908990 107.7725700 117.3653270  73.4926690 107.3143880
 116.7166610  84.9572430  99.8205090 116.9708110  84.9193820  98.8984460
 115.7679090  84.8305760  99.8133340 113.8009410  71.3051550  96.4832030
 114.6499940  71.7421700  96.4172220 113.4340680  71.6171810  97.3104090
 112.7000830  77.5583910  94.9567560 113.4664100  77.4465270  95.5192990
 112.7775520  76.8621880  94.3044330 111.3947590  74.9908980  95.6400450
 111.4751180  74.0436490  95.7517850 112.2867340  75.3215860  95.7461110
 112.1962300  85.1404370 102.7434990 112.9324780  84.5919830 103.0143560
 112.5803220  86.0060380 102.6040980 109.0807780  81.2077940  98.6176500
 108.1547560  81.4499080  98.6081910 109.5464210  82.0352200  98.4961250
 115.3064610  84.3134680  94.5660560 116.0993220  84.6023510  94.1142350
 114.7868960  83.8826850  93.8873040 115.8242010  79.5338090  94.4302910
 115.7192650  78.9190440  95.1564290 115.6566230  79.0103980  93.6465920
 115.9756330  78.2194890 110.4092140 115.2102000  78.7879890 110.3246810
 116.1572290  77.9271100 109.5160370 119.0644740  78.5958120  95.0344900
 118.5154840  79.0427420  95.6787640 119.6864000  78.0907370  95.5582570
 114.7319860  77.5549040  96.9310200 115.1536280  77.3888910  97.7741590
 114.8570700  76.7449270  96.4365340 112.8947280  73.5345590 109.7381180
 112.3643740  73.0436540 109.1104520 113.5635350  73.9629790 109.2039110
 117.2447500  76.5786650  94.1787300 117.7653160  75.8635670  93.8128450
 117.8915900  77.2172520  94.4787810 113.3819580  70.5007960 109.8178470
 113.2876450  69.8828710 109.0929340 112.8016970  71.2274250 109.5908380
 116.1481020  69.0581200 106.8505860 115.6998320  69.0805460 106.0051410
 115.5146220  68.6600220 107.4476160 116.5540570  77.9535530 107.4718300
 116.9728680  78.7968260 107.2994540 115.6349200  78.0907570 107.2425080
 118.8904470  75.6851710 108.8556140 119.0100680  75.0892850 109.5950980
 119.7498470  75.7221400 108.4357440 113.6278760  73.6282270  93.8768360
 113.4267820  72.7649630  94.2381700 113.4570810  73.5415630  92.9389960
 114.4047990  84.2588540 108.5876030 113.8669080  84.9834600 108.2684730
 114.6581950  83.7818880 107.7973370 115.6573240  72.2273060 110.1131960
 116.2472930  71.9188910 110.8009780 114.8393480  71.7552810 110.2691860
 112.4261560  70.7282890  93.8646240 112.7287460  70.7350320  92.9565390
 113.1656150  70.3780750  94.3613900 117.2610200  85.4939750 108.8462680
 117.1868900  86.3974890 109.1535050 116.3589040  85.1751650 108.8184750
 115.6446490  69.6717510  94.8502440 115.2968490  68.9941500  94.2704890
 115.8459260  69.2107020  95.6645830 117.8095530  84.6598260  96.4689040
 118.7046320  84.9983230  96.4907800 117.8413160  83.9377670  95.8413320
 111.4491690  80.0325310  94.6976040 111.8866560  80.5754980  95.3533620
 111.9339420  79.2072260  94.7072380 108.6637490  82.8214340 102.1496300
 108.9940500  81.9535400 101.9174940 109.0928490  83.0272860 102.9801260
 113.2599410  81.1523350  99.8098270 112.9594950  81.0288320 100.7102180
 113.1536900  80.2931940  99.4014000 109.1527700  83.6884930 104.8877930
 108.7158690  83.8685730 105.7202080 109.7205380  84.4459550 104.7459650
 108.9852130  76.2005160 101.2466810 108.3300970  75.9316800 100.6026510
 109.8230080  76.0909640 100.7968790 110.0228060  76.5857730 105.7870150
 110.3901100  76.4985130 106.6666170 109.4538880  75.8224280 105.6877010
 109.5744060  73.4966820 109.6928570 108.6800110  73.4633580 110.0322280
 110.1141610  73.6953610 110.4579820 108.1990210  73.4104090  97.1892140
 107.2954290  73.6734290  97.0143800 108.6830830  73.6815260  96.4092100
 110.7417420  72.4669630  95.0986520 111.4509120  72.0452850  94.6133800
 110.0257360  72.5344860  94.4669870 110.3891580  68.5208960  94.1389170
 111.1119710  69.0617900  94.4570390 110.6616100  68.2472380  93.2630710
 110.0783770  67.7715150 104.0411790 110.7259960  67.2212530 103.6006950
 110.4985610  68.0258300 104.8627600 109.8315770  67.9270820 106.7837110
 109.4830590  68.3834640 107.5495290 109.5003470  67.0327950 106.8659540
 115.1386170  82.6550010 106.5500020 114.8977530  82.9224570 105.6630540
 116.0788810  82.8255740 106.6050880 110.5036410  67.4547020 110.0587880
 111.0519400  67.2735070 109.2953990 110.5691720  66.6641130 110.5944190
 111.2768170  84.0452670 108.0688080 110.6828490  83.9137370 108.8078120
 111.2692010  83.2090810 107.6030180 110.9080400  81.4111050 107.0196120
 110.1814460  80.7916340 106.9522070 110.9689550  81.8051660 106.1494200
 114.5125500  83.6256050 103.8045530 115.0290520  83.0143410 103.2793790
 115.1622880  84.1284830 104.2956540 117.2521000  84.5164540 104.6314510
 117.5398810  84.2618840 103.7547520 117.7644220  83.9641900 105.2220080
 118.4698010  68.2554740 105.2111020 117.6869800  68.7300240 105.4907780
 118.1760940  67.3509570 105.1024200 109.1910400  84.7285440 100.2292880
 109.0232440  84.0956120 100.9274770 108.3244910  84.9344840  99.8787070
 109.8138420  68.5602220  97.7324740 110.5717780  68.6731100  97.1588770
 109.3515590  69.3971420  97.6868170 116.3552230  70.6741490 100.7227050
 115.5426740  70.2998380 100.3822930 116.8593870  69.9186570 101.0248240
 110.7973100  83.4218670  97.6743020 110.2720720  83.8026700  96.9704980
 110.7217680  84.0469440  98.3952730 112.1863570  69.0866270  96.2726710
 112.7156330  68.2996070  96.1434660 112.8191890  69.7657460  96.5062240
 114.3801410  68.8241410  99.3272100 113.7504150  68.1228720  99.4942230
 113.8406550  69.5845540  99.1105260 113.3966070  85.3701050  96.5492270
 114.1284890  85.0860330  96.0016160 113.6559740  85.1314330  97.4391650
 112.5580860  81.4865780  96.5538600 111.9289740  81.9550880  97.1024430
 112.6728690  80.6415000  96.9884790 120.0130580  75.5371440  82.7039800
 119.9324630  74.6226050  82.4331510 119.5995000  76.0338510  81.9979510
 118.1448620  77.3150460  84.5849070 117.3690720  76.8350900  84.8747640
 118.7961550  76.6356110  84.4105230 112.1614450  77.6270270  85.4624830
 111.3299330  77.3718980  85.8621340 112.7695430  77.6981040  86.1982750
 112.1415710  81.6610360  85.6582850 112.4443750  80.7708100  85.4793070
 112.8859300  82.2180580  85.4305100 110.5706400  72.5872160  79.2467220
 109.6823100  72.9288130  79.1447100 110.8547590  72.3872480  78.3548050
 108.5339410  75.1877810  85.1306920 109.1055520  74.4200010  85.1310560
 108.5340950  75.4866570  84.2213530 118.3919360  84.0068660  82.9852190
 117.7730800  84.4626160  82.4146630 119.2471140  84.1620120  82.5841890
 117.5857610  79.9907650  84.5919230 117.5165890  79.0497590  84.4308360
 118.3477470  80.0809060  85.1641800 109.7764280  70.5962170  86.9175850
 109.5967120  69.6987920  87.1978610 109.3744360  71.1434040  87.5922800
 118.6162780  72.7978030  84.8188160 118.9927600  71.9249910  84.7061830
 118.5182290  73.1336730  83.9278600 112.7467790  71.1703660  80.2805600
 112.8534540  72.0707390  80.5874360 111.8360150  71.1221630  79.9900250
 110.3950950  73.0922670  85.5258190 111.0761060  73.3561040  86.1445590
 110.0799000  72.2523540  85.8596200 114.5875520  74.1390030  84.6130780
 115.0953740  74.6371000  85.2535800 115.1188760  73.3625230  84.4370140
 112.8711620  68.7788590  88.8794200 112.8730060  69.2960980  88.0740100
 112.0415930  68.3018770  88.8564130 119.2582710  78.8907900  80.3784100
 118.6399980  79.3557350  79.8146820 119.7705960  79.5835380  80.7953610
 114.1214470  78.4183770  87.0567700 113.7883850  79.0452690  87.6988770
 114.2981150  78.9445650  86.2769370 112.5526950  70.4898550  86.8864650
 112.8943760  71.3340600  86.5918520 111.6142760  70.6382290  87.0029990
 113.3333570  80.3864570  88.8716880 113.9507570  81.0615650  88.5901330
 112.4726690  80.7952550  88.7804380 108.6265910  79.5764430  77.7523730
 108.2493890  80.0651530  77.0208630 108.8838980  80.2489710  78.3830260
 116.2354840  67.9780820  83.2109240 116.5429820  67.4227710  82.4944740
 115.3055540  68.1125280  83.0282230 118.6235600  76.0429650  79.9469360
 117.6964880  75.9767030  80.1757830 118.7760420  76.9809780  79.8324600
 118.6104680  72.3146650  76.9436520 117.6708350  72.4760610  77.0288980
 118.9287940  73.0332330  76.3972510 114.2292240  76.5694390  82.7289090
 113.8249240  75.8571640  82.2334990 114.3155360  76.2247630  83.6177130
 114.6973940  80.2561950  84.8928300 114.4002230  79.6507420  84.2136080
 115.6473760  80.2939260  84.7817660 112.9420860  73.3437600  86.5088130
 113.4935450  73.4532940  85.7341380 113.4564370  73.7175200  87.2243360
 113.7892370  79.9943640  91.5436100 112.8920900  80.2183610  91.7909500
 113.8145240  80.1178580  90.5947500 112.6163590  76.8656960  90.1193470
 112.4771360  77.7379760  90.4880870 111.7344950  76.5229770  89.9741410
 118.9392970  81.7832830  81.4258600 119.3788880  82.5257160  81.0113990
 118.8779860  82.0259400  82.3497560 114.4143940  82.8078660  92.3278620
 114.3859370  83.2121610  91.4607050 114.2508910  81.8789020  92.1650220
 110.9296870  75.4639370  80.2295740 110.8094470  76.1901460  79.6177010
 110.6197760  74.6942280  79.7523650 108.5682240  78.6354510  86.0364380
 108.6462660  78.7703280  85.0920100 109.1823920  77.9270400  86.2292500
 109.8129870  80.3354700  82.4470560 109.4057950  80.4769290  81.5924160
 110.7042880  80.0514860  82.2441770 119.6308750  84.4846610  89.3537610
 120.1453420  84.3954620  90.1560040 118.7877830  84.8306310  89.6465520
 114.0851530  84.5500480  80.5593230 113.9094010  83.6336020  80.3461030
 113.2307270  84.9087770  80.7991030 108.6241760  79.6768680  88.5758840
 108.7872800  79.2074040  87.7578210 109.0894210  79.1692240  89.2407680
 113.3960530  68.8074440  83.6119410 112.9528680  69.5883980  83.2803930
 113.9545520  69.1304330  84.3190350 117.6830340  71.6742960  89.2154730
 117.2209710  71.8825980  90.0274670 117.2808450  70.8602310  88.9125400
 116.5119350  68.4285140  78.4925240 115.8873530  68.4245010  79.2178550
 116.4249470  67.5616100  78.0961210 115.4336430  69.3521770  85.4709010
 115.7308760  70.2584600  85.3901030 115.9821990  68.8640550  84.8568580
 113.1874750  73.9308010  81.3400660 112.9615670  73.7145180  82.2447280
 112.4067280  74.3636470  80.9946630 115.6273960  74.8293590  92.0060930
 115.5317560  73.8888320  91.8561330 116.4705940  75.0508660  91.6109000
 119.0237380  72.5734920  81.9694590 119.4166950  72.8907120  81.1563280
 119.3854230  71.6946800  82.0839110 110.7584500  71.2407260  90.1594710
 110.3647890  72.0882470  90.3667490 110.0702900  70.6033630  90.3503350
 117.3329550  71.3242230  93.2291450 116.6427870  71.1314430  93.8637540
 118.0761850  71.6076870  93.7615750 108.0601550  69.1635720  84.1924790
 107.7714600  69.7338580  84.9049770 108.8047310  68.6840170  84.5556020
 108.2471780  73.1055840  75.4027510 108.1646450  74.0486600  75.5442500
 107.8954840  72.9630750  74.5239860 119.6092520  75.1640670  86.0645370
 118.8773640  75.6727480  86.4135470 119.2116860  74.3470650  85.7634150
 116.0469910  71.8394870  84.4697860 116.0505970  71.3984820  83.6202400
 116.9421030  72.1612200  84.5769680 111.8972290  71.7221360  83.4292070
 111.5572340  72.1996590  84.1859120 111.1349610  71.2686480  83.0693170
 116.1090060  72.8406950  77.4604620 116.2302880  72.7993430  78.4090440
 115.7238570  73.7031100  77.3051350 120.0718430  70.6174350  85.4768310
 120.0891170  71.0683000  86.3210160 119.8234010  69.7179990  85.6901750
 115.1211560  75.1508090  76.8587920 114.5528460  74.7026340  76.2323830
 115.8300560  75.5100870  76.3253070 110.1980740  79.0520110  90.7354650
 109.8135530  78.4113780  91.3337610 110.5092930  79.7556230  91.3049380
 116.3477880  75.8996650  86.2163270 116.7148010  75.4255220  86.9624610
 116.1582940  76.7738220  86.5571610 109.2118370  70.6440340  82.3456740
 108.9265290  70.2796010  83.1835360 109.1497230  69.9120800  81.7319880
 114.1377250  74.9405290  88.5347480 113.8334320  75.8197270  88.7597840
 115.0923710  75.0005080  88.5704920 112.6659040  79.1466280  79.1314330
 111.8921300  78.6063900  78.9713050 113.3953670  78.6272890  78.7932090
 118.8856960  69.5369600  79.0670110 118.0721570  69.0382770  78.9915420
 118.6918910  70.3767850  78.6506460 118.8065820  78.2140700  90.8109720
 118.7403130  77.2936370  90.5567310 118.1770960  78.3116140  91.5254360
 112.7096440  78.8146660  82.7693140 113.2275110  78.0114920  82.7150030
 112.2580460  78.7525800  83.6109970 117.5965940  80.0812940  78.0420440
 117.9381640  80.8255170  77.5463760 116.7678650  80.3944060  78.4045270
 110.1940980  75.7808030  89.6818840 109.8355920  76.4461880  90.2692180
 109.8995540  74.9491580  90.0531460 113.3954100  76.2392270  92.5658390
 113.0954240  76.3849450  91.6686210 114.1665340  75.6797560  92.4731780
 118.7382550  81.0361270  90.5613520 118.7527090  80.1042230  90.3432430
 118.0307650  81.1221030  91.2003290 116.5656630  80.1626470  80.8136360
 117.2527760  80.7095680  81.1943950 115.7789050  80.7067200  80.8485970
 108.7049030  75.7799290  76.3053440 109.5743880  76.0624090  76.5889360
 108.2139350  76.5935160  76.1902250 115.8683840  77.1672500  80.4261720
 116.3246620  77.9777750  80.6521910 115.5172050  76.8495640  81.2580210
 118.1716450  82.6778840  87.6554020 118.8158670  82.8838220  88.3327440
 118.5345890  81.9167240  87.2024870 111.7695620  67.5110150  80.8984240
 111.6410250  67.5028050  81.8469160 110.9457640  67.8493240  80.5475250
 119.4448530  80.6811190  86.3731470 120.0870760  79.9804350  86.4863640
 119.9697880  81.4609630  86.1928360 109.0720280  84.9926670  76.8715070
 109.4317920  85.5916010  76.2172340 108.9312620  85.5386560  77.6450100
 108.7689550  69.2701270  90.3590940 108.0548070  69.4698190  90.9643550
 109.1884590  68.4940840  90.7305740 109.0562140  83.2581530  91.3457470
 109.1653260  82.3176270  91.2052860 108.4042700  83.5236280  90.6971200
 117.0474730  81.5297420  92.7455590 116.7271600  80.8106660  93.2901280
 116.3733090  82.2052490  92.8191650 115.0888900  82.3757870  77.6888740
 115.0799000  83.1087560  77.0733250 114.1687260  82.1289450  77.7815700
 110.6895540  77.5972760  78.4335500 110.0823490  78.3371660  78.4430800
 111.1644890  77.6872120  77.6073700 118.0748500  82.4386110  76.3513930
 118.1760480  82.2350100  75.4215910 117.1750240  82.1844390  76.5561710
 115.5974390  72.9966470  80.3337830 114.8890540  73.4652810  80.7751440
 115.8818870  72.3388480  80.9683020 117.2230320  74.4163170  88.3330360
 117.7215570  74.8908990  88.9982210 117.3653270  73.4926690  88.5400390
 116.7166610  84.9572430  81.0461600 116.9708110  84.9193820  80.1240970
 115.7679090  84.8305760  81.0389850 113.8009410  71.3051550  77.7088540
 114.6499940  71.7421700  77.6428730 113.4340680  71.6171810  78.5360600
 112.7000830  77.5583910  76.1824070 113.4664100  77.4465270  76.7449500
 112.7775520  76.8621880  75.5300840 111.3947590  74.9908980  76.8656960
 111.4751180  74.0436490  76.9774360 112.2867340  75.3215860  76.9717620
 112.1962300  85.1404370  83.9691500 112.9324780  84.5919830  84.2400070
 112.5803220  86.0060380  83.8297490 109.0807780  81.2077940  79.8433010
 108.1547560  81.4499080  79.8338420 109.5464210  82.0352200  79.7217760
 111.2020580  84.3250440  93.1577080 112.0033310  84.6462490  93.5712480
 110.6872400  83.9646020  93.8796990 115.3064610  84.3134680  75.7917070
 116.0993220  84.6023510  75.3398860 114.7868960  83.8826850  75.1129550
 120.0385210  80.4330310  93.1052490 119.4323370  80.4561910  92.3648240
 119.7339320  79.7013350  93.6419740 108.9218390  76.8123900  92.1013130
 109.4257410  76.2331180  92.6729360 108.1825810  77.0964130  92.6389500
 115.8242010  79.5338090  75.6559420 115.7192650  78.9190440  76.3820800
 115.6566230  79.0103980  74.8722430 115.9756330  78.2194890  91.6348650
 115.2102000  78.7879890  91.5503320 116.1572290  77.9271100  90.7416880
 119.0644740  78.5958120  76.2601410 118.5154840  79.0427420  76.9044150
 119.6864000  78.0907370  76.7839080 110.9541470  74.9553490  92.9963200
 110.9946810  74.6567360  93.9048430 111.8086970  75.3561100  92.8370720
 114.7319860  77.5549040  78.1566710 115.1536280  77.3888910  78.9998100
 114.8570700  76.7449270  77.6621850 112.8947280  73.5345590  90.9637690
 112.3643740  73.0436540  90.3361030 113.5635350  73.9629790  90.4295620
 117.2447500  76.5786650  75.4043810 117.7653160  75.8635670  75.0384960
 117.8915900  77.2172520  75.7044320 113.3819580  70.5007960  91.0434980
 113.2876450  69.8828710  90.3185850 112.8016970  71.2274250  90.8164890
 116.1481020  69.0581200  88.0762370 115.6998320  69.0805460  87.2307920
 115.5146220  68.6600220  88.6732670 116.5540570  77.9535530  88.6974810
 116.9728680  78.7968260  88.5251050 115.6349200  78.0907570  88.4681590
 118.8904470  75.6851710  90.0812650 119.0100680  75.0892850  90.8207490
 119.7498470  75.7221400  89.6613950 113.6278760  73.6282270  75.1024870
 113.4267820  72.7649630  75.4638210 113.4570810  73.5415630  74.1646470
 114.4047990  84.2588540  89.8132540 113.8669080  84.9834600  89.4941240
 114.6581950  83.7818880  89.0229880 115.6573240  72.2273060  91.3388470
 116.2472930  71.9188910  92.0266290 114.8393480  71.7552810  91.4948370
 112.4261560  70.7282890  75.0902750 112.7287460  70.7350320  74.1821900
 113.1656150  70.3780750  75.5870410 117.2610200  85.4939750  90.0719190
 117.1868900  86.3974890  90.3791560 116.3589040  85.1751650  90.0441260
 115.6446490  69.6717510  76.0758950 115.2968490  68.9941500  75.4961400
 115.8459260  69.2107020  76.8902340 117.8095530  84.6598260  77.6945550
 118.7046320  84.9983230  77.7164310 117.8413160  83.9377670  77.0669830
 111.4491690  80.0325310  75.9232550 111.8866560  80.5754980  76.5790130
 111.9339420  79.2072260  75.9328890 108.6637490  82.8214340  83.3752810
 108.9940500  81.9535400  83.1431450 109.0928490  83.0272860  84.2057770
 113.2599410  81.1523350  81.0354780 112.9594950  81.0288320  81.9358690
 113.1536900  80.2931940  80.6270510 109.1527700  83.6884930  86.1134440
 108.7158690  83.8685730  86.9458590 109.7205380  84.4459550  85.9716160
 108.9852130  76.2005160  82.4723320 108.3300970  75.9316800  81.8283020
 109.8230080  76.0909640  82.0225300 110.0228060  76.5857730  87.0126660
 110.3901100  76.4985130  87.8922680 109.4538880  75.8224280  86.9133520
 109.5744060  73.4966820  90.9185080 108.6800110  73.4633580  91.2578790
 110.1141610  73.6953610  91.6836330 108.1990210  73.4104090  78.4148650
 107.2954290  73.6734290  78.2400310 108.6830830  73.6815260  77.6348610
 110.7417420  72.4669630  76.3243030 111.4509120  72.0452850  75.8390310
 110.0257360  72.5344860  75.6926380 110.3891580  68.5208960  75.3645680
 111.1119710  69.0617900  75.6826900 110.6616100  68.2472380  74.4887220
 110.0783770  67.7715150  85.2668300 110.7259960  67.2212530  84.8263460
 110.4985610  68.0258300  86.0884110 109.8315770  67.9270820  88.0093620
 109.4830590  68.3834640  88.7751800 109.5003470  67.0327950  88.0916050
 111.4380140  81.0990420  92.1746810 111.3949770  80.7283330  93.0561270
 111.5691150  82.0367990  92.3148630 115.1386170  82.6550010  87.7756530
 114.8977530  82.9224570  86.8887050 116.0788810  82.8255740  87.8307390
 117.3440590  69.1182700  91.5313040 117.2829480  69.7104530  92.2808450
 118.2840970  69.0108660  91.3863300 110.5036410  67.4547020  91.2844390
 111.0519400  67.2735070  90.5210500 110.5691720  66.6641130  91.8200700
 111.2768170  84.0452670  89.2944590 110.6828490  83.9137370  90.0334630
 111.2692010  83.2090810  88.8286690 110.9080400  81.4111050  88.2452630
 110.1814460  80.7916340  88.1778580 110.9689550  81.8051660  87.3750710
 114.5125500  83.6256050  85.0302040 115.0290520  83.0143410  84.5050300
 115.1622880  84.1284830  85.5213050 117.2521000  84.5164540  85.8571020
 117.5398810  84.2618840  84.9804030 117.7644220  83.9641900  86.4476590
 118.4698010  68.2554740  86.4367530 117.6869800  68.7300240  86.7164290
 118.1760940  67.3509570  86.3280710 109.1910400  84.7285440  81.4549390
 109.0232440  84.0956120  82.1531280 108.3244910  84.9344840  81.1043580
 109.8138420  68.5602220  78.9581250 110.5717780  68.6731100  78.3845280
 109.3515590  69.3971420  78.9124680 116.3552230  70.6741490  81.9483560
 115.5426740  70.2998380  81.6079440 116.8593870  69.9186570  82.2504750
 110.7973100  83.4218670  78.8999530 110.2720720  83.8026700  78.1961490
 110.7217680  84.0469440  79.6209240 112.1863570  69.0866270  77.4983220
 112.7156330  68.2996070  77.3691170 112.8191890  69.7657460  77.7318750
 114.3801410  68.8241410  80.5528610 113.7504150  68.1228720  80.7198740
 113.8406550  69.5845540  80.3361770 117.3193360  85.4380640  93.2239220
 118.2460670  85.2024910  93.2675180 117.3043790  86.2652640  92.7425250
 114.5056970  68.1025390  92.9881100 114.2241240  68.6058990  92.2241920
 114.8876670  67.3047140  92.6223230 113.3966070  85.3701050  77.7748780
 114.1284890  85.0860330  77.2272670 113.6559740  85.1314330  78.6648160
 112.5580860  81.4865780  77.7795110 111.9289740  81.9550880  78.3280940
 112.6728690  80.6415000  78.2141300 120.0130580  75.5371440  63.9296310
 119.9324630  74.6226050  63.6588020 119.5995000  76.0338510  63.2236020
 118.1448620  77.3150460  65.8105580 117.3690720  76.8350900  66.1004150
 118.7961550  76.6356110  65.6361740 112.1614450  77.6270270  66.6881340
 111.3299330  77.3718980  67.0877850 112.7695430  77.6981040  67.4239260
 112.1415710  81.6610360  66.8839360 112.4443750  80.7708100  66.7049580
 112.8859300  82.2180580  66.6561610 110.5706400  72.5872160  60.4723730
 109.6823100  72.9288130  60.3703610 110.8547590  72.3872480  59.5804560
 108.5339410  75.1877810  66.3563430 109.1055520  74.4200010  66.3567070
 108.5340950  75.4866570  65.4470040 118.3919360  84.0068660  64.2108700
 117.7730800  84.4626160  63.6403140 119.2471140  84.1620120  63.8098400
 117.5857610  79.9907650  65.8175740 117.5165890  79.0497590  65.6564870
 118.3477470  80.0809060  66.3898310 109.7764280  70.5962170  68.1432360
 109.5967120  69.6987920  68.4235120 109.3744360  71.1434040  68.8179310
 118.6162780  72.7978030  66.0444670 118.9927600  71.9249910  65.9318340
 118.5182290  73.1336730  65.1535110 112.7467790  71.1703660  61.5062110
 112.8534540  72.0707390  61.8130870 111.8360150  71.1221630  61.2156760
 110.3950950  73.0922670  66.7514700 111.0761060  73.3561040  67.3702100
 110.0799000  72.2523540  67.0852710 114.5875520  74.1390030  65.8387290
 115.0953740  74.6371000  66.4792310 115.1188760  73.3625230  65.6626650
 112.8711620  68.7788590  70.1050710 112.8730060  69.2960980  69.2996610
 112.0415930  68.3018770  70.0820640 119.2582710  78.8907900  61.6040610
 118.6399980  79.3557350  61.0403330 119.7705960  79.5835380  62.0210120
 114.1214470  78.4183770  68.2824210 113.7883850  79.0452690  68.9245280
 114.2981150  78.9445650  67.5025880 112.5526950  70.4898550  68.1121160
 112.8943760  71.3340600  67.8175030 111.6142760  70.6382290  68.2286500
 113.3333570  80.3864570  70.0973390 113.9507570  81.0615650  69.8157840
 112.4726690  80.7952550  70.0060890 108.6265910  79.5764430  58.9780240
 108.2493890  80.0651530  58.2465140 108.8838980  80.2489710  59.6086770
 116.2354840  67.9780820  64.4365750 116.5429820  67.4227710  63.7201250
 115.3055540  68.1125280  64.2538740 118.6235600  76.0429650  61.1725870
 117.6964880  75.9767030  61.4014340 118.7760420  76.9809780  61.0581110
 118.6104680  72.3146650  58.1693030 117.6708350  72.4760610  58.2545490
 118.9287940  73.0332330  57.6229020 114.2292240  76.5694390  63.9545600
 113.8249240  75.8571640  63.4591500 114.3155360  76.2247630  64.8433640
 114.6973940  80.2561950  66.1184810 114.4002230  79.6507420  65.4392590
 115.6473760  80.2939260  66.0074170 112.9420860  73.3437600  67.7344640
 113.4935450  73.4532940  66.9597890 113.4564370  73.7175200  68.4499870
 113.7892370  79.9943640  72.7692610 112.8920900  80.2183610  73.0166010
 113.8145240  80.1178580  71.8204010 112.6163590  76.8656960  71.3449980
 112.4771360  77.7379760  71.7137380 111.7344950  76.5229770  71.1997920
 118.9392970  81.7832830  62.6515110 119.3788880  82.5257160  62.2370500
 118.8779860  82.0259400  63.5754070 114.4143940  82.8078660  73.5535130
 114.3859370  83.2121610  72.6863560 114.2508910  81.8789020  73.3906730
 110.9296870  75.4639370  61.4552250 110.8094470  76.1901460  60.8433520
 110.6197760  74.6942280  60.9780160 108.5682240  78.6354510  67.2620890
 108.6462660  78.7703280  66.3176610 109.1823920  77.9270400  67.4549010
 109.8129870  80.3354700  63.6727070 109.4057950  80.4769290  62.8180670
 110.7042880  80.0514860  63.4698280 119.6308750  84.4846610  70.5794120
 120.1453420  84.3954620  71.3816550 118.7877830  84.8306310  70.8722030
 114.0851530  84.5500480  61.7849740 113.9094010  83.6336020  61.5717540
 113.2307270  84.9087770  62.0247540 108.6241760  79.6768680  69.8015350
 108.7872800  79.2074040  68.9834720 109.0894210  79.1692240  70.4664190
 113.3960530  68.8074440  64.8375920 112.9528680  69.5883980  64.5060440
 113.9545520  69.1304330  65.5446860 117.6830340  71.6742960  70.4411240
 117.2209710  71.8825980  71.2531180 117.2808450  70.8602310  70.1381910
 116.5119350  68.4285140  59.7181750 115.8873530  68.4245010  60.4435060
 116.4249470  67.5616100  59.3217720 115.4336430  69.3521770  66.6965520
 115.7308760  70.2584600  66.6157540 115.9821990  68.8640550  66.0825090
 113.1874750  73.9308010  62.5657170 112.9615670  73.7145180  63.4703790
 112.4067280  74.3636470  62.2203140 115.6273960  74.8293590  73.2317440
 115.5317560  73.8888320  73.0817840 116.4705940  75.0508660  72.8365510
 119.0237380  72.5734920  63.1951100 119.4166950  72.8907120  62.3819790
 119.3854230  71.6946800  63.3095620 110.7584500  71.2407260  71.3851220
 110.3647890  72.0882470  71.5924000 110.0702900  70.6033630  71.5759860
 117.3329550  71.3242230  74.4547960 116.6427870  71.1314430  75.0894050
 118.0761850  71.6076870  74.9872260 108.0601550  69.1635720  65.4181300
 107.7714600  69.7338580  66.1306280 108.8047310  68.6840170  65.7812530
 108.2471780  73.1055840  56.6284020 108.1646450  74.0486600  56.7699010
 107.8954840  72.9630750  55.7496370 119.6092520  75.1640670  67.2901880
 118.8773640  75.6727480  67.6391980 119.2116860  74.3470650  66.9890660
 116.0469910  71.8394870  65.6954370 116.0505970  71.3984820  64.8458910
 116.9421030  72.1612200  65.8026190 111.8972290  71.7221360  64.6548580
 111.5572340  72.1996590  65.4115630 111.1349610  71.2686480  64.2949680
 116.1090060  72.8406950  58.6861130 116.2302880  72.7993430  59.6346950
 115.7238570  73.7031100  58.5307860 120.0718430  70.6174350  66.7024820
 120.0891170  71.0683000  67.5466670 119.8234010  69.7179990  66.9158260
 115.1211560  75.1508090  58.0844430 114.5528460  74.7026340  57.4580340
 115.8300560  75.5100870  57.5509580 110.1980740  79.0520110  71.9611160
 109.8135530  78.4113780  72.5594120 110.5092930  79.7556230  72.5305890
 116.3477880  75.8996650  67.4419780 116.7148010  75.4255220  68.1881120
 116.1582940  76.7738220  67.7828120 109.2118370  70.6440340  63.5713250
 108.9265290  70.2796010  64.4091870 109.1497230  69.9120800  62.9576390
 114.1377250  74.9405290  69.7603990 113.8334320  75.8197270  69.9854350
 115.0923710  75.0005080  69.7961430 112.6659040  79.1466280  60.3570840
 111.8921300  78.6063900  60.1969560 113.3953670  78.6272890  60.0188600
 118.8856960  69.5369600  60.2926620 118.0721570  69.0382770  60.2171930
 118.6918910  70.3767850  59.8762970 118.8065820  78.2140700  72.0366230
 118.7403130  77.2936370  71.7823820 118.1770960  78.3116140  72.7510870
 112.7096440  78.8146660  63.9949650 113.2275110  78.0114920  63.9406540
 112.2580460  78.7525800  64.8366480 117.5965940  80.0812940  59.2676950
 117.9381640  80.8255170  58.7720270 116.7678650  80.3944060  59.6301780
 110.1940980  75.7808030  70.9075350 109.8355920  76.4461880  71.4948690
 109.8995540  74.9491580  71.2787970 113.3954100  76.2392270  73.7914900
 113.0954240  76.3849450  72.8942720 114.1665340  75.6797560  73.6988290
 118.7382550  81.0361270  71.7870030 118.7527090  80.1042230  71.5688940
 118.0307650  81.1221030  72.4259800 116.5656630  80.1626470  62.0392870
 117.2527760  80.7095680  62.4200460 115.7789050  80.7067200  62.0742480
 108.7049030  75.7799290  57.5309950 109.5743880  76.0624090  57.8145870
 108.2139350  76.5935160  57.4158760 115.8683840  77.1672500  61.6518230
 116.3246620  77.9777750  61.8778420 115.5172050  76.8495640  62.4836720
 118.1716450  82.6778840  68.8810530 118.8158670  82.8838220  69.5583950
 118.5345890  81.9167240  68.4281380 111.7695620  67.5110150  62.1240750
 111.6410250  67.5028050  63.0725670 110.9457640  67.8493240  61.7731760
 119.4448530  80.6811190  67.5987980 120.0870760  79.9804350  67.7120150
 119.9697880  81.4609630  67.4184870 109.0720280  84.9926670  58.0971580
 109.4317920  85.5916010  57.4428850 108.9312620  85.5386560  58.8706610
 108.7689550  69.2701270  71.5847450 108.0548070  69.4698190  72.1900060
 109.1884590  68.4940840  71.9562250 109.0562140  83.2581530  72.5713980
 109.1653260  82.3176270  72.4309370 108.4042700  83.5236280  71.9227710
 117.0474730  81.5297420  73.9712100 116.7271600  80.8106660  74.5157790
 116.3733090  82.2052490  74.0448160 115.0888900  82.3757870  58.9145250
 115.0799000  83.1087560  58.2989760 114.1687260  82.1289450  59.0072210
 110.6895540  77.5972760  59.6592010 110.0823490  78.3371660  59.6687310
 111.1644890  77.6872120  58.8330210 118.0748500  82.4386110  57.5770440
 118.1760480  82.2350100  56.6472420 117.1750240  82.1844390  57.7818220
 115.5974390  72.9966470  61.5594340 114.8890540  73.4652810  62.0007950
 115.8818870  72.3388480  62.1939530 117.2230320  74.4163170  69.5586870
 117.7215570  74.8908990  70.2238720 117.3653270  73.4926690  69.7656900
 116.7166610  84.9572430  62.2718110 116.9708110  84.9193820  61.3497480
 115.7679090  84.8305760  62.2646360 113.8009410  71.3051550  58.9345050
 114.6499940  71.7421700  58.8685240 113.4340680  71.6171810  59.7617110
 112.7000830  77.5583910  57.4080580 113.4664100  77.4465270  57.9706010
 112.7775520  76.8621880  56.7557350 111.3947590  74.9908980  58.0913470
 111.4751180  74.0436490  58.2030870 112.2867340  75.3215860  58.1974130
 112.1962300  85.1404370  65.1948010 112.9324780  84.5919830  65.4656580
 112.5803220  86.0060380  65.0554000 109.0807780  81.2077940  61.0689520
 108.1547560  81.4499080  61.0594930 109.5464210  82.0352200  60.9474270
 111.2020580  84.3250440  74.3833590 112.0033310  84.6462490  74.7968990
 110.6872400  83.9646020  75.1053500 115.3064610  84.3134680  57.0173580
 116.0993220  84.6023510  56.5655370 114.7868960  83.8826850  56.3386060
 120.0385210  80.4330310  74.3309000 119.4323370  80.4561910  73.5904750
 119.7339320  79.7013350  74.8676250 108.9218390  76.8123900  73.3269640
 109.4257410  76.2331180  73.8985870 108.1825810  77.0964130  73.8646010
 115.8242010  79.5338090  56.8815930 115.7192650  78.9190440  57.6077310
 115.6566230  79.0103980  56.0978940 115.9756330  78.2194890  72.8605160
 115.2102000  78.7879890  72.7759830 116.1572290  77.9271100  71.9673390
 119.0644740  78.5958120  57.4857920 118.5154840  79.0427420  58.1300660
 119.6864000  78.0907370  58.0095590 110.9541470  74.9553490  74.2219710
 110.9946810  74.6567360  75.1304940 111.8086970  75.3561100  74.0627230
 114.7319860  77.5549040  59.3823220 115.1536280  77.3888910  60.2254610
 114.8570700  76.7449270  58.8878360 112.8947280  73.5345590  72.1894200
 112.3643740  73.0436540  71.5617540 113.5635350  73.9629790  71.6552130
 117.2447500  76.5786650  56.6300320 117.7653160  75.8635670  56.2641470
 117.8915900  77.2172520  56.9300830 113.3819580  70.5007960  72.2691490
 113.2876450  69.8828710  71.5442360 112.8016970  71.2274250  72.0421400
 116.1481020  69.0581200  69.3018880 115.6998320  69.0805460  68.4564430
 115.5146220  68.6600220  69.8989180 116.5540570  77.9535530  69.9231320
 116.9728680  78.7968260  69.7507560 115.6349200  78.0907570  69.6938100
 118.8904470  75.6851710  71.3069160 119.0100680  75.0892850  72.0464000
 119.7498470  75.7221400  70.8870460 113.6278760  73.6282270  56.3281380
 113.4267820  72.7649630  56.6894720 113.4570810  73.5415630  55.3902980
 114.4047990  84.2588540  71.0389050 113.8669080  84.9834600  70.7197750
 114.6581950  83.7818880  70.2486390 115.6573240  72.2273060  72.5644980
 116.2472930  71.9188910  73.2522800 114.8393480  71.7552810  72.7204880
 112.4261560  70.7282890  56.3159260 112.7287460  70.7350320  55.4078410
 113.1656150  70.3780750  56.8126920 117.2610200  85.4939750  71.2975700
 117.1868900  86.3974890  71.6048070 116.3589040  85.1751650  71.2697770
 115.6446490  69.6717510  57.3015460 115.2968490  68.9941500  56.7217910
 115.8459260  69.2107020  58.1158850 117.8095530  84.6598260  58.9202060
 118.7046320  84.9983230  58.9420820 117.8413160  83.9377670  58.2926340
 111.4491690  80.0325310  57.1489060 111.8866560  80.5754980  57.8046640
 111.9339420  79.2072260  57.1585400 108.6637490  82.8214340  64.6009320
 108.9940500  81.9535400  64.3687960 109.0928490  83.0272860  65.4314280
 113.2599410  81.1523350  62.2611290 112.9594950  81.0288320  63.1615200
 113.1536900  80.2931940  61.8527020 109.1527700  83.6884930  67.3390950
 108.7158690  83.8685730  68.1715100 109.7205380  84.4459550  67.1972670
 108.9852130  76.2005160  63.6979830 108.3300970  75.9316800  63.0539530
 109.8230080  76.0909640  63.2481810 110.0228060  76.5857730  68.2383170
 110.3901100  76.4985130  69.1179190 109.4538880  75.8224280  68.1390030
 109.5744060  73.4966820  72.1441590 108.6800110  73.4633580  72.4835300
 110.1141610  73.6953610  72.9092840 108.1990210  73.4104090  59.6405160
 107.2954290  73.6734290  59.4656820 108.6830830  73.6815260  58.8605120
 110.7417420  72.4669630  57.5499540 111.4509120  72.0452850  57.0646820
 110.0257360  72.5344860  56.9182890 110.3891580  68.5208960  56.5902190
 111.1119710  69.0617900  56.9083410 110.6616100  68.2472380  55.7143730
 110.0783770  67.7715150  66.4924810 110.7259960  67.2212530  66.0519970
 110.4985610  68.0258300  67.3140620 109.8315770  67.9270820  69.2350130
 109.4830590  68.3834640  70.0008310 109.5003470  67.0327950  69.3172560
 111.4380140  81.0990420  73.4003320 111.3949770  80.7283330  74.2817780
 111.5691150  82.0367990  73.5405140 115.1386170  82.6550010  69.0013040
 114.8977530  82.9224570  68.1143560 116.0788810  82.8255740  69.0563900
 117.3440590  69.1182700  72.7569550 117.2829480  69.7104530  73.5064960
 118.2840970  69.0108660  72.6119810 110.5036410  67.4547020  72.5100900
 111.0519400  67.2735070  71.7467010 110.5691720  66.6641130  73.0457210
 111.2768170  84.0452670  70.5201100 110.6828490  83.9137370  71.2591140
 111.2692010  83.2090810  70.0543200 110.9080400  81.4111050  69.4709140
 110.1814460  80.7916340  69.4035090 110.9689550  81.8051660  68.6007220
 114.5125500  83.6256050  66.2558550 115.0290520  83.0143410  65.7306810
 115.1622880  84.1284830  66.7469560 117.2521000  84.5164540  67.0827530
 117.5398810  84.2618840  66.2060540 117.7644220  83.9641900  67.6733100
 118.4698010  68.2554740  67.6624040 117.6869800  68.7300240  67.9420800
 118.1760940  67.3509570  67.5537220 109.1910400  84.7285440  62.6805900
 109.0232440  84.0956120  63.3787790 108.3244910  84.9344840  62.3300090
 109.8138420  68.5602220  60.1837760 110.5717780  68.6731100  59.6101790
 109.3515590  69.3971420  60.1381190 116.3552230  70.6741490  63.1740070
 115.5426740  70.2998380  62.8335950 116.8593870  69.9186570  63.4761260
 110.7973100  83.4218670  60.1256040 110.2720720  83.8026700  59.4218000
 110.7217680  84.0469440  60.8465750 112.1863570  69.0866270  58.7239730
 112.7156330  68.2996070  58.5947680 112.8191890  69.7657460  58.9575260
 114.3801410  68.8241410  61.7785120 113.7504150  68.1228720  61.9455250
 113.8406550  69.5845540  61.5618280 117.3193360  85.4380640  74.4495730
 118.2460670  85.2024910  74.4931690 117.3043790  86.2652640  73.9681760
 114.5056970  68.1025390  74.2137610 114.2241240  68.6058990  73.4498430
 114.8876670  67.3047140  73.8479740 113.3966070  85.3701050  59.0005290
 114.1284890  85.0860330  58.4529180 113.6559740  85.1314330  59.8904670
 112.5580860  81.4865780  59.0051620 111.9289740  81.9550880  59.5537450
 112.6728690  80.6415000  59.4397810 120.0130580  75.5371440  45.1552820
 119.9324630  74.6226050  44.8844530 119.5995000  76.0338510  44.4492530
 118.1448620  77.3150460  47.0362090 117.3690720  76.8350900  47.3260660
 118.7961550  76.6356110  46.8618250 112.1614450  77.6270270  47.9137850
 111.3299330  77.3718980  48.3134360 112.7695430  77.6981040  48.6495770
 112.1415710  81.6610360  48.1095870 112.4443750  80.7708100  47.9306090
 112.8859300  82.2180580  47.8818120 110.5706400  72.5872160  41.6980240
 109.6823100  72.9288130  41.5960120 110.8547590  72.3872480  40.8061070
 108.5339410  75.1877810  47.5819940 109.1055520  74.4200010  47.5823580
 108.5340950  75.4866570  46.6726550 118.3919360  84.0068660  45.4365210
 117.7730800  84.4626160  44.8659650 119.2471140  84.1620120  45.0354910
 117.5857610  79.9907650  47.0432250 117.5165890  79.0497590  46.8821380
 118.3477470  80.0809060  47.6154820 109.7764280  70.5962170  49.3688870
 109.5967120  69.6987920  49.6491630 109.3744360  71.1434040  50.0435820
 118.6162780  72.7978030  47.2701180 118.9927600  71.9249910  47.1574850
 118.5182290  73.1336730  46.3791620 112.7467790  71.1703660  42.7318620
 112.8534540  72.0707390  43.0387380 111.8360150  71.1221630  42.4413270
 110.3950950  73.0922670  47.9771210 111.0761060  73.3561040  48.5958610
 110.0799000  72.2523540  48.3109220 114.5875520  74.1390030  47.0643800
 115.0953740  74.6371000  47.7048820 115.1188760  73.3625230  46.8883160
 112.8711620  68.7788590  51.3307220 112.8730060  69.2960980  50.5253120
 112.0415930  68.3018770  51.3077150 119.2582710  78.8907900  42.8297120
 118.6399980  79.3557350  42.2659840 119.7705960  79.5835380  43.2466630
 114.1214470  78.4183770  49.5080720 113.7883850  79.0452690  50.1501790
 114.2981150  78.9445650  48.7282390 112.5526950  70.4898550  49.3377670
 112.8943760  71.3340600  49.0431540 111.6142760  70.6382290  49.4543010
 113.3333570  80.3864570  51.3229900 113.9507570  81.0615650  51.0414350
 112.4726690  80.7952550  51.2317400 108.6265910  79.5764430  40.2036750
 108.2493890  80.0651530  39.4721650 108.8838980  80.2489710  40.8343280
 116.2354840  67.9780820  45.6622260 116.5429820  67.4227710  44.9457760
 115.3055540  68.1125280  45.4795250 118.6235600  76.0429650  42.3982380
 117.6964880  75.9767030  42.6270850 118.7760420  76.9809780  42.2837620
 118.6104680  72.3146650  39.3949540 117.6708350  72.4760610  39.4802000
 118.9287940  73.0332330  38.8485530 114.2292240  76.5694390  45.1802110
 113.8249240  75.8571640  44.6848010 114.3155360  76.2247630  46.0690150
 114.6973940  80.2561950  47.3441320 114.4002230  79.6507420  46.6649100
 115.6473760  80.2939260  47.2330680 112.9420860  73.3437600  48.9601150
 113.4935450  73.4532940  48.1854400 113.4564370  73.7175200  49.6756380
 113.7892370  79.9943640  53.9949120 112.8920900  80.2183610  54.2422520
 113.8145240  80.1178580  53.0460520 112.6163590  76.8656960  52.5706490
 112.4771360  77.7379760  52.9393890 111.7344950  76.5229770  52.4254430
 118.9392970  81.7832830  43.8771620 119.3788880  82.5257160  43.4627010
 118.8779860  82.0259400  44.8010580 114.4143940  82.8078660  54.7791640
 114.3859370  83.2121610  53.9120070 114.2508910  81.8789020  54.6163240
 110.9296870  75.4639370  42.6808760 110.8094470  76.1901460  42.0690030
 110.6197760  74.6942280  42.2036670 108.5682240  78.6354510  48.4877400
 108.6462660  78.7703280  47.5433120 109.1823920  77.9270400  48.6805520
 109.8129870  80.3354700  44.8983580 109.4057950  80.4769290  44.0437180
 110.7042880  80.0514860  44.6954790 119.6308750  84.4846610  51.8050630
 120.1453420  84.3954620  52.6073060 118.7877830  84.8306310  52.0978540
 114.0851530  84.5500480  43.0106250 113.9094010  83.6336020  42.7974050
 113.2307270  84.9087770  43.2504050 108.6241760  79.6768680  51.0271860
 108.7872800  79.2074040  50.2091230 109.0894210  79.1692240  51.6920700
 113.3960530  68.8074440  46.0632430 112.9528680  69.5883980  45.7316950
 113.9545520  69.1304330  46.7703370 117.6830340  71.6742960  51.6667750
 117.2209710  71.8825980  52.4787690 117.2808450  70.8602310  51.3638420
 116.5119350  68.4285140  40.9438260 115.8873530  68.4245010  41.6691570
 116.4249470  67.5616100  40.5474230 115.4336430  69.3521770  47.9222030
 115.7308760  70.2584600  47.8414050 115.9821990  68.8640550  47.3081600
 113.1874750  73.9308010  43.7913680 112.9615670  73.7145180  44.6960300
 112.4067280  74.3636470  43.4459650 115.6273960  74.8293590  54.4573950
 115.5317560  73.8888320  54.3074350 116.4705940  75.0508660  54.0622020
 119.0237380  72.5734920  44.4207610 119.4166950  72.8907120  43.6076300
 119.3854230  71.6946800  44.5352130 110.7584500  71.2407260  52.6107730
 110.3647890  72.0882470  52.8180510 110.0702900  70.6033630  52.8016370
 117.3329550  71.3242230  55.6804470 116.6427870  71.1314430  56.3150560
 118.0761850  71.6076870  56.2128770 108.0601550  69.1635720  46.6437810
 107.7714600  69.7338580  47.3562790 108.8047310  68.6840170  47.0069040
 108.2471780  73.1055840  37.8540530 108.1646450  74.0486600  37.9955520
 107.8954840  72.9630750  36.9752880 119.6092520  75.1640670  48.5158390
 118.8773640  75.6727480  48.8648490 119.2116860  74.3470650  48.2147170
 116.0469910  71.8394870  46.9210880 116.0505970  71.3984820  46.0715420
 116.9421030  72.1612200  47.0282700 111.8972290  71.7221360  45.8805090
 111.5572340  72.1996590  46.6372140 111.1349610  71.2686480  45.5206190
 116.1090060  72.8406950  39.9117640 116.2302880  72.7993430  40.8603460
 115.7238570  73.7031100  39.7564370 120.0718430  70.6174350  47.9281330
 120.0891170  71.0683000  48.7723180 119.8234010  69.7179990  48.1414770
 115.1211560  75.1508090  39.3100940 114.5528460  74.7026340  38.6836850
 115.8300560  75.5100870  38.7766090 110.1980740  79.0520110  53.1867670
 109.8135530  78.4113780  53.7850630 110.5092930  79.7556230  53.7562400
 116.3477880  75.8996650  48.6676290 116.7148010  75.4255220  49.4137630
 116.1582940  76.7738220  49.0084630 109.2118370  70.6440340  44.7969760
 108.9265290  70.2796010  45.6348380 109.1497230  69.9120800  44.1832900
 114.1377250  74.9405290  50.9860500 113.8334320  75.8197270  51.2110860
 115.0923710  75.0005080  51.0217940 112.6659040  79.1466280  41.5827350
 111.8921300  78.6063900  41.4226070 113.3953670  78.6272890  41.2445110
 118.8856960  69.5369600  41.5183130 118.0721570  69.0382770  41.4428440
 118.6918910  70.3767850  41.1019480 118.8065820  78.2140700  53.2622740
 118.7403130  77.2936370  53.0080330 118.1770960  78.3116140  53.9767380
 112.7096440  78.8146660  45.2206160 113.2275110  78.0114920  45.1663050
 112.2580460  78.7525800  46.0622990 117.5965940  80.0812940  40.4933460
 117.9381640  80.8255170  39.9976780 116.7678650  80.3944060  40.8558290
 110.1940980  75.7808030  52.1331860 109.8355920  76.4461880  52.7205200
 109.8995540  74.9491580  52.5044480 113.3954100  76.2392270  55.0171410
 113.0954240  76.3849450  54.1199230 114.1665340  75.6797560  54.9244800
 118.7382550  81.0361270  53.0126540 118.7527090  80.1042230  52.7945450
 118.0307650  81.1221030  53.6516310 116.5656630  80.1626470  43.2649380
 117.2527760  80.7095680  43.6456970 115.7789050  80.7067200  43.2998990
 108.7049030  75.7799290  38.7566460 109.5743880  76.0624090  39.0402380
 108.2139350  76.5935160  38.6415270 115.8683840  77.1672500  42.8774740
 116.3246620  77.9777750  43.1034930 115.5172050  76.8495640  43.7093230
 118.1716450  82.6778840  50.1067040 118.8158670  82.8838220  50.7840460
 118.5345890  81.9167240  49.6537890 111.7695620  67.5110150  43.3497260
 111.6410250  67.5028050  44.2982180 110.9457640  67.8493240  42.9988270
 119.4448530  80.6811190  48.8244490 120.0870760  79.9804350  48.9376660
 119.9697880  81.4609630  48.6441380 109.0720280  84.9926670  39.3228090
 109.4317920  85.5916010  38.6685360 108.9312620  85.5386560  40.0963120
 108.7689550  69.2701270  52.8103960 108.0548070  69.4698190  53.4156570
 109.1884590  68.4940840  53.1818760 109.0562140  83.2581530  53.7970490
 109.1653260  82.3176270  53.6565880 108.4042700  83.5236280  53.1484220
 117.0474730  81.5297420  55.1968610 116.7271600  80.8106660  55.7414300
 116.3733090  82.2052490  55.2704670 115.0888900  82.3757870  40.1401760
 115.0799000  83.1087560  39.5246270 114.1687260  82.1289450  40.2328720
 110.6895540  77.5972760  40.8848520 110.0823490  78.3371660  40.8943820
 111.1644890  77.6872120  40.0586720 118.0748500  82.4386110  38.8026950
 118.1760480  82.2350100  37.8728930 117.1750240  82.1844390  39.0074730
 115.5974390  72.9966470  42.7850850 114.8890540  73.4652810  43.2264460
 115.8818870  72.3388480  43.4196040 117.2230320  74.4163170  50.7843380
 117.7215570  74.8908990  51.4495230 117.3653270  73.4926690  50.9913410
 116.7166610  84.9572430  43.4974620 116.9708110  84.9193820  42.5753990
 115.7679090  84.8305760  43.4902870 113.8009410  71.3051550  40.1601560
 114.6499940  71.7421700  40.0941750 113.4340680  71.6171810  40.9873620
 112.7000830  77.5583910  38.6337090 113.4664100  77.4465270  39.1962520
 112.7775520  76.8621880  37.9813860 111.3947590  74.9908980  39.3169980
 111.4751180  74.0436490  39.4287380 112.2867340  75.3215860  39.4230640
 112.1962300  85.1404370  46.4204520 112.9324780  84.5919830  46.6913090
 112.5803220  86.0060380  46.2810510 109.0807780  81.2077940  42.2946030
 108.1547560  81.4499080  42.2851440 109.5464210  82.0352200  42.1730780
 111.2020580  84.3250440  55.6090100 112.0033310  84.6462490  56.0225500
 110.6872400  83.9646020  56.3310010 115.3064610  84.3134680  38.2430090
 116.0993220  84.6023510  37.7911880 114.7868960  83.8826850  37.5642570
 120.0385210  80.4330310  55.5565510 119.4323370  80.4561910  54.8161260
 119.7339320  79.7013350  56.0932760 108.9218390  76.8123900  54.5526150
 109.4257410  76.2331180  55.1242380 108.1825810  77.0964130  55.0902520
 115.8242010  79.5338090  38.1072440 115.7192650  78.9190440  38.8333820
 115.6566230  79.0103980  37.3235450 115.9756330  78.2194890  54.0861670
 115.2102000  78.7879890  54.0016340 116.1572290  77.9271100  53.1929900
 119.0644740  78.5958120  38.7114430 118.5154840  79.0427420  39.3557170
 119.6864000  78.0907370  39.2352100 110.9541470  74.9553490  55.4476220
 110.9946810  74.6567360  56.3561450 111.8086970  75.3561100  55.2883740
 114.7319860  77.5549040  40.6079730 115.1536280  77.3888910  41.4511120
 114.8570700  76.7449270  40.1134870 112.8947280  73.5345590  53.4150710
 112.3643740  73.0436540  52.7874050 113.5635350  73.9629790  52.8808640
 117.2447500  76.5786650  37.8556830 117.7653160  75.8635670  37.4897980
 117.8915900  77.2172520  38.1557340 113.3819580  70.5007960  53.4948000
 113.2876450  69.8828710  52.7698870 112.8016970  71.2274250  53.2677910
 116.1481020  69.0581200  50.5275390 115.6998320  69.0805460  49.6820940
 115.5146220  68.6600220  51.1245690 116.5540570  77.9535530  51.1487830
 116.9728680  78.7968260  50.9764070 115.6349200  78.0907570  50.9194610
 118.8904470  75.6851710  52.5325670 119.0100680  75.0892850  53.2720510
 119.7498470  75.7221400  52.1126970 113.6278760  73.6282270  37.5537890
 113.4267820  72.7649630  37.9151230 113.4570810  73.5415630  36.6159490
 114.4047990  84.2588540  52.2645560 113.8669080  84.9834600  51.9454260
 114.6581950  83.7818880  51.4742900 115.6573240  72.2273060  53.7901490
 116.2472930  71.9188910  54.4779310 114.8393480  71.7552810  53.9461390
 112.4261560  70.7282890  37.5415770 112.7287460  70.7350320  36.6334920
 113.1656150  70.3780750  38.0383430 117.2610200  85.4939750  52.5232210
 117.1868900  86.3974890  52.8304580 116.3589040  85.1751650  52.4954280
 115.6446490  69.6717510  38.5271970 115.2968490  68.9941500  37.9474420
 115.8459260  69.2107020  39.3415360 117.8095530  84.6598260  40.1458570
 118.7046320  84.9983230  40.1677330 117.8413160  83.9377670  39.5182850
 111.4491690  80.0325310  38.3745570 111.8866560  80.5754980  39.0303150
 111.9339420  79.2072260  38.3841910 108.6637490  82.8214340  45.8265830
 108.9940500  81.9535400  45.5944470 109.0928490  83.0272860  46.6570790
 113.2599410  81.1523350  43.4867800 112.9594950  81.0288320  44.3871710
 113.1536900  80.2931940  43.0783530 109.1527700  83.6884930  48.5647460
 108.7158690  83.8685730  49.3971610 109.7205380  84.4459550  48.4229180
 108.9852130  76.2005160  44.9236340 108.3300970  75.9316800  44.2796040
 109.8230080  76.0909640  44.4738320 110.0228060  76.5857730  49.4639680
 110.3901100  76.4985130  50.3435700 109.4538880  75.8224280  49.3646540
 109.5744060  73.4966820  53.3698100 108.6800110  73.4633580  53.7091810
 110.1141610  73.6953610  54.1349350 108.1990210  73.4104090  40.8661670
 107.2954290  73.6734290  40.6913330 108.6830830  73.6815260  40.0861630
 110.7417420  72.4669630  38.7756050 111.4509120  72.0452850  38.2903330
 110.0257360  72.5344860  38.1439400 110.3891580  68.5208960  37.8158700
 111.1119710  69.0617900  38.1339920 110.6616100  68.2472380  36.9400240
 110.0783770  67.7715150  47.7181320 110.7259960  67.2212530  47.2776480
 110.4985610  68.0258300  48.5397130 109.8315770  67.9270820  50.4606640
 109.4830590  68.3834640  51.2264820 109.5003470  67.0327950  50.5429070
 111.4380140  81.0990420  54.6259830 111.3949770  80.7283330  55.5074290
 111.5691150  82.0367990  54.7661650 115.1386170  82.6550010  50.2269550
 114.8977530  82.9224570  49.3400070 116.0788810  82.8255740  50.2820410
 117.3440590  69.1182700  53.9826060 117.2829480  69.7104530  54.7321470
 118.2840970  69.0108660  53.8376320 110.5036410  67.4547020  53.7357410
 111.0519400  67.2735070  52.9723520 110.5691720  66.6641130  54.2713720
 111.2768170  84.0452670  51.7457610 110.6828490  83.9137370  52.4847650
 111.2692010  83.2090810  51.2799710 110.9080400  81.4111050  50.6965650
 110.1814460  80.7916340  50.6291600 110.9689550  81.8051660  49.8263730
 114.5125500  83.6256050  47.4815060 115.0290520  83.0143410  46.9563320
 115.1622880  84.1284830  47.9726070 117.2521000  84.5164540  48.3084040
 117.5398810  84.2618840  47.4317050 117.7644220  83.9641900  48.8989610
 118.4698010  68.2554740  48.8880550 117.6869800  68.7300240  49.1677310
 118.1760940  67.3509570  48.7793730 109.1910400  84.7285440  43.9062410
 109.0232440  84.0956120  44.6044300 108.3244910  84.9344840  43.5556600
 109.8138420  68.5602220  41.4094270 110.5717780  68.6731100  40.8358300
 109.3515590  69.3971420  41.3637700 116.3552230  70.6741490  44.3996580
 115.5426740  70.2998380  44.0592460 116.8593870  69.9186570  44.7017770
 110.7973100  83.4218670  41.3512550 110.2720720  83.8026700  40.6474510
 110.7217680  84.0469440  42.0722260 112.1863570  69.0866270  39.9496240
 112.7156330  68.2996070  39.8204190 112.8191890  69.7657460  40.1831770
 114.3801410  68.8241410  43.0041630 113.7504150  68.1228720  43.1711760
 113.8406550  69.5845540  42.7874790 117.3193360  85.4380640  55.6752240
 118.2460670  85.2024910  55.7188200 117.3043790  86.2652640  55.1938270
 114.5056970  68.1025390  55.4394120 114.2241240  68.6058990  54.6754940
 114.8876670  67.3047140  55.0736250 113.3966070  85.3701050  40.2261800
 114.1284890  85.0860330  39.6785690 113.6559740  85.1314330  41.1161180
 112.5580860  81.4865780  40.2308130 111.9289740  81.9550880  40.7793960
 112.6728690  80.6415000  40.6654320 120.0130580  75.5371440  26.3809330
 119.9324630  74.6226050  26.1101040 119.5995000  76.0338510  25.6749040
 118.1448620  77.3150460  28.2618600 117.3690720  76.8350900  28.5517170
 118.7961550  76.6356110  28.0874760 112.1614450  77.6270270  29.1394360
 111.3299330  77.3718980  29.5390870 112.7695430  77.6981040  29.8752280
 112.1415710  81.6610360  29.3352380 112.4443750  80.7708100  29.1562600
 112.8859300  82.2180580  29.1074630 110.5706400  72.5872160  22.9236750
 109.6823100  72.9288130  22.8216630 110.8547590  72.3872480  22.0317580
 108.5339410  75.1877810  28.8076450 109.1055520  74.4200010  28.8080090
 108.5340950  75.4866570  27.8983060 118.3919360  84.0068660  26.6621720
 117.7730800  84.4626160  26.0916160 119.2471140  84.1620120  26.2611420
 117.5857610  79.9907650  28.2688760 117.5165890  79.0497590  28.1077890
 118.3477470  80.0809060  28.8411330 109.7764280  70.5962170  30.5945380
 109.5967120  69.6987920  30.8748140 109.3744360  71.1434040  31.2692330
 118.6162780  72.7978030  28.4957690 118.9927600  71.9249910  28.3831360
 118.5182290  73.1336730  27.6048130 112.7467790  71.1703660  23.9575130
 112.8534540  72.0707390  24.2643890 111.8360150  71.1221630  23.6669780
 110.3950950  73.0922670  29.2027720 111.0761060  73.3561040  29.8215120
 110.0799000  72.2523540  29.5365730 114.5875520  74.1390030  28.2900310
 115.0953740  74.6371000  28.9305330 115.1188760  73.3625230  28.1139670
 112.8711620  68.7788590  32.5563730 112.8730060  69.2960980  31.7509630
 112.0415930  68.3018770  32.5333660 119.2582710  78.8907900  24.0553630
 118.6399980  79.3557350  23.4916350 119.7705960  79.5835380  24.4723140
 114.1214470  78.4183770  30.7337230 113.7883850  79.0452690  31.3758300
 114.2981150  78.9445650  29.9538900 112.5526950  70.4898550  30.5634180
 112.8943760  71.3340600  30.2688050 111.6142760  70.6382290  30.6799520
 113.3333570  80.3864570  32.5486410 113.9507570  81.0615650  32.2670860
 112.4726690  80.7952550  32.4573910 108.6265910  79.5764430  21.4293260
 108.2493890  80.0651530  20.6978160 108.8838980  80.2489710  22.0599790
 116.2354840  67.9780820  26.8878770 116.5429820  67.4227710  26.1714270
 115.3055540  68.1125280  26.7051760 118.6235600  76.0429650  23.6238890
 117.6964880  75.9767030  23.8527360 118.7760420  76.9809780  23.5094130
 118.6104680  72.3146650  20.6206050 117.6708350  72.4760610  20.7058510
 118.9287940  73.0332330  20.0742040 114.2292240  76.5694390  26.4058620
 113.8249240  75.8571640  25.9104520 114.3155360  76.2247630  27.2946660
 114.6973940  80.2561950  28.5697830 114.4002230  79.6507420  27.8905610
 115.6473760  80.2939260  28.4587190 112.9420860  73.3437600  30.1857660
 113.4935450  73.4532940  29.4110910 113.4564370  73.7175200  30.9012890
 113.7892370  79.9943640  35.2205630 112.8920900  80.2183610  35.4679030
 113.8145240  80.1178580  34.2717030 112.6163590  76.8656960  33.7963000
 112.4771360  77.7379760  34.1650400 111.7344950  76.5229770  33.6510940
 118.9392970  81.7832830  25.1028130 119.3788880  82.5257160  24.6883520
 118.8779860  82.0259400  26.0267090 114.4143940  82.8078660  36.0048150
 114.3859370  83.2121610  35.1376580 114.2508910  81.8789020  35.8419750
 110.9296870  75.4639370  23.9065270 110.8094470  76.1901460  23.2946540
 110.6197760  74.6942280  23.4293180 108.5682240  78.6354510  29.7133910
 108.6462660  78.7703280  28.7689630 109.1823920  77.9270400  29.9062030
 109.8129870  80.3354700  26.1240090 109.4057950  80.4769290  25.2693690
 110.7042880  80.0514860  25.9211300 119.6308750  84.4846610  33.0307140
 120.1453420  84.3954620  33.8329570 118.7877830  84.8306310  33.3235050
 114.0851530  84.5500480  24.2362760 113.9094010  83.6336020  24.0230560
 113.2307270  84.9087770  24.4760560 108.6241760  79.6768680  32.2528370
 108.7872800  79.2074040  31.4347740 109.0894210  79.1692240  32.9177210
 113.3960530  68.8074440  27.2888940 112.9528680  69.5883980  26.9573460
 113.9545520  69.1304330  27.9959880 117.6830340  71.6742960  32.8924260
 117.2209710  71.8825980  33.7044200 117.2808450  70.8602310  32.5894930
 116.5119350  68.4285140  22.1694770 115.8873530  68.4245010  22.8948080
 116.4249470  67.5616100  21.7730740 115.4336430  69.3521770  29.1478540
 115.7308760  70.2584600  29.0670560 115.9821990  68.8640550  28.5338110
 113.1874750  73.9308010  25.0170190 112.9615670  73.7145180  25.9216810
 112.4067280  74.3636470  24.6716160 115.6273960  74.8293590  35.6830460
 115.5317560  73.8888320  35.5330860 116.4705940  75.0508660  35.2878530
 119.0237380  72.5734920  25.6464120 119.4166950  72.8907120  24.8332810
 119.3854230  71.6946800  25.7608640 110.7584500  71.2407260  33.8364240
 110.3647890  72.0882470  34.0437020 110.0702900  70.6033630  34.0272880
 117.3329550  71.3242230  36.9060980 116.6427870  71.1314430  37.5407070
 118.0761850  71.6076870  37.4385280 108.0601550  69.1635720  27.8694320
 107.7714600  69.7338580  28.5819300 108.8047310  68.6840170  28.2325550
 108.2471780  73.1055840  19.0797040 108.1646450  74.0486600  19.2212030
 107.8954840  72.9630750  18.2009390 119.6092520  75.1640670  29.7414900
 118.8773640  75.6727480  30.0905000 119.2116860  74.3470650  29.4403680
 116.0469910  71.8394870  28.1467390 116.0505970  71.3984820  27.2971930
 116.9421030  72.1612200  28.2539210 111.8972290  71.7221360  27.1061600
 111.5572340  72.1996590  27.8628650 111.1349610  71.2686480  26.7462700
 116.1090060  72.8406950  21.1374150 116.2302880  72.7993430  22.0859970
 115.7238570  73.7031100  20.9820880 120.0718430  70.6174350  29.1537840
 120.0891170  71.0683000  29.9979690 119.8234010  69.7179990  29.3671280
 115.1211560  75.1508090  20.5357450 114.5528460  74.7026340  19.9093360
 115.8300560  75.5100870  20.0022600 110.1980740  79.0520110  34.4124180
 109.8135530  78.4113780  35.0107140 110.5092930  79.7556230  34.9818910
 116.3477880  75.8996650  29.8932800 116.7148010  75.4255220  30.6394140
 116.1582940  76.7738220  30.2341140 109.2118370  70.6440340  26.0226270
 108.9265290  70.2796010  26.8604890 109.1497230  69.9120800  25.4089410
 114.1377250  74.9405290  32.2117010 113.8334320  75.8197270  32.4367370
 115.0923710  75.0005080  32.2474450 112.6659040  79.1466280  22.8083860
 111.8921300  78.6063900  22.6482580 113.3953670  78.6272890  22.4701620
 118.8856960  69.5369600  22.7439640 118.0721570  69.0382770  22.6684950
 118.6918910  70.3767850  22.3275990 118.8065820  78.2140700  34.4879250
 118.7403130  77.2936370  34.2336840 118.1770960  78.3116140  35.2023890
 112.7096440  78.8146660  26.4462670 113.2275110  78.0114920  26.3919560
 112.2580460  78.7525800  27.2879500 117.5965940  80.0812940  21.7189970
 117.9381640  80.8255170  21.2233290 116.7678650  80.3944060  22.0814800
 110.1940980  75.7808030  33.3588370 109.8355920  76.4461880  33.9461710
 109.8995540  74.9491580  33.7300990 113.3954100  76.2392270  36.2427920
 113.0954240  76.3849450  35.3455740 114.1665340  75.6797560  36.1501310
 118.7382550  81.0361270  34.2383050 118.7527090  80.1042230  34.0201960
 118.0307650  81.1221030  34.8772820 116.5656630  80.1626470  24.4905890
 117.2527760  80.7095680  24.8713480 115.7789050  80.7067200  24.5255500
 108.7049030  75.7799290  19.9822970 109.5743880  76.0624090  20.2658890
 108.2139350  76.5935160  19.8671780 115.8683840  77.1672500  24.1031250
 116.3246620  77.9777750  24.3291440 115.5172050  76.8495640  24.9349740
 118.1716450  82.6778840  31.3323550 118.8158670  82.8838220  32.0096970
 118.5345890  81.9167240  30.8794400 111.7695620  67.5110150  24.5753770
 111.6410250  67.5028050  25.5238690 110.9457640  67.8493240  24.2244780
 119.4448530  80.6811190  30.0501000 120.0870760  79.9804350  30.1633170
 119.9697880  81.4609630  29.8697890 109.0720280  84.9926670  20.5484600
 109.4317920  85.5916010  19.8941870 108.9312620  85.5386560  21.3219630
 108.7689550  69.2701270  34.0360470 108.0548070  69.4698190  34.6413080
 109.1884590  68.4940840  34.4075270 109.0562140  83.2581530  35.0227000
 109.1653260  82.3176270  34.8822390 108.4042700  83.5236280  34.3740730
 117.0474730  81.5297420  36.4225120 116.7271600  80.8106660  36.9670810
 116.3733090  82.2052490  36.4961180 115.0888900  82.3757870  21.3658270
 115.0799000  83.1087560  20.7502780 114.1687260  82.1289450  21.4585230
 110.6895540  77.5972760  22.1105030 110.0823490  78.3371660  22.1200330
 111.1644890  77.6872120  21.2843230 118.0748500  82.4386110  20.0283460
 118.1760480  82.2350100  19.0985440 117.1750240  82.1844390  20.2331240
 115.5974390  72.9966470  24.0107360 114.8890540  73.4652810  24.4520970
 115.8818870  72.3388480  24.6452550 117.2230320  74.4163170  32.0099890
 117.7215570  74.8908990  32.6751740 117.3653270  73.4926690  32.2169920
 116.7166610  84.9572430  24.7231130 116.9708110  84.9193820  23.8010500
 115.7679090  84.8305760  24.7159380 113.8009410  71.3051550  21.3858070
 114.6499940  71.7421700  21.3198260 113.4340680  71.6171810  22.2130130
 112.7000830  77.5583910  19.8593600 113.4664100  77.4465270  20.4219030
 112.7775520  76.8621880  19.2070370 111.3947590  74.9908980  20.5426490
 111.4751180  74.0436490  20.6543890 112.2867340  75.3215860  20.6487150
 112.1962300  85.1404370  27.6461030 112.9324780  84.5919830  27.9169600
 112.5803220  86.0060380  27.5067020 109.0807780  81.2077940  23.5202540
 108.1547560  81.4499080  23.5107950 109.5464210  82.0352200  23.3987290
 111.2020580  84.3250440  36.8346610 112.0033310  84.6462490  37.2482010
 110.6872400  83.9646020  37.5566520 115.3064610  84.3134680  19.4686600
 116.0993220  84.6023510  19.0168390 114.7868960  83.8826850  18.7899080
 120.0385210  80.4330310  36.7822020 119.4323370  80.4561910  36.0417770
 119.7339320  79.7013350  37.3189270 108.9218390  76.8123900  35.7782660
 109.4257410  76.2331180  36.3498890 108.1825810  77.0964130  36.3159030
 115.8242010  79.5338090  19.3328950 115.7192650  78.9190440  20.0590330
 115.6566230  79.0103980  18.5491960 115.9756330  78.2194890  35.3118180
 115.2102000  78.7879890  35.2272850 116.1572290  77.9271100  34.4186410
 119.0644740  78.5958120  19.9370940 118.5154840  79.0427420  20.5813680
 119.6864000  78.0907370  20.4608610 110.9541470  74.9553490  36.6732730
 110.9946810  74.6567360  37.5817960 111.8086970  75.3561100  36.5140250
 114.7319860  77.5549040  21.8336240 115.1536280  77.3888910  22.6767630
 114.8570700  76.7449270  21.3391380 112.8947280  73.5345590  34.6407220
 112.3643740  73.0436540  34.0130560 113.5635350  73.9629790  34.1065150
 117.2447500  76.5786650  19.0813340 117.7653160  75.8635670  18.7154490
 117.8915900  77.2172520  19.3813850 113.3819580  70.5007960  34.7204510
 113.2876450  69.8828710  33.9955380 112.8016970  71.2274250  34.4934420
 116.1481020  69.0581200  31.7531900 115.6998320  69.0805460  30.9077450
 115.5146220  68.6600220  32.3502200 116.5540570  77.9535530  32.3744340
 116.9728680  78.7968260  32.2020580 115.6349200  78.0907570  32.1451120
 118.8904470  75.6851710  33.7582180 119.0100680  75.0892850  34.4977020
 119.7498470  75.7221400  33.3383480 113.6278760  73.6282270  18.7794400
 113.4267820  72.7649630  19.1407740 113.4570810  73.5415630  17.8416000
 114.4047990  84.2588540  33.4902070 113.8669080  84.9834600  33.1710770
 114.6581950  83.7818880  32.6999410 115.6573240  72.2273060  35.0158000
 116.2472930  71.9188910  35.7035820 114.8393480  71.7552810  35.1717900
 112.4261560  70.7282890  18.7672280 112.7287460  70.7350320  17.8591430
 113.1656150  70.3780750  19.2639940 117.2610200  85.4939750  33.7488720
 117.1868900  86.3974890  34.0561090 116.3589040  85.1751650  33.7210790
 115.6446490  69.6717510  19.7528480 115.2968490  68.9941500  19.1730930
 115.8459260  69.2107020  20.5671870 117.8095530  84.6598260  21.3715080
 118.7046320  84.9983230  21.3933840 117.8413160  83.9377670  20.7439360
 111.4491690  80.0325310  19.6002080 111.8866560  80.5754980  20.2559660
 111.9339420  79.2072260  19.6098420 108.6637490  82.8214340  27.0522340
 108.9940500  81.9535400  26.8200980 109.0928490  83.0272860  27.8827300
 113.2599410  81.1523350  24.7124310 112.9594950  81.0288320  25.6128220
 113.1536900  80.2931940  24.3040040 109.1527700  83.6884930  29.7903970
 108.7158690  83.8685730  30.6228120 109.7205380  84.4459550  29.6485690
 108.9852130  76.2005160  26.1492850 108.3300970  75.9316800  25.5052550
 109.8230080  76.0909640  25.6994830 110.0228060  76.5857730  30.6896190
 110.3901100  76.4985130  31.5692210 109.4538880  75.8224280  30.5903050
 109.5744060  73.4966820  34.5954610 108.6800110  73.4633580  34.9348320
 110.1141610  73.6953610  35.3605860 108.1990210  73.4104090  22.0918180
 107.2954290  73.6734290  21.9169840 108.6830830  73.6815260  21.3118140
 110.7417420  72.4669630  20.0012560 111.4509120  72.0452850  19.5159840
 110.0257360  72.5344860  19.3695910 110.3891580  68.5208960  19.0415210
 111.1119710  69.0617900  19.3596430 110.6616100  68.2472380  18.1656750
 110.0783770  67.7715150  28.9437830 110.7259960  67.2212530  28.5032990
 110.4985610  68.0258300  29.7653640 109.8315770  67.9270820  31.6863150
 109.4830590  68.3834640  32.4521330 109.5003470  67.0327950  31.7685580
 111.4380140  81.0990420  35.8516340 111.3949770  80.7283330  36.7330800
 111.5691150  82.0367990  35.9918160 115.1386170  82.6550010  31.4526060
 114.8977530  82.9224570  30.5656580 116.0788810  82.8255740  31.5076920
 117.3440590  69.1182700  35.2082570 117.2829480  69.7104530  35.9577980
 118.2840970  69.0108660  35.0632830 110.5036410  67.4547020  34.9613920
 111.0519400  67.2735070  34.1980030 110.5691720  66.6641130  35.4970230
 111.2768170  84.0452670  32.9714120 110.6828490  83.9137370  33.7104160
 111.2692010  83.2090810  32.5056220 110.9080400  81.4111050  31.9222160
 110.1814460  80.7916340  31.8548110 110.9689550  81.8051660  31.0520240
 114.5125500  83.6256050  28.7071570 115.0290520  83.0143410  28.1819830
 115.1622880  84.1284830  29.1982580 117.2521000  84.5164540  29.5340550
 117.5398810  84.2618840  28.6573560 117.7644220  83.9641900  30.1246120
 118.4698010  68.2554740  30.1137060 117.6869800  68.7300240  30.3933820
 118.1760940  67.3509570  30.0050240 109.1910400  84.7285440  25.1318920
 109.0232440  84.0956120  25.8300810 108.3244910  84.9344840  24.7813110
 109.8138420  68.5602220  22.6350780 110.5717780  68.6731100  22.0614810
 109.3515590  69.3971420  22.5894210 116.3552230  70.6741490  25.6253090
 115.5426740  70.2998380  25.2848970 116.8593870  69.9186570  25.9274280
 110.7973100  83.4218670  22.5769060 110.2720720  83.8026700  21.8731020
 110.7217680  84.0469440  23.2978770 112.1863570  69.0866270  21.1752750
 112.7156330  68.2996070  21.0460700 112.8191890  69.7657460  21.4088280
 114.3801410  68.8241410  24.2298140 113.7504150  68.1228720  24.3968270
 113.8406550  69.5845540  24.0131300 117.3193360  85.4380640  36.9008750
 118.2460670  85.2024910  36.9444710 117.3043790  86.2652640  36.4194780
 114.5056970  68.1025390  36.6650630 114.2241240  68.6058990  35.9011450
 114.8876670  67.3047140  36.2992760 113.3966070  85.3701050  21.4518310
 114.1284890  85.0860330  20.9042200 113.6559740  85.1314330  22.3417690
 112.5580860  81.4865780  21.4564640 111.9289740  81.9550880  22.0050470
 112.6728690  80.6415000  21.8910830 120.0130580  75.5371440   7.6065840
 119.9324630  74.6226050   7.3357550 119.5995000  76.0338510   6.9005550
 118.1448620  77.3150460   9.4875110 117.3690720  76.8350900   9.7773680
 118.7961550  76.6356110   9.3131270 112.1614450  77.6270270  10.3650870
 111.3299330  77.3718980  10.7647380 112.7695430  77.6981040  11.1008790
 112.1415710  81.6610360  10.5608890 112.4443750  80.7708100  10.3819110
 112.8859300  82.2180580  10.3331140 110.5706400  72.5872160   4.1493260
 109.6823100  72.9288130   4.0473140 110.8547590  72.3872480   3.2574090
 108.5339410  75.1877810  10.0332960 109.1055520  74.4200010  10.0336600
 108.5340950  75.4866570   9.1239570 118.3919360  84.0068660   7.8878230
 117.7730800  84.4626160   7.3172670 119.2471140  84.1620120   7.4867930
 117.5857610  79.9907650   9.4945270 117.5165890  79.0497590   9.3334400
 118.3477470  80.0809060  10.0667840 109.7764280  70.5962170  11.8201890
 109.5967120  69.6987920  12.1004650 109.3744360  71.1434040  12.4948840
 118.6162780  72.7978030   9.7214200 118.9927600  71.9249910   9.6087870
 118.5182290  73.1336730   8.8304640 112.7467790  71.1703660   5.1831640
 112.8534540  72.0707390   5.4900400 111.8360150  71.1221630   4.8926290
 110.3950950  73.0922670  10.4284230 111.0761060  73.3561040  11.0471630
 110.0799000  72.2523540  10.7622240 114.5875520  74.1390030   9.5156820
 115.0953740  74.6371000  10.1561840 115.1188760  73.3625230   9.3396180
 112.8711620  68.7788590  13.7820240 112.8730060  69.2960980  12.9766140
 112.0415930  68.3018770  13.7590170 119.2582710  78.8907900   5.2810140
 118.6399980  79.3557350   4.7172860 119.7705960  79.5835380   5.6979650
 114.1214470  78.4183770  11.9593740 113.7883850  79.0452690  12.6014810
 114.2981150  78.9445650  11.1795410 112.5526950  70.4898550  11.7890690
 112.8943760  71.3340600  11.4944560 111.6142760  70.6382290  11.9056030
 113.3333570  80.3864570  13.7742920 113.9507570  81.0615650  13.4927370
 112.4726690  80.7952550  13.6830420 108.6265910  79.5764430   2.6549770
 108.2493890  80.0651530   1.9234670 108.8838980  80.2489710   3.2856300
 116.2354840  67.9780820   8.1135280 116.5429820  67.4227710   7.3970780
 115.3055540  68.1125280   7.9308270 118.6235600  76.0429650   4.8495400
 117.6964880  75.9767030   5.0783870 118.7760420  76.9809780   4.7350640
 118.6104680  72.3146650   1.8462560 117.6708350  72.4760610   1.9315020
 118.9287940  73.0332330   1.2998550 114.2292240  76.5694390   7.6315130
 113.8249240  75.8571640   7.1361030 114.3155360  76.2247630   8.5203170
 114.6973940  80.2561950   9.7954340 114.4002230  79.6507420   9.1162120
 115.6473760  80.2939260   9.6843700 112.9420860  73.3437600  11.4114170
 113.4935450  73.4532940  10.6367420 113.4564370  73.7175200  12.1269400
 113.7892370  79.9943640  16.4462140 112.8920900  80.2183610  16.6935540
 113.8145240  80.1178580  15.4973540 112.6163590  76.8656960  15.0219510
 112.4771360  77.7379760  15.3906910 111.7344950  76.5229770  14.8767450
 118.9392970  81.7832830   6.3284640 119.3788880  82.5257160   5.9140030
 118.8779860  82.0259400   7.2523600 114.4143940  82.8078660  17.2304660
 114.3859370  83.2121610  16.3633090 114.2508910  81.8789020  17.0676260
 110.9296870  75.4639370   5.1321780 110.8094470  76.1901460   4.5203050
 110.6197760  74.6942280   4.6549690 108.5682240  78.6354510  10.9390420
 108.6462660  78.7703280   9.9946140 109.1823920  77.9270400  11.1318540
 109.8129870  80.3354700   7.3496600 109.4057950  80.4769290   6.4950200
 110.7042880  80.0514860   7.1467810 119.6308750  84.4846610  14.2563650
 120.1453420  84.3954620  15.0586080 118.7877830  84.8306310  14.5491560
 114.0851530  84.5500480   5.4619270 113.9094010  83.6336020   5.2487070
 113.2307270  84.9087770   5.7017070 108.6241760  79.6768680  13.4784880
 108.7872800  79.2074040  12.6604250 109.0894210  79.1692240  14.1433720
 113.3960530  68.8074440   8.5145450 112.9528680  69.5883980   8.1829970
 113.9545520  69.1304330   9.2216390 117.6830340  71.6742960  14.1180770
 117.2209710  71.8825980  14.9300710 117.2808450  70.8602310  13.8151440
 116.5119350  68.4285140   3.3951280 115.8873530  68.4245010   4.1204590
 116.4249470  67.5616100   2.9987250 115.4336430  69.3521770  10.3735050
 115.7308760  70.2584600  10.2927070 115.9821990  68.8640550   9.7594620
 113.1874750  73.9308010   6.2426700 112.9615670  73.7145180   7.1473320
 112.4067280  74.3636470   5.8972670 115.6273960  74.8293590  16.9086970
 115.5317560  73.8888320  16.7587370 116.4705940  75.0508660  16.5135040
 119.0237380  72.5734920   6.8720630 119.4166950  72.8907120   6.0589320
 119.3854230  71.6946800   6.9865150 110.7584500  71.2407260  15.0620750
 110.3647890  72.0882470  15.2693530 110.0702900  70.6033630  15.2529390
 117.3329550  71.3242230  18.1317490 116.6427870  71.1314430  18.7663580
 118.0761850  71.6076870  18.6641790 108.0601550  69.1635720   9.0950830
 107.7714600  69.7338580   9.8075810 108.8047310  68.6840170   9.4582060
 119.6092520  75.1640670  10.9671410 118.8773640  75.6727480  11.3161510
 119.2116860  74.3470650  10.6660190 116.0469910  71.8394870   9.3723900
 116.0505970  71.3984820   8.5228440 116.9421030  72.1612200   9.4795720
 111.8972290  71.7221360   8.3318110 111.5572340  72.1996590   9.0885160
 111.1349610  71.2686480   7.9719210 116.1090060  72.8406950   2.3630660
 116.2302880  72.7993430   3.3116480 115.7238570  73.7031100   2.2077390
 120.0718430  70.6174350  10.3794350 120.0891170  71.0683000  11.2236200
 119.8234010  69.7179990  10.5927790 110.1980740  79.0520110  15.6380690
 109.8135530  78.4113780  16.2363650 110.5092930  79.7556230  16.2075420
 116.3477880  75.8996650  11.1189310 116.7148010  75.4255220  11.8650650
 116.1582940  76.7738220  11.4597650 109.2118370  70.6440340   7.2482780
 108.9265290  70.2796010   8.0861400 109.1497230  69.9120800   6.6345920
 114.1377250  74.9405290  13.4373520 113.8334320  75.8197270  13.6623880
 115.0923710  75.0005080  13.4730960 112.6659040  79.1466280   4.0340370
 111.8921300  78.6063900   3.8739090 113.3953670  78.6272890   3.6958130
 118.8856960  69.5369600   3.9696150 118.0721570  69.0382770   3.8941460
 118.6918910  70.3767850   3.5532500 118.8065820  78.2140700  15.7135760
 118.7403130  77.2936370  15.4593350 118.1770960  78.3116140  16.4280400
 112.7096440  78.8146660   7.6719180 113.2275110  78.0114920   7.6176070
 112.2580460  78.7525800   8.5136010 117.5965940  80.0812940   2.9446480
 117.9381640  80.8255170   2.4489800 116.7678650  80.3944060   3.3071310
 110.1940980  75.7808030  14.5844880 109.8355920  76.4461880  15.1718220
 109.8995540  74.9491580  14.9557500 113.3954100  76.2392270  17.4684430
 113.0954240  76.3849450  16.5712250 114.1665340  75.6797560  17.3757820
 118.7382550  81.0361270  15.4639560 118.7527090  80.1042230  15.2458470
 118.0307650  81.1221030  16.1029330 116.5656630  80.1626470   5.7162400
 117.2527760  80.7095680   6.0969990 115.7789050  80.7067200   5.7512010
 115.8683840  77.1672500   5.3287760 116.3246620  77.9777750   5.5547950
 115.5172050  76.8495640   6.1606250 118.1716450  82.6778840  12.5580060
 118.8158670  82.8838220  13.2353480 118.5345890  81.9167240  12.1050910
 111.7695620  67.5110150   5.8010280 111.6410250  67.5028050   6.7495200
 110.9457640  67.8493240   5.4501290 119.4448530  80.6811190  11.2757510
 120.0870760  79.9804350  11.3889680 119.9697880  81.4609630  11.0954400
 108.7689550  69.2701270  15.2616980 108.0548070  69.4698190  15.8669590
 109.1884590  68.4940840  15.6331780 109.0562140  83.2581530  16.2483510
 109.1653260  82.3176270  16.1078900 108.4042700  83.5236280  15.5997240
 117.0474730  81.5297420  17.6481630 116.7271600  80.8106660  18.1927320
 116.3733090  82.2052490  17.7217690 115.0888900  82.3757870   2.5914780
 115.0799000  83.1087560   1.9759290 114.1687260  82.1289450   2.6841740
 110.6895540  77.5972760   3.3361540 110.0823490  78.3371660   3.3456840
 111.1644890  77.6872120   2.5099740 115.5974390  72.9966470   5.2363870
 114.8890540  73.4652810   5.6777480 115.8818870  72.3388480   5.8709060
 117.2230320  74.4163170  13.2356400 117.7215570  74.8908990  13.9008250
 117.3653270  73.4926690  13.4426430 116.7166610  84.9572430   5.9487640
 116.9708110  84.9193820   5.0267010 115.7679090  84.8305760   5.9415890
 113.8009410  71.3051550   2.6114580 114.6499940  71.7421700   2.5454770
 113.4340680  71.6171810   3.4386640 111.3947590  74.9908980   1.7683000
 111.4751180  74.0436490   1.8800400 112.2867340  75.3215860   1.8743660
 112.1962300  85.1404370   8.8717540 112.9324780  84.5919830   9.1426110
 112.5803220  86.0060380   8.7323530 109.0807780  81.2077940   4.7459050
 108.1547560  81.4499080   4.7364460 109.5464210  82.0352200   4.6243800
 111.2020580  84.3250440  18.0603120 112.0033310  84.6462490  18.4738520
 110.6872400  83.9646020  18.7823030 120.0385210  80.4330310  18.0078530
 119.4323370  80.4561910  17.2674280 119.7339320  79.7013350  18.5445780
 108.9218390  76.8123900  17.0039170 109.4257410  76.2331180  17.5755400
 108.1825810  77.0964130  17.5415540 115.9756330  78.2194890  16.5374690
 115.2102000  78.7879890  16.4529360 116.1572290  77.9271100  15.6442920
 110.9541470  74.9553490  17.8989240 110.9946810  74.6567360  18.8074470
 111.8086970  75.3561100  17.7396760 114.7319860  77.5549040   3.0592750
 115.1536280  77.3888910   3.9024140 114.8570700  76.7449270   2.5647890
 112.8947280  73.5345590  15.8663730 112.3643740  73.0436540  15.2387070
 113.5635350  73.9629790  15.3321660 113.3819580  70.5007960  15.9461020
 113.2876450  69.8828710  15.2211890 112.8016970  71.2274250  15.7190930
 116.1481020  69.0581200  12.9788410 115.6998320  69.0805460  12.1333960
 115.5146220  68.6600220  13.5758710 116.5540570  77.9535530  13.6000850
 116.9728680  78.7968260  13.4277090 115.6349200  78.0907570  13.3707630
 118.8904470  75.6851710  14.9838690 119.0100680  75.0892850  15.7233530
 119.7498470  75.7221400  14.5639990 114.4047990  84.2588540  14.7158580
 113.8669080  84.9834600  14.3967280 114.6581950  83.7818880  13.9255920
 115.6573240  72.2273060  16.2414510 116.2472930  71.9188910  16.9292330
 114.8393480  71.7552810  16.3974410 117.2610200  85.4939750  14.9745230
 117.1868900  86.3974890  15.2817600 116.3589040  85.1751650  14.9467300
 117.8095530  84.6598260   2.5971590 118.7046320  84.9983230   2.6190350
 117.8413160  83.9377670   1.9695870 108.6637490  82.8214340   8.2778850
 108.9940500  81.9535400   8.0457490 109.0928490  83.0272860   9.1083810
 113.2599410  81.1523350   5.9380820 112.9594950  81.0288320   6.8384730
 113.1536900  80.2931940   5.5296550 109.1527700  83.6884930  11.0160480
 108.7158690  83.8685730  11.8484630 109.7205380  84.4459550  10.8742200
 108.9852130  76.2005160   7.3749360 108.3300970  75.9316800   6.7309060
 109.8230080  76.0909640   6.9251340 110.0228060  76.5857730  11.9152700
 110.3901100  76.4985130  12.7948720 109.4538880  75.8224280  11.8159560
 109.5744060  73.4966820  15.8211120 108.6800110  73.4633580  16.1604830
 110.1141610  73.6953610  16.5862370 108.1990210  73.4104090   3.3174690
 107.2954290  73.6734290   3.1426350 108.6830830  73.6815260   2.5374650
 110.0783770  67.7715150  10.1694340 110.7259960  67.2212530   9.7289500
 110.4985610  68.0258300  10.9910150 109.8315770  67.9270820  12.9119660
 109.4830590  68.3834640  13.6777840 109.5003470  67.0327950  12.9942090
 111.4380140  81.0990420  17.0772850 111.3949770  80.7283330  17.9587310
 111.5691150  82.0367990  17.2174670 115.1386170  82.6550010  12.6782570
 114.8977530  82.9224570  11.7913090 116.0788810  82.8255740  12.7333430
 117.3440590  69.1182700  16.4339080 117.2829480  69.7104530  17.1834490
 118.2840970  69.0108660  16.2889340 110.5036410  67.4547020  16.1870430
 111.0519400  67.2735070  15.4236540 110.5691720  66.6641130  16.7226740
 111.2768170  84.0452670  14.1970630 110.6828490  83.9137370  14.9360670
 111.2692010  83.2090810  13.7312730 110.9080400  81.4111050  13.1478670
 110.1814460  80.7916340  13.0804620 110.9689550  81.8051660  12.2776750
 114.5125500  83.6256050   9.9328080 115.0290520  83.0143410   9.4076340
 115.1622880  84.1284830  10.4239090 117.2521000  84.5164540  10.7597060
 117.5398810  84.2618840   9.8830070 117.7644220  83.9641900  11.3502630
 118.4698010  68.2554740  11.3393570 117.6869800  68.7300240  11.6190330
 118.1760940  67.3509570  11.2306750 109.1910400  84.7285440   6.3575430
 109.0232440  84.0956120   7.0557320 108.3244910  84.9344840   6.0069620
 109.8138420  68.5602220   3.8607290 110.5717780  68.6731100   3.2871320
 109.3515590  69.3971420   3.8150720 116.3552230  70.6741490   6.8509600
 115.5426740  70.2998380   6.5105480 116.8593870  69.9186570   7.1530790
 110.7973100  83.4218670   3.8025570 110.2720720  83.8026700   3.0987530
 110.7217680  84.0469440   4.5235280 112.1863570  69.0866270   2.4009260
 112.7156330  68.2996070   2.2717210 112.8191890  69.7657460   2.6344790
 114.3801410  68.8241410   5.4554650 113.7504150  68.1228720   5.6224780
 113.8406550  69.5845540   5.2387810 117.3193360  85.4380640  18.1265260
 118.2460670  85.2024910  18.1701220 117.3043790  86.2652640  17.6451290
 114.5056970  68.1025390  17.8907140 114.2241240  68.6058990  17.1267960
 114.8876670  67.3047140  17.5249270 113.3966070  85.3701050   2.6774820
 114.1284890  85.0860330   2.1298710 113.6559740  85.1314330   3.5674200
 112.5580860  81.4865780   2.6821150 111.9289740  81.9550880   3.2306980
 112.6728690  80.6415000   3.1167340 120.0130580  56.7627950 101.4783290
 119.9324630  55.8482560 101.2075000 119.5995000  57.2595020 100.7723000
 118.1448620  58.5406970 103.3592560 117.3690720  58.0607410 103.6491130
 118.7961550  57.8612620 103.1848720 112.1614450  58.8526780 104.2368320
 111.3299330  58.5975490 104.6364830 112.7695430  58.9237550 104.9726240
 112.1415710  62.8866870 104.4326340 112.4443750  61.9964610 104.2536560
 112.8859300  63.4437090 104.2048590 110.5706400  53.8128670  98.0210710
 109.6823100  54.1544640  97.9190590 110.8547590  53.6128990  97.1291540
 108.5339410  56.4134320 103.9050410 109.1055520  55.6456520 103.9054050
 108.5340950  56.7123080 102.9957020 118.3919360  65.2325170 101.7595680
 117.7730800  65.6882670 101.1890120 119.2471140  65.3876630 101.3585380
 117.5857610  61.2164160 103.3662720 117.5165890  60.2754100 103.2051850
 118.3477470  61.3065570 103.9385290 109.7764280  51.8218680 105.6919340
 109.5967120  50.9244430 105.9722100 109.3744360  52.3690550 106.3666290
 118.6162780  54.0234540 103.5931650 118.9927600  53.1506420 103.4805320
 118.5182290  54.3593240 102.7022090 112.7467790  52.3960170  99.0549090
 112.8534540  53.2963900  99.3617850 111.8360150  52.3478140  98.7643740
 110.3950950  54.3179180 104.3001680 111.0761060  54.5817550 104.9189080
 110.0799000  53.4780050 104.6339690 114.5875520  55.3646540 103.3874270
 115.0953740  55.8627510 104.0279290 115.1188760  54.5881740 103.2113630
 112.8711620  50.0045100 107.6537690 112.8730060  50.5217490 106.8483590
 112.0415930  49.5275280 107.6307620 119.2582710  60.1164410  99.1527590
 118.6399980  60.5813860  98.5890310 119.7705960  60.8091890  99.5697100
 114.1214470  59.6440280 105.8311190 113.7883850  60.2709200 106.4732260
 114.2981150  60.1702160 105.0512860 112.5526950  51.7155060 105.6608140
 112.8943760  52.5597110 105.3662010 111.6142760  51.8638800 105.7773480
 113.3333570  61.6121080 107.6460370 113.9507570  62.2872160 107.3644820
 112.4726690  62.0209060 107.5547870 108.6265910  60.8020940  96.5267220
 108.2493890  61.2908040  95.7952120 108.8838980  61.4746220  97.1573750
 116.2354840  49.2037330 101.9852730 116.5429820  48.6484220 101.2688230
 115.3055540  49.3381790 101.8025720 118.6235600  57.2686160  98.7212850
 117.6964880  57.2023540  98.9501320 118.7760420  58.2066290  98.6068090
 118.6104680  53.5403160  95.7180010 117.6708350  53.7017120  95.8032470
 118.9287940  54.2588840  95.1716000 114.2292240  57.7950900 101.5032580
 113.8249240  57.0828150 101.0078480 114.3155360  57.4504140 102.3920620
 114.6973940  61.4818460 103.6671790 114.4002230  60.8763930 102.9879570
 115.6473760  61.5195770 103.5561150 112.9420860  54.5694110 105.2831620
 113.4935450  54.6789450 104.5084870 113.4564370  54.9431710 105.9986850
 113.7892370  61.2200150 110.3179590 112.8920900  61.4440120 110.5652990
 113.8145240  61.3435090 109.3690990 112.6163590  58.0913470 108.8936960
 112.4771360  58.9636270 109.2624360 111.7344950  57.7486280 108.7484900
 118.9392970  63.0089340 100.2002090 119.3788880  63.7513670  99.7857480
 118.8779860  63.2515910 101.1241050 110.9296870  56.6895880  99.0039230
 110.8094470  57.4157970  98.3920500 110.6197760  55.9198790  98.5267140
 108.5682240  59.8611020 104.8107870 108.6462660  59.9959790 103.8663590
 109.1823920  59.1526910 105.0035990 109.8129870  61.5611210 101.2214050
 109.4057950  61.7025800 100.3667650 110.7042880  61.2771370 101.0185260
 119.6308750  65.7103120 108.1281100 120.1453420  65.6211130 108.9303530
 118.7877830  66.0562820 108.4209010 114.0851530  65.7756990  99.3336720
 113.9094010  64.8592530  99.1204520 113.2307270  66.1344280  99.5734520
 108.6241760  60.9025190 107.3502330 108.7872800  60.4330550 106.5321700
 109.0894210  60.3948750 108.0151170 113.3960530  50.0330950 102.3862900
 112.9528680  50.8140490 102.0547420 113.9545520  50.3560840 103.0933840
 117.6830340  52.8999470 107.9898220 117.2209710  53.1082490 108.8018160
 117.2808450  52.0858820 107.6868890 116.5119350  49.6541650  97.2668730
 115.8873530  49.6501520  97.9922040 116.4249470  48.7872610  96.8704700
 115.4336430  50.5778280 104.2452500 115.7308760  51.4841110 104.1644520
 115.9821990  50.0897060 103.6312070 113.1874750  55.1564520 100.1144150
 112.9615670  54.9401690 101.0190770 112.4067280  55.5892980  99.7690120
 115.6273960  56.0550100 110.7804420 115.5317560  55.1144830 110.6304820
 116.4705940  56.2765170 110.3852490 119.0237380  53.7991430 100.7438080
 119.4166950  54.1163630  99.9306770 119.3854230  52.9203310 100.8582600
 110.7584500  52.4663770 108.9338200 110.3647890  53.3138980 109.1410980
 110.0702900  51.8290140 109.1246840 108.0601550  50.3892230 102.9668280
 107.7714600  50.9595090 103.6793260 108.8047310  49.9096680 103.3299510
 108.2471780  54.3312350  94.1771000 108.1646450  55.2743110  94.3185990
 107.8954840  54.1887260  93.2983350 119.6092520  56.3897180 104.8388860
 118.8773640  56.8983990 105.1878960 119.2116860  55.5727160 104.5377640
 116.0469910  53.0651380 103.2441350 116.0505970  52.6241330 102.3945890
 116.9421030  53.3868710 103.3513170 111.8972290  52.9477870 102.2035560
 111.5572340  53.4253100 102.9602610 111.1349610  52.4942990 101.8436660
 116.1090060  54.0663460  96.2348110 116.2302880  54.0249940  97.1833930
 115.7238570  54.9287610  96.0794840 120.0718430  51.8430860 104.2511800
 120.0891170  52.2939510 105.0953650 119.8234010  50.9436500 104.4645240
 115.1211560  56.3764600  95.6331410 114.5528460  55.9282850  95.0067320
 115.8300560  56.7357380  95.0996560 110.1980740  60.2776620 109.5098140
 109.8135530  59.6370290 110.1081100 110.5092930  60.9812740 110.0792870
 116.3477880  57.1253160 104.9906760 116.7148010  56.6511730 105.7368100
 116.1582940  57.9994730 105.3315100 109.2118370  51.8696850 101.1200230
 108.9265290  51.5052520 101.9578850 109.1497230  51.1377310 100.5063370
 114.1377250  56.1661800 107.3090970 113.8334320  57.0453780 107.5341330
 115.0923710  56.2261590 107.3448410 112.6659040  60.3722790  97.9057820
 111.8921300  59.8320410  97.7456540 113.3953670  59.8529400  97.5675580
 118.8856960  50.7626110  97.8413600 118.0721570  50.2639280  97.7658910
 118.6918910  51.6024360  97.4249950 118.8065820  59.4397210 109.5853210
 118.7403130  58.5192880 109.3310800 118.1770960  59.5372650 110.2997850
 112.7096440  60.0403170 101.5436630 113.2275110  59.2371430 101.4893520
 112.2580460  59.9782310 102.3853460 117.5965940  61.3069450  96.8163930
 117.9381640  62.0511680  96.3207250 116.7678650  61.6200570  97.1788760
 110.1940980  57.0064540 108.4562330 109.8355920  57.6718390 109.0435670
 109.8995540  56.1748090 108.8274950 118.7382550  62.2617780 109.3357010
 118.7527090  61.3298740 109.1175920 118.0307650  62.3477540 109.9746780
 116.5656630  61.3882980  99.5879850 117.2527760  61.9352190  99.9687440
 115.7789050  61.9323710  99.6229460 108.7049030  57.0055800  95.0796930
 109.5743880  57.2880600  95.3632850 108.2139350  57.8191670  94.9645740
 115.8683840  58.3929010  99.2005210 116.3246620  59.2034260  99.4265400
 115.5172050  58.0752150 100.0323700 118.1716450  63.9035350 106.4297510
 118.8158670  64.1094730 107.1070930 118.5345890  63.1423750 105.9768360
 111.7695620  48.7366660  99.6727730 111.6410250  48.7284560 100.6212650
 110.9457640  49.0749750  99.3218740 119.4448530  61.9067700 105.1474960
 120.0870760  61.2060860 105.2607130 119.9697880  62.6866140 104.9671850
 109.0720280  66.2183180  95.6458560 109.4317920  66.8172520  94.9915830
 108.9312620  66.7643070  96.4193590 108.7689550  50.4957780 109.1334430
 108.0548070  50.6954700 109.7387040 109.1884590  49.7197350 109.5049230
 109.0562140  64.4838040 110.1200960 109.1653260  63.5432780 109.9796350
 108.4042700  64.7492790 109.4714690 115.0888900  63.6014380  96.4632230
 115.0799000  64.3344070  95.8476740 114.1687260  63.3545960  96.5559190
 110.6895540  58.8229270  97.2078990 110.0823490  59.5628170  97.2174290
 111.1644890  58.9128630  96.3817190 118.0748500  63.6642620  95.1257420
 118.1760480  63.4606610  94.1959400 117.1750240  63.4100900  95.3305200
 115.5974390  54.2222980  99.1081320 114.8890540  54.6909320  99.5494930
 115.8818870  53.5644990  99.7426510 117.2230320  55.6419680 107.1073850
 117.7215570  56.1165500 107.7725700 117.3653270  54.7183200 107.3143880
 116.7166610  66.1828940  99.8205090 116.9708110  66.1450330  98.8984460
 115.7679090  66.0562270  99.8133340 113.8009410  52.5308060  96.4832030
 114.6499940  52.9678210  96.4172220 113.4340680  52.8428320  97.3104090
 112.7000830  58.7840420  94.9567560 113.4664100  58.6721780  95.5192990
 112.7775520  58.0878390  94.3044330 111.3947590  56.2165490  95.6400450
 111.4751180  55.2693000  95.7517850 112.2867340  56.5472370  95.7461110
 112.1962300  66.3660880 102.7434990 112.9324780  65.8176340 103.0143560
 112.5803220  67.2316890 102.6040980 109.0807780  62.4334450  98.6176500
 108.1547560  62.6755590  98.6081910 109.5464210  63.2608710  98.4961250
 115.3064610  65.5391190  94.5660560 116.0993220  65.8280020  94.1142350
 114.7868960  65.1083360  93.8873040 115.8242010  60.7594600  94.4302910
 115.7192650  60.1446950  95.1564290 115.6566230  60.2360490  93.6465920
 115.9756330  59.4451400 110.4092140 115.2102000  60.0136400 110.3246810
 116.1572290  59.1527610 109.5160370 119.0644740  59.8214630  95.0344900
 118.5154840  60.2683930  95.6787640 119.6864000  59.3163880  95.5582570
 114.7319860  58.7805550  96.9310200 115.1536280  58.6145420  97.7741590
 114.8570700  57.9705780  96.4365340 112.8947280  54.7602100 109.7381180
 112.3643740  54.2693050 109.1104520 113.5635350  55.1886300 109.2039110
 117.2447500  57.8043160  94.1787300 117.7653160  57.0892180  93.8128450
 117.8915900  58.4429030  94.4787810 113.3819580  51.7264470 109.8178470
 113.2876450  51.1085220 109.0929340 112.8016970  52.4530760 109.5908380
 116.1481020  50.2837710 106.8505860 115.6998320  50.3061970 106.0051410
 115.5146220  49.8856730 107.4476160 116.5540570  59.1792040 107.4718300
 116.9728680  60.0224770 107.2994540 115.6349200  59.3164080 107.2425080
 118.8904470  56.9108220 108.8556140 119.0100680  56.3149360 109.5950980
 119.7498470  56.9477910 108.4357440 113.6278760  54.8538780  93.8768360
 113.4267820  53.9906140  94.2381700 113.4570810  54.7672140  92.9389960
 114.4047990  65.4845050 108.5876030 113.8669080  66.2091110 108.2684730
 114.6581950  65.0075390 107.7973370 115.6573240  53.4529570 110.1131960
 116.2472930  53.1445420 110.8009780 114.8393480  52.9809320 110.2691860
 112.4261560  51.9539400  93.8646240 112.7287460  51.9606830  92.9565390
 113.1656150  51.6037260  94.3613900 117.2610200  66.7196260 108.8462680
 117.1868900  67.6231400 109.1535050 116.3589040  66.4008160 108.8184750
 115.6446490  50.8974020  94.8502440 115.2968490  50.2198010  94.2704890
 115.8459260  50.4363530  95.6645830 117.8095530  65.8854770  96.4689040
 118.7046320  66.2239740  96.4907800 117.8413160  65.1634180  95.8413320
 111.4491690  61.2581820  94.6976040 111.8866560  61.8011490  95.3533620
 111.9339420  60.4328770  94.7072380 108.6637490  64.0470850 102.1496300
 108.9940500  63.1791910 101.9174940 109.0928490  64.2529370 102.9801260
 113.2599410  62.3779860  99.8098270 112.9594950  62.2544830 100.7102180
 113.1536900  61.5188450  99.4014000 109.1527700  64.9141440 104.8877930
 108.7158690  65.0942240 105.7202080 109.7205380  65.6716060 104.7459650
 108.9852130  57.4261670 101.2466810 108.3300970  57.1573310 100.6026510
 109.8230080  57.3166150 100.7968790 110.0228060  57.8114240 105.7870150
 110.3901100  57.7241640 106.6666170 109.4538880  57.0480790 105.6877010
 109.5744060  54.7223330 109.6928570 108.6800110  54.6890090 110.0322280
 110.1141610  54.9210120 110.4579820 108.1990210  54.6360600  97.1892140
 107.2954290  54.8990800  97.0143800 108.6830830  54.9071770  96.4092100
 110.7417420  53.6926140  95.0986520 111.4509120  53.2709360  94.6133800
 110.0257360  53.7601370  94.4669870 110.3891580  49.7465470  94.1389170
 111.1119710  50.2874410  94.4570390 110.6616100  49.4728890  93.2630710
 110.0783770  48.9971660 104.0411790 110.7259960  48.4469040 103.6006950
 110.4985610  49.2514810 104.8627600 109.8315770  49.1527330 106.7837110
 109.4830590  49.6091150 107.5495290 109.5003470  48.2584460 106.8659540
 115.1386170  63.8806520 106.5500020 114.8977530  64.1481080 105.6630540
 116.0788810  64.0512250 106.6050880 110.5036410  48.6803530 110.0587880
 111.0519400  48.4991580 109.2953990 110.5691720  47.8897640 110.5944190
 111.2768170  65.2709180 108.0688080 110.6828490  65.1393880 108.8078120
 111.2692010  64.4347320 107.6030180 110.9080400  62.6367560 107.0196120
 110.1814460  62.0172850 106.9522070 110.9689550  63.0308170 106.1494200
 114.5125500  64.8512560 103.8045530 115.0290520  64.2399920 103.2793790
 115.1622880  65.3541340 104.2956540 117.2521000  65.7421050 104.6314510
 117.5398810  65.4875350 103.7547520 117.7644220  65.1898410 105.2220080
 118.4698010  49.4811250 105.2111020 117.6869800  49.9556750 105.4907780
 118.1760940  48.5766080 105.1024200 109.1910400  65.9541950 100.2292880
 109.0232440  65.3212630 100.9274770 108.3244910  66.1601350  99.8787070
 109.8138420  49.7858730  97.7324740 110.5717780  49.8987610  97.1588770
 109.3515590  50.6227930  97.6868170 116.3552230  51.8998000 100.7227050
 115.5426740  51.5254890 100.3822930 116.8593870  51.1443080 101.0248240
 110.7973100  64.6475180  97.6743020 110.2720720  65.0283210  96.9704980
 110.7217680  65.2725950  98.3952730 112.1863570  50.3122780  96.2726710
 112.7156330  49.5252580  96.1434660 112.8191890  50.9913970  96.5062240
 114.3801410  50.0497920  99.3272100 113.7504150  49.3485230  99.4942230
 113.8406550  50.8102050  99.1105260 113.3966070  66.5957560  96.5492270
 114.1284890  66.3116840  96.0016160 113.6559740  66.3570840  97.4391650
 112.5580860  62.7122290  96.5538600 111.9289740  63.1807390  97.1024430
 112.6728690  61.8671510  96.9884790 120.0130580  56.7627950  82.7039800
 119.9324630  55.8482560  82.4331510 119.5995000  57.2595020  81.9979510
 118.1448620  58.5406970  84.5849070 117.3690720  58.0607410  84.8747640
 118.7961550  57.8612620  84.4105230 112.1614450  58.8526780  85.4624830
 111.3299330  58.5975490  85.8621340 112.7695430  58.9237550  86.1982750
 112.1415710  62.8866870  85.6582850 112.4443750  61.9964610  85.4793070
 112.8859300  63.4437090  85.4305100 110.5706400  53.8128670  79.2467220
 109.6823100  54.1544640  79.1447100 110.8547590  53.6128990  78.3548050
 108.5339410  56.4134320  85.1306920 109.1055520  55.6456520  85.1310560
 108.5340950  56.7123080  84.2213530 118.3919360  65.2325170  82.9852190
 117.7730800  65.6882670  82.4146630 119.2471140  65.3876630  82.5841890
 117.5857610  61.2164160  84.5919230 117.5165890  60.2754100  84.4308360
 118.3477470  61.3065570  85.1641800 109.7764280  51.8218680  86.9175850
 109.5967120  50.9244430  87.1978610 109.3744360  52.3690550  87.5922800
 118.6162780  54.0234540  84.8188160 118.9927600  53.1506420  84.7061830
 118.5182290  54.3593240  83.9278600 112.7467790  52.3960170  80.2805600
 112.8534540  53.2963900  80.5874360 111.8360150  52.3478140  79.9900250
 110.3950950  54.3179180  85.5258190 111.0761060  54.5817550  86.1445590
 110.0799000  53.4780050  85.8596200 114.5875520  55.3646540  84.6130780
 115.0953740  55.8627510  85.2535800 115.1188760  54.5881740  84.4370140
 112.8711620  50.0045100  88.8794200 112.8730060  50.5217490  88.0740100
 112.0415930  49.5275280  88.8564130 119.2582710  60.1164410  80.3784100
 118.6399980  60.5813860  79.8146820 119.7705960  60.8091890  80.7953610
 114.1214470  59.6440280  87.0567700 113.7883850  60.2709200  87.6988770
 114.2981150  60.1702160  86.2769370 112.5526950  51.7155060  86.8864650
 112.8943760  52.5597110  86.5918520 111.6142760  51.8638800  87.0029990
 113.3333570  61.6121080  88.8716880 113.9507570  62.2872160  88.5901330
 112.4726690  62.0209060  88.7804380 108.6265910  60.8020940  77.7523730
 108.2493890  61.2908040  77.0208630 108.8838980  61.4746220  78.3830260
 116.2354840  49.2037330  83.2109240 116.5429820  48.6484220  82.4944740
 115.3055540  49.3381790  83.0282230 118.6235600  57.2686160  79.9469360
 117.6964880  57.2023540  80.1757830 118.7760420  58.2066290  79.8324600
 118.6104680  53.5403160  76.9436520 117.6708350  53.7017120  77.0288980
 118.9287940  54.2588840  76.3972510 114.2292240  57.7950900  82.7289090
 113.8249240  57.0828150  82.2334990 114.3155360  57.4504140  83.6177130
 114.6973940  61.4818460  84.8928300 114.4002230  60.8763930  84.2136080
 115.6473760  61.5195770  84.7817660 112.9420860  54.5694110  86.5088130
 113.4935450  54.6789450  85.7341380 113.4564370  54.9431710  87.2243360
 113.7892370  61.2200150  91.5436100 112.8920900  61.4440120  91.7909500
 113.8145240  61.3435090  90.5947500 112.6163590  58.0913470  90.1193470
 112.4771360  58.9636270  90.4880870 111.7344950  57.7486280  89.9741410
 118.9392970  63.0089340  81.4258600 119.3788880  63.7513670  81.0113990
 118.8779860  63.2515910  82.3497560 114.4143940  64.0335170  92.3278620
 114.3859370  64.4378120  91.4607050 114.2508910  63.1045530  92.1650220
 110.9296870  56.6895880  80.2295740 110.8094470  57.4157970  79.6177010
 110.6197760  55.9198790  79.7523650 108.5682240  59.8611020  86.0364380
 108.6462660  59.9959790  85.0920100 109.1823920  59.1526910  86.2292500
 109.8129870  61.5611210  82.4470560 109.4057950  61.7025800  81.5924160
 110.7042880  61.2771370  82.2441770 119.6308750  65.7103120  89.3537610
 120.1453420  65.6211130  90.1560040 118.7877830  66.0562820  89.6465520
 114.0851530  65.7756990  80.5593230 113.9094010  64.8592530  80.3461030
 113.2307270  66.1344280  80.7991030 108.6241760  60.9025190  88.5758840
 108.7872800  60.4330550  87.7578210 109.0894210  60.3948750  89.2407680
 113.3960530  50.0330950  83.6119410 112.9528680  50.8140490  83.2803930
 113.9545520  50.3560840  84.3190350 117.6830340  52.8999470  89.2154730
 117.2209710  53.1082490  90.0274670 117.2808450  52.0858820  88.9125400
 116.5119350  49.6541650  78.4925240 115.8873530  49.6501520  79.2178550
 116.4249470  48.7872610  78.0961210 115.4336430  50.5778280  85.4709010
 115.7308760  51.4841110  85.3901030 115.9821990  50.0897060  84.8568580
 113.1874750  55.1564520  81.3400660 112.9615670  54.9401690  82.2447280
 112.4067280  55.5892980  80.9946630 115.6273960  56.0550100  92.0060930
 115.5317560  55.1144830  91.8561330 116.4705940  56.2765170  91.6109000
 119.0237380  53.7991430  81.9694590 119.4166950  54.1163630  81.1563280
 119.3854230  52.9203310  82.0839110 110.7584500  52.4663770  90.1594710
 110.3647890  53.3138980  90.3667490 110.0702900  51.8290140  90.3503350
 117.3329550  52.5498740  93.2291450 116.6427870  52.3570940  93.8637540
 118.0761850  52.8333380  93.7615750 108.0601550  50.3892230  84.1924790
 107.7714600  50.9595090  84.9049770 108.8047310  49.9096680  84.5556020
 108.2471780  54.3312350  75.4027510 108.1646450  55.2743110  75.5442500
 107.8954840  54.1887260  74.5239860 119.6092520  56.3897180  86.0645370
 118.8773640  56.8983990  86.4135470 119.2116860  55.5727160  85.7634150
 116.0469910  53.0651380  84.4697860 116.0505970  52.6241330  83.6202400
 116.9421030  53.3868710  84.5769680 111.8972290  52.9477870  83.4292070
 111.5572340  53.4253100  84.1859120 111.1349610  52.4942990  83.0693170
 116.1090060  54.0663460  77.4604620 116.2302880  54.0249940  78.4090440
 115.7238570  54.9287610  77.3051350 120.0718430  51.8430860  85.4768310
 120.0891170  52.2939510  86.3210160 119.8234010  50.9436500  85.6901750
 115.1211560  56.3764600  76.8587920 114.5528460  55.9282850  76.2323830
 115.8300560  56.7357380  76.3253070 110.1980740  60.2776620  90.7354650
 109.8135530  59.6370290  91.3337610 110.5092930  60.9812740  91.3049380
 116.3477880  57.1253160  86.2163270 116.7148010  56.6511730  86.9624610
 116.1582940  57.9994730  86.5571610 109.2118370  51.8696850  82.3456740
 108.9265290  51.5052520  83.1835360 109.1497230  51.1377310  81.7319880
 114.1377250  56.1661800  88.5347480 113.8334320  57.0453780  88.7597840
 115.0923710  56.2261590  88.5704920 112.6659040  60.3722790  79.1314330
 111.8921300  59.8320410  78.9713050 113.3953670  59.8529400  78.7932090
 118.8856960  50.7626110  79.0670110 118.0721570  50.2639280  78.9915420
 118.6918910  51.6024360  78.6506460 118.8065820  59.4397210  90.8109720
 118.7403130  58.5192880  90.5567310 118.1770960  59.5372650  91.5254360
 112.7096440  60.0403170  82.7693140 113.2275110  59.2371430  82.7150030
 112.2580460  59.9782310  83.6109970 117.5965940  61.3069450  78.0420440
 117.9381640  62.0511680  77.5463760 116.7678650  61.6200570  78.4045270
 110.1940980  57.0064540  89.6818840 109.8355920  57.6718390  90.2692180
 109.8995540  56.1748090  90.0531460 113.3954100  57.4648780  92.5658390
 113.0954240  57.6105960  91.6686210 114.1665340  56.9054070  92.4731780
 118.7382550  62.2617780  90.5613520 118.7527090  61.3298740  90.3432430
 118.0307650  62.3477540  91.2003290 116.5656630  61.3882980  80.8136360
 117.2527760  61.9352190  81.1943950 115.7789050  61.9323710  80.8485970
 108.7049030  57.0055800  76.3053440 109.5743880  57.2880600  76.5889360
 108.2139350  57.8191670  76.1902250 115.8683840  58.3929010  80.4261720
 116.3246620  59.2034260  80.6521910 115.5172050  58.0752150  81.2580210
 118.1716450  63.9035350  87.6554020 118.8158670  64.1094730  88.3327440
 118.5345890  63.1423750  87.2024870 111.7695620  48.7366660  80.8984240
 111.6410250  48.7284560  81.8469160 110.9457640  49.0749750  80.5475250
 119.4448530  61.9067700  86.3731470 120.0870760  61.2060860  86.4863640
 119.9697880  62.6866140  86.1928360 109.0720280  66.2183180  76.8715070
 109.4317920  66.8172520  76.2172340 108.9312620  66.7643070  77.6450100
 108.7689550  50.4957780  90.3590940 108.0548070  50.6954700  90.9643550
 109.1884590  49.7197350  90.7305740 109.0562140  64.4838040  91.3457470
 109.1653260  63.5432780  91.2052860 108.4042700  64.7492790  90.6971200
 117.0474730  62.7553930  92.7455590 116.7271600  62.0363170  93.2901280
 116.3733090  63.4309000  92.8191650 115.0888900  63.6014380  77.6888740
 115.0799000  64.3344070  77.0733250 114.1687260  63.3545960  77.7815700
 110.6895540  58.8229270  78.4335500 110.0823490  59.5628170  78.4430800
 111.1644890  58.9128630  77.6073700 118.0748500  63.6642620  76.3513930
 118.1760480  63.4606610  75.4215910 117.1750240  63.4100900  76.5561710
 115.5974390  54.2222980  80.3337830 114.8890540  54.6909320  80.7751440
 115.8818870  53.5644990  80.9683020 117.2230320  55.6419680  88.3330360
 117.7215570  56.1165500  88.9982210 117.3653270  54.7183200  88.5400390
 116.7166610  66.1828940  81.0461600 116.9708110  66.1450330  80.1240970
 115.7679090  66.0562270  81.0389850 113.8009410  52.5308060  77.7088540
 114.6499940  52.9678210  77.6428730 113.4340680  52.8428320  78.5360600
 112.7000830  58.7840420  76.1824070 113.4664100  58.6721780  76.7449500
 112.7775520  58.0878390  75.5300840 111.3947590  56.2165490  76.8656960
 111.4751180  55.2693000  76.9774360 112.2867340  56.5472370  76.9717620
 112.1962300  66.3660880  83.9691500 112.9324780  65.8176340  84.2400070
 112.5803220  67.2316890  83.8297490 109.0807780  62.4334450  79.8433010
 108.1547560  62.6755590  79.8338420 109.5464210  63.2608710  79.7217760
 111.2020580  65.5506950  93.1577080 112.0033310  65.8719000  93.5712480
 110.6872400  65.1902530  93.8796990 115.3064610  65.5391190  75.7917070
 116.0993220  65.8280020  75.3398860 114.7868960  65.1083360  75.1129550
 120.0385210  61.6586820  93.1052490 119.4323370  61.6818420  92.3648240
 119.7339320  60.9269860  93.6419740 108.9218390  58.0380410  92.1013130
 109.4257410  57.4587690  92.6729360 108.1825810  58.3220640  92.6389500
 115.8242010  60.7594600  75.6559420 115.7192650  60.1446950  76.3820800
 115.6566230  60.2360490  74.8722430 115.9756330  59.4451400  91.6348650
 115.2102000  60.0136400  91.5503320 116.1572290  59.1527610  90.7416880
 119.0644740  59.8214630  76.2601410 118.5154840  60.2683930  76.9044150
 119.6864000  59.3163880  76.7839080 110.9541470  56.1810000  92.9963200
 110.9946810  55.8823870  93.9048430 111.8086970  56.5817610  92.8370720
 114.7319860  58.7805550  78.1566710 115.1536280  58.6145420  78.9998100
 114.8570700  57.9705780  77.6621850 112.8947280  54.7602100  90.9637690
 112.3643740  54.2693050  90.3361030 113.5635350  55.1886300  90.4295620
 117.2447500  57.8043160  75.4043810 117.7653160  57.0892180  75.0384960
 117.8915900  58.4429030  75.7044320 113.3819580  51.7264470  91.0434980
 113.2876450  51.1085220  90.3185850 112.8016970  52.4530760  90.8164890
 116.1481020  50.2837710  88.0762370 115.6998320  50.3061970  87.2307920
 115.5146220  49.8856730  88.6732670 116.5540570  59.1792040  88.6974810
 116.9728680  60.0224770  88.5251050 115.6349200  59.3164080  88.4681590
 118.8904470  56.9108220  90.0812650 119.0100680  56.3149360  90.8207490
 119.7498470  56.9477910  89.6613950 113.6278760  54.8538780  75.1024870
 113.4267820  53.9906140  75.4638210 113.4570810  54.7672140  74.1646470
 114.4047990  65.4845050  89.8132540 113.8669080  66.2091110  89.4941240
 114.6581950  65.0075390  89.0229880 115.6573240  53.4529570  91.3388470
 116.2472930  53.1445420  92.0266290 114.8393480  52.9809320  91.4948370
 112.4261560  51.9539400  75.0902750 112.7287460  51.9606830  74.1821900
 113.1656150  51.6037260  75.5870410 117.2610200  66.7196260  90.0719190
 117.1868900  67.6231400  90.3791560 116.3589040  66.4008160  90.0441260
 115.6446490  50.8974020  76.0758950 115.2968490  50.2198010  75.4961400
 115.8459260  50.4363530  76.8902340 117.8095530  65.8854770  77.6945550
 118.7046320  66.2239740  77.7164310 117.8413160  65.1634180  77.0669830
 111.4491690  61.2581820  75.9232550 111.8866560  61.8011490  76.5790130
 111.9339420  60.4328770  75.9328890 108.6637490  64.0470850  83.3752810
 108.9940500  63.1791910  83.1431450 109.0928490  64.2529370  84.2057770
 113.2599410  62.3779860  81.0354780 112.9594950  62.2544830  81.9358690
 113.1536900  61.5188450  80.6270510 109.1527700  64.9141440  86.1134440
 108.7158690  65.0942240  86.9458590 109.7205380  65.6716060  85.9716160
 108.9852130  57.4261670  82.4723320 108.3300970  57.1573310  81.8283020
 109.8230080  57.3166150  82.0225300 110.0228060  57.8114240  87.0126660
 110.3901100  57.7241640  87.8922680 109.4538880  57.0480790  86.9133520
 109.5744060  54.7223330  90.9185080 108.6800110  54.6890090  91.2578790
 110.1141610  54.9210120  91.6836330 108.1990210  54.6360600  78.4148650
 107.2954290  54.8990800  78.2400310 108.6830830  54.9071770  77.6348610
 110.7417420  53.6926140  76.3243030 111.4509120  53.2709360  75.8390310
 110.0257360  53.7601370  75.6926380 110.3891580  49.7465470  75.3645680
 111.1119710  50.2874410  75.6826900 110.6616100  49.4728890  74.4887220
 110.0783770  48.9971660  85.2668300 110.7259960  48.4469040  84.8263460
 110.4985610  49.2514810  86.0884110 109.8315770  49.1527330  88.0093620
 109.4830590  49.6091150  88.7751800 109.5003470  48.2584460  88.0916050
 111.4380140  62.3246930  92.1746810 111.3949770  61.9539840  93.0561270
 111.5691150  63.2624500  92.3148630 115.1386170  63.8806520  87.7756530
 114.8977530  64.1481080  86.8887050 116.0788810  64.0512250  87.8307390
 117.3440590  50.3439210  91.5313040 117.2829480  50.9361040  92.2808450
 118.2840970  50.2365170  91.3863300 110.5036410  48.6803530  91.2844390
 111.0519400  48.4991580  90.5210500 110.5691720  47.8897640  91.8200700
 111.2768170  65.2709180  89.2944590 110.6828490  65.1393880  90.0334630
 111.2692010  64.4347320  88.8286690 110.9080400  62.6367560  88.2452630
 110.1814460  62.0172850  88.1778580 110.9689550  63.0308170  87.3750710
 114.5125500  64.8512560  85.0302040 115.0290520  64.2399920  84.5050300
 115.1622880  65.3541340  85.5213050 117.2521000  65.7421050  85.8571020
 117.5398810  65.4875350  84.9804030 117.7644220  65.1898410  86.4476590
 118.4698010  49.4811250  86.4367530 117.6869800  49.9556750  86.7164290
 118.1760940  48.5766080  86.3280710 109.1910400  65.9541950  81.4549390
 109.0232440  65.3212630  82.1531280 108.3244910  66.1601350  81.1043580
 109.8138420  49.7858730  78.9581250 110.5717780  49.8987610  78.3845280
 109.3515590  50.6227930  78.9124680 116.3552230  51.8998000  81.9483560
 115.5426740  51.5254890  81.6079440 116.8593870  51.1443080  82.2504750
 110.7973100  64.6475180  78.8999530 110.2720720  65.0283210  78.1961490
 110.7217680  65.2725950  79.6209240 112.1863570  50.3122780  77.4983220
 112.7156330  49.5252580  77.3691170 112.8191890  50.9913970  77.7318750
 114.3801410  50.0497920  80.5528610 113.7504150  49.3485230  80.7198740
 113.8406550  50.8102050  80.3361770 117.3193360  66.6637150  93.2239220
 118.2460670  66.4281420  93.2675180 117.3043790  67.4909150  92.7425250
 114.5056970  49.3281900  92.9881100 114.2241240  49.8315500  92.2241920
 114.8876670  48.5303650  92.6223230 113.3966070  66.5957560  77.7748780
 114.1284890  66.3116840  77.2272670 113.6559740  66.3570840  78.6648160
 112.5580860  62.7122290  77.7795110 111.9289740  63.1807390  78.3280940
 112.6728690  61.8671510  78.2141300 120.0130580  56.7627950  63.9296310
 119.9324630  55.8482560  63.6588020 119.5995000  57.2595020  63.2236020
 118.1448620  58.5406970  65.8105580 117.3690720  58.0607410  66.1004150
 118.7961550  57.8612620  65.6361740 112.1614450  58.8526780  66.6881340
 111.3299330  58.5975490  67.0877850 112.7695430  58.9237550  67.4239260
 112.1415710  62.8866870  66.8839360 112.4443750  61.9964610  66.7049580
 112.8859300  63.4437090  66.6561610 110.5706400  53.8128670  60.4723730
 109.6823100  54.1544640  60.3703610 110.8547590  53.6128990  59.5804560
 108.5339410  56.4134320  66.3563430 109.1055520  55.6456520  66.3567070
 108.5340950  56.7123080  65.4470040 118.3919360  65.2325170  64.2108700
 117.7730800  65.6882670  63.6403140 119.2471140  65.3876630  63.8098400
 117.5857610  61.2164160  65.8175740 117.5165890  60.2754100  65.6564870
 118.3477470  61.3065570  66.3898310 109.7764280  51.8218680  68.1432360
 109.5967120  50.9244430  68.4235120 109.3744360  52.3690550  68.8179310
 118.6162780  54.0234540  66.0444670 118.9927600  53.1506420  65.9318340
 118.5182290  54.3593240  65.1535110 112.7467790  52.3960170  61.5062110
 112.8534540  53.2963900  61.8130870 111.8360150  52.3478140  61.2156760
 110.3950950  54.3179180  66.7514700 111.0761060  54.5817550  67.3702100
 110.0799000  53.4780050  67.0852710 114.5875520  55.3646540  65.8387290
 115.0953740  55.8627510  66.4792310 115.1188760  54.5881740  65.6626650
 112.8711620  50.0045100  70.1050710 112.8730060  50.5217490  69.2996610
 112.0415930  49.5275280  70.0820640 119.2582710  60.1164410  61.6040610
 118.6399980  60.5813860  61.0403330 119.7705960  60.8091890  62.0210120
 114.1214470  59.6440280  68.2824210 113.7883850  60.2709200  68.9245280
 114.2981150  60.1702160  67.5025880 112.5526950  51.7155060  68.1121160
 112.8943760  52.5597110  67.8175030 111.6142760  51.8638800  68.2286500
 113.3333570  61.6121080  70.0973390 113.9507570  62.2872160  69.8157840
 112.4726690  62.0209060  70.0060890 108.6265910  60.8020940  58.9780240
 108.2493890  61.2908040  58.2465140 108.8838980  61.4746220  59.6086770
 116.2354840  49.2037330  64.4365750 116.5429820  48.6484220  63.7201250
 115.3055540  49.3381790  64.2538740 118.6235600  57.2686160  61.1725870
 117.6964880  57.2023540  61.4014340 118.7760420  58.2066290  61.0581110
 118.6104680  53.5403160  58.1693030 117.6708350  53.7017120  58.2545490
 118.9287940  54.2588840  57.6229020 114.2292240  57.7950900  63.9545600
 113.8249240  57.0828150  63.4591500 114.3155360  57.4504140  64.8433640
 114.6973940  61.4818460  66.1184810 114.4002230  60.8763930  65.4392590
 115.6473760  61.5195770  66.0074170 112.9420860  54.5694110  67.7344640
 113.4935450  54.6789450  66.9597890 113.4564370  54.9431710  68.4499870
 113.7892370  61.2200150  72.7692610 112.8920900  61.4440120  73.0166010
 113.8145240  61.3435090  71.8204010 112.6163590  58.0913470  71.3449980
 112.4771360  58.9636270  71.7137380 111.7344950  57.7486280  71.1997920
 118.9392970  63.0089340  62.6515110 119.3788880  63.7513670  62.2370500
 118.8779860  63.2515910  63.5754070 114.4143940  64.0335170  73.5535130
 114.3859370  64.4378120  72.6863560 114.2508910  63.1045530  73.3906730
 110.9296870  56.6895880  61.4552250 110.8094470  57.4157970  60.8433520
 110.6197760  55.9198790  60.9780160 108.5682240  59.8611020  67.2620890
 108.6462660  59.9959790  66.3176610 109.1823920  59.1526910  67.4549010
 109.8129870  61.5611210  63.6727070 109.4057950  61.7025800  62.8180670
 110.7042880  61.2771370  63.4698280 119.6308750  65.7103120  70.5794120
 120.1453420  65.6211130  71.3816550 118.7877830  66.0562820  70.8722030
 114.0851530  65.7756990  61.7849740 113.9094010  64.8592530  61.5717540
 113.2307270  66.1344280  62.0247540 108.6241760  60.9025190  69.8015350
 108.7872800  60.4330550  68.9834720 109.0894210  60.3948750  70.4664190
 113.3960530  50.0330950  64.8375920 112.9528680  50.8140490  64.5060440
 113.9545520  50.3560840  65.5446860 117.6830340  52.8999470  70.4411240
 117.2209710  53.1082490  71.2531180 117.2808450  52.0858820  70.1381910
 116.5119350  49.6541650  59.7181750 115.8873530  49.6501520  60.4435060
 116.4249470  48.7872610  59.3217720 115.4336430  50.5778280  66.6965520
 115.7308760  51.4841110  66.6157540 115.9821990  50.0897060  66.0825090
 113.1874750  55.1564520  62.5657170 112.9615670  54.9401690  63.4703790
 112.4067280  55.5892980  62.2203140 115.6273960  56.0550100  73.2317440
 115.5317560  55.1144830  73.0817840 116.4705940  56.2765170  72.8365510
 119.0237380  53.7991430  63.1951100 119.4166950  54.1163630  62.3819790
 119.3854230  52.9203310  63.3095620 110.7584500  52.4663770  71.3851220
 110.3647890  53.3138980  71.5924000 110.0702900  51.8290140  71.5759860
 117.3329550  52.5498740  74.4547960 116.6427870  52.3570940  75.0894050
 118.0761850  52.8333380  74.9872260 108.0601550  50.3892230  65.4181300
 107.7714600  50.9595090  66.1306280 108.8047310  49.9096680  65.7812530
 119.6092520  56.3897180  67.2901880 118.8773640  56.8983990  67.6391980
 119.2116860  55.5727160  66.9890660 116.0469910  53.0651380  65.6954370
 116.0505970  52.6241330  64.8458910 116.9421030  53.3868710  65.8026190
 111.8972290  52.9477870  64.6548580 111.5572340  53.4253100  65.4115630
 111.1349610  52.4942990  64.2949680 116.1090060  54.0663460  58.6861130
 116.2302880  54.0249940  59.6346950 115.7238570  54.9287610  58.5307860
 120.0718430  51.8430860  66.7024820 120.0891170  52.2939510  67.5466670
 119.8234010  50.9436500  66.9158260 115.1211560  56.3764600  58.0844430
 114.5528460  55.9282850  57.4580340 115.8300560  56.7357380  57.5509580
 110.1980740  60.2776620  71.9611160 109.8135530  59.6370290  72.5594120
 110.5092930  60.9812740  72.5305890 116.3477880  57.1253160  67.4419780
 116.7148010  56.6511730  68.1881120 116.1582940  57.9994730  67.7828120
 109.2118370  51.8696850  63.5713250 108.9265290  51.5052520  64.4091870
 109.1497230  51.1377310  62.9576390 114.1377250  56.1661800  69.7603990
 113.8334320  57.0453780  69.9854350 115.0923710  56.2261590  69.7961430
 112.6659040  60.3722790  60.3570840 111.8921300  59.8320410  60.1969560
 113.3953670  59.8529400  60.0188600 118.8856960  50.7626110  60.2926620
 118.0721570  50.2639280  60.2171930 118.6918910  51.6024360  59.8762970
 118.8065820  59.4397210  72.0366230 118.7403130  58.5192880  71.7823820
 118.1770960  59.5372650  72.7510870 112.7096440  60.0403170  63.9949650
 113.2275110  59.2371430  63.9406540 112.2580460  59.9782310  64.8366480
 117.5965940  61.3069450  59.2676950 117.9381640  62.0511680  58.7720270
 116.7678650  61.6200570  59.6301780 110.1940980  57.0064540  70.9075350
 109.8355920  57.6718390  71.4948690 109.8995540  56.1748090  71.2787970
 113.3954100  57.4648780  73.7914900 113.0954240  57.6105960  72.8942720
 114.1665340  56.9054070  73.6988290 118.7382550  62.2617780  71.7870030
 118.7527090  61.3298740  71.5688940 118.0307650  62.3477540  72.4259800
 116.5656630  61.3882980  62.0392870 117.2527760  61.9352190  62.4200460
 115.7789050  61.9323710  62.0742480 115.8683840  58.3929010  61.6518230
 116.3246620  59.2034260  61.8778420 115.5172050  58.0752150  62.4836720
 118.1716450  63.9035350  68.8810530 118.8158670  64.1094730  69.5583950
 118.5345890  63.1423750  68.4281380 111.7695620  48.7366660  62.1240750
 111.6410250  48.7284560  63.0725670 110.9457640  49.0749750  61.7731760
 119.4448530  61.9067700  67.5987980 120.0870760  61.2060860  67.7120150
 119.9697880  62.6866140  67.4184870 109.0720280  66.2183180  58.0971580
 109.4317920  66.8172520  57.4428850 108.9312620  66.7643070  58.8706610
 108.7689550  50.4957780  71.5847450 108.0548070  50.6954700  72.1900060
 109.1884590  49.7197350  71.9562250 109.0562140  64.4838040  72.5713980
 109.1653260  63.5432780  72.4309370 108.4042700  64.7492790  71.9227710
 117.0474730  62.7553930  73.9712100 116.7271600  62.0363170  74.5157790
 116.3733090  63.4309000  74.0448160 115.0888900  63.6014380  58.9145250
 115.0799000  64.3344070  58.2989760 114.1687260  63.3545960  59.0072210
 110.6895540  58.8229270  59.6592010 110.0823490  59.5628170  59.6687310
 111.1644890  58.9128630  58.8330210 118.0748500  63.6642620  57.5770440
 118.1760480  63.4606610  56.6472420 117.1750240  63.4100900  57.7818220
 115.5974390  54.2222980  61.5594340 114.8890540  54.6909320  62.0007950
 115.8818870  53.5644990  62.1939530 117.2230320  55.6419680  69.5586870
 117.7215570  56.1165500  70.2238720 117.3653270  54.7183200  69.7656900
 116.7166610  66.1828940  62.2718110 116.9708110  66.1450330  61.3497480
 115.7679090  66.0562270  62.2646360 113.8009410  52.5308060  58.9345050
 114.6499940  52.9678210  58.8685240 113.4340680  52.8428320  59.7617110
 112.7000830  58.7840420  57.4080580 113.4664100  58.6721780  57.9706010
 112.7775520  58.0878390  56.7557350 112.1962300  66.3660880  65.1948010
 112.9324780  65.8176340  65.4656580 112.5803220  67.2316890  65.0554000
 109.0807780  62.4334450  61.0689520 108.1547560  62.6755590  61.0594930
 109.5464210  63.2608710  60.9474270 111.2020580  65.5506950  74.3833590
 112.0033310  65.8719000  74.7968990 110.6872400  65.1902530  75.1053500
 115.3064610  65.5391190  57.0173580 116.0993220  65.8280020  56.5655370
 114.7868960  65.1083360  56.3386060 120.0385210  61.6586820  74.3309000
 119.4323370  61.6818420  73.5904750 119.7339320  60.9269860  74.8676250
 108.9218390  58.0380410  73.3269640 109.4257410  57.4587690  73.8985870
 108.1825810  58.3220640  73.8646010 115.8242010  60.7594600  56.8815930
 115.7192650  60.1446950  57.6077310 115.6566230  60.2360490  56.0978940
 115.9756330  59.4451400  72.8605160 115.2102000  60.0136400  72.7759830
 116.1572290  59.1527610  71.9673390 119.0644740  59.8214630  57.4857920
 118.5154840  60.2683930  58.1300660 119.6864000  59.3163880  58.0095590
 110.9541470  56.1810000  74.2219710 110.9946810  55.8823870  75.1304940
 111.8086970  56.5817610  74.0627230 114.7319860  58.7805550  59.3823220
 115.1536280  58.6145420  60.2254610 114.8570700  57.9705780  58.8878360
 112.8947280  54.7602100  72.1894200 112.3643740  54.2693050  71.5617540
 113.5635350  55.1886300  71.6552130 117.2447500  57.8043160  56.6300320
 117.7653160  57.0892180  56.2641470 117.8915900  58.4429030  56.9300830
 113.3819580  51.7264470  72.2691490 113.2876450  51.1085220  71.5442360
 112.8016970  52.4530760  72.0421400 116.1481020  50.2837710  69.3018880
 115.6998320  50.3061970  68.4564430 115.5146220  49.8856730  69.8989180
 116.5540570  59.1792040  69.9231320 116.9728680  60.0224770  69.7507560
 115.6349200  59.3164080  69.6938100 118.8904470  56.9108220  71.3069160
 119.0100680  56.3149360  72.0464000 119.7498470  56.9477910  70.8870460
 113.6278760  54.8538780  56.3281380 113.4267820  53.9906140  56.6894720
 113.4570810  54.7672140  55.3902980 114.4047990  65.4845050  71.0389050
 113.8669080  66.2091110  70.7197750 114.6581950  65.0075390  70.2486390
 115.6573240  53.4529570  72.5644980 116.2472930  53.1445420  73.2522800
 114.8393480  52.9809320  72.7204880 112.4261560  51.9539400  56.3159260
 112.7287460  51.9606830  55.4078410 113.1656150  51.6037260  56.8126920
 117.2610200  66.7196260  71.2975700 117.1868900  67.6231400  71.6048070
 116.3589040  66.4008160  71.2697770 115.6446490  50.8974020  57.3015460
 115.2968490  50.2198010  56.7217910 115.8459260  50.4363530  58.1158850
 117.8095530  65.8854770  58.9202060 118.7046320  66.2239740  58.9420820
 117.8413160  65.1634180  58.2926340 111.4491690  61.2581820  57.1489060
 111.8866560  61.8011490  57.8046640 111.9339420  60.4328770  57.1585400
 108.6637490  64.0470850  64.6009320 108.9940500  63.1791910  64.3687960
 109.0928490  64.2529370  65.4314280 113.2599410  62.3779860  62.2611290
 112.9594950  62.2544830  63.1615200 113.1536900  61.5188450  61.8527020
 109.1527700  64.9141440  67.3390950 108.7158690  65.0942240  68.1715100
 109.7205380  65.6716060  67.1972670 110.0228060  57.8114240  68.2383170
 110.3901100  57.7241640  69.1179190 109.4538880  57.0480790  68.1390030
 109.5744060  54.7223330  72.1441590 108.6800110  54.6890090  72.4835300
 110.1141610  54.9210120  72.9092840 110.3891580  49.7465470  56.5902190
 111.1119710  50.2874410  56.9083410 110.6616100  49.4728890  55.7143730
 110.0783770  48.9971660  66.4924810 110.7259960  48.4469040  66.0519970
 110.4985610  49.2514810  67.3140620 109.8315770  49.1527330  69.2350130
 109.4830590  49.6091150  70.0008310 109.5003470  48.2584460  69.3172560
 111.4380140  62.3246930  73.4003320 111.3949770  61.9539840  74.2817780
 111.5691150  63.2624500  73.5405140 115.1386170  63.8806520  69.0013040
 114.8977530  64.1481080  68.1143560 116.0788810  64.0512250  69.0563900
 117.3440590  50.3439210  72.7569550 117.2829480  50.9361040  73.5064960
 118.2840970  50.2365170  72.6119810 110.5036410  48.6803530  72.5100900
 111.0519400  48.4991580  71.7467010 110.5691720  47.8897640  73.0457210
 111.2768170  65.2709180  70.5201100 110.6828490  65.1393880  71.2591140
 111.2692010  64.4347320  70.0543200 110.9080400  62.6367560  69.4709140
 110.1814460  62.0172850  69.4035090 110.9689550  63.0308170  68.6007220
 114.5125500  64.8512560  66.2558550 115.0290520  64.2399920  65.7306810
 115.1622880  65.3541340  66.7469560 117.2521000  65.7421050  67.0827530
 117.5398810  65.4875350  66.2060540 117.7644220  65.1898410  67.6733100
 118.4698010  49.4811250  67.6624040 117.6869800  49.9556750  67.9420800
 118.1760940  48.5766080  67.5537220 109.1910400  65.9541950  62.6805900
 109.0232440  65.3212630  63.3787790 108.3244910  66.1601350  62.3300090
 109.8138420  49.7858730  60.1837760 110.5717780  49.8987610  59.6101790
 109.3515590  50.6227930  60.1381190 116.3552230  51.8998000  63.1740070
 115.5426740  51.5254890  62.8335950 116.8593870  51.1443080  63.4761260
 110.7973100  64.6475180  60.1256040 110.2720720  65.0283210  59.4218000
 110.7217680  65.2725950  60.8465750 112.1863570  50.3122780  58.7239730
 112.7156330  49.5252580  58.5947680 112.8191890  50.9913970  58.9575260
 114.3801410  50.0497920  61.7785120 113.7504150  49.3485230  61.9455250
 113.8406550  50.8102050  61.5618280 117.3193360  66.6637150  74.4495730
 118.2460670  66.4281420  74.4931690 117.3043790  67.4909150  73.9681760
 114.5056970  49.3281900  74.2137610 114.2241240  49.8315500  73.4498430
 114.8876670  48.5303650  73.8479740 113.3966070  66.5957560  59.0005290
 114.1284890  66.3116840  58.4529180 113.6559740  66.3570840  59.8904670
 112.5580860  62.7122290  59.0051620 111.9289740  63.1807390  59.5537450
 112.6728690  61.8671510  59.4397810 120.0130580  56.7627950  45.1552820
 119.9324630  55.8482560  44.8844530 119.5995000  57.2595020  44.4492530
 118.1448620  58.5406970  47.0362090 117.3690720  58.0607410  47.3260660
 118.7961550  57.8612620  46.8618250 112.1614450  58.8526780  47.9137850
 111.3299330  58.5975490  48.3134360 112.7695430  58.9237550  48.6495770
 112.1415710  62.8866870  48.1095870 112.4443750  61.9964610  47.9306090
 112.8859300  63.4437090  47.8818120 110.5706400  53.8128670  41.6980240
 109.6823100  54.1544640  41.5960120 110.8547590  53.6128990  40.8061070
 108.5339410  56.4134320  47.5819940 109.1055520  55.6456520  47.5823580
 108.5340950  56.7123080  46.6726550 118.3919360  65.2325170  45.4365210
 117.7730800  65.6882670  44.8659650 119.2471140  65.3876630  45.0354910
 117.5857610  61.2164160  47.0432250 117.5165890  60.2754100  46.8821380
 118.3477470  61.3065570  47.6154820 109.7764280  51.8218680  49.3688870
 109.5967120  50.9244430  49.6491630 109.3744360  52.3690550  50.0435820
 118.6162780  54.0234540  47.2701180 118.9927600  53.1506420  47.1574850
 118.5182290  54.3593240  46.3791620 112.7467790  52.3960170  42.7318620
 112.8534540  53.2963900  43.0387380 111.8360150  52.3478140  42.4413270
 110.3950950  54.3179180  47.9771210 111.0761060  54.5817550  48.5958610
 110.0799000  53.4780050  48.3109220 114.5875520  55.3646540  47.0643800
 115.0953740  55.8627510  47.7048820 115.1188760  54.5881740  46.8883160
 112.8711620  50.0045100  51.3307220 112.8730060  50.5217490  50.5253120
 112.0415930  49.5275280  51.3077150 119.2582710  60.1164410  42.8297120
 118.6399980  60.5813860  42.2659840 119.7705960  60.8091890  43.2466630
 114.1214470  59.6440280  49.5080720 113.7883850  60.2709200  50.1501790
 114.2981150  60.1702160  48.7282390 112.5526950  51.7155060  49.3377670
 112.8943760  52.5597110  49.0431540 111.6142760  51.8638800  49.4543010
 113.3333570  61.6121080  51.3229900 113.9507570  62.2872160  51.0414350
 112.4726690  62.0209060  51.2317400 108.6265910  60.8020940  40.2036750
 108.2493890  61.2908040  39.4721650 108.8838980  61.4746220  40.8343280
 116.2354840  49.2037330  45.6622260 116.5429820  48.6484220  44.9457760
 115.3055540  49.3381790  45.4795250 118.6235600  57.2686160  42.3982380
 117.6964880  57.2023540  42.6270850 118.7760420  58.2066290  42.2837620
 118.6104680  53.5403160  39.3949540 117.6708350  53.7017120  39.4802000
 118.9287940  54.2588840  38.8485530 114.2292240  57.7950900  45.1802110
 113.8249240  57.0828150  44.6848010 114.3155360  57.4504140  46.0690150
 114.6973940  61.4818460  47.3441320 114.4002230  60.8763930  46.6649100
 115.6473760  61.5195770  47.2330680 112.9420860  54.5694110  48.9601150
 113.4935450  54.6789450  48.1854400 113.4564370  54.9431710  49.6756380
 113.7892370  61.2200150  53.9949120 112.8920900  61.4440120  54.2422520
 113.8145240  61.3435090  53.0460520 112.6163590  58.0913470  52.5706490
 112.4771360  58.9636270  52.9393890 111.7344950  57.7486280  52.4254430
 118.9392970  63.0089340  43.8771620 119.3788880  63.7513670  43.4627010
 118.8779860  63.2515910  44.8010580 114.4143940  64.0335170  54.7791640
 114.3859370  64.4378120  53.9120070 114.2508910  63.1045530  54.6163240
 110.9296870  56.6895880  42.6808760 110.8094470  57.4157970  42.0690030
 110.6197760  55.9198790  42.2036670 108.5682240  59.8611020  48.4877400
 108.6462660  59.9959790  47.5433120 109.1823920  59.1526910  48.6805520
 109.8129870  61.5611210  44.8983580 109.4057950  61.7025800  44.0437180
 110.7042880  61.2771370  44.6954790 119.6308750  65.7103120  51.8050630
 120.1453420  65.6211130  52.6073060 118.7877830  66.0562820  52.0978540
 114.0851530  65.7756990  43.0106250 113.9094010  64.8592530  42.7974050
 113.2307270  66.1344280  43.2504050 108.6241760  60.9025190  51.0271860
 108.7872800  60.4330550  50.2091230 109.0894210  60.3948750  51.6920700
 113.3960530  50.0330950  46.0632430 112.9528680  50.8140490  45.7316950
 113.9545520  50.3560840  46.7703370 117.6830340  52.8999470  51.6667750
 117.2209710  53.1082490  52.4787690 117.2808450  52.0858820  51.3638420
 116.5119350  49.6541650  40.9438260 115.8873530  49.6501520  41.6691570
 116.4249470  48.7872610  40.5474230 115.4336430  50.5778280  47.9222030
 115.7308760  51.4841110  47.8414050 115.9821990  50.0897060  47.3081600
 113.1874750  55.1564520  43.7913680 112.9615670  54.9401690  44.6960300
 112.4067280  55.5892980  43.4459650 115.6273960  56.0550100  54.4573950
 115.5317560  55.1144830  54.3074350 116.4705940  56.2765170  54.0622020
 119.0237380  53.7991430  44.4207610 119.4166950  54.1163630  43.6076300
 119.3854230  52.9203310  44.5352130 110.7584500  52.4663770  52.6107730
 110.3647890  53.3138980  52.8180510 110.0702900  51.8290140  52.8016370
 117.3329550  52.5498740  55.6804470 116.6427870  52.3570940  56.3150560
 118.0761850  52.8333380  56.2128770 108.0601550  50.3892230  46.6437810
 107.7714600  50.9595090  47.3562790 108.8047310  49.9096680  47.0069040
 108.2471780  54.3312350  37.8540530 108.1646450  55.2743110  37.9955520
 107.8954840  54.1887260  36.9752880 119.6092520  56.3897180  48.5158390
 118.8773640  56.8983990  48.8648490 119.2116860  55.5727160  48.2147170
 116.0469910  53.0651380  46.9210880 116.0505970  52.6241330  46.0715420
 116.9421030  53.3868710  47.0282700 111.8972290  52.9477870  45.8805090
 111.5572340  53.4253100  46.6372140 111.1349610  52.4942990  45.5206190
 116.1090060  54.0663460  39.9117640 116.2302880  54.0249940  40.8603460
 115.7238570  54.9287610  39.7564370 120.0718430  51.8430860  47.9281330
 120.0891170  52.2939510  48.7723180 119.8234010  50.9436500  48.1414770
 115.1211560  56.3764600  39.3100940 114.5528460  55.9282850  38.6836850
 115.8300560  56.7357380  38.7766090 110.1980740  60.2776620  53.1867670
 109.8135530  59.6370290  53.7850630 110.5092930  60.9812740  53.7562400
 116.3477880  57.1253160  48.6676290 116.7148010  56.6511730  49.4137630
 116.1582940  57.9994730  49.0084630 109.2118370  51.8696850  44.7969760
 108.9265290  51.5052520  45.6348380 109.1497230  51.1377310  44.1832900
 114.1377250  56.1661800  50.9860500 113.8334320  57.0453780  51.2110860
 115.0923710  56.2261590  51.0217940 112.6659040  60.3722790  41.5827350
 111.8921300  59.8320410  41.4226070 113.3953670  59.8529400  41.2445110
 118.8856960  50.7626110  41.5183130 118.0721570  50.2639280  41.4428440
 118.6918910  51.6024360  41.1019480 118.8065820  59.4397210  53.2622740
 118.7403130  58.5192880  53.0080330 118.1770960  59.5372650  53.9767380
 112.7096440  60.0403170  45.2206160 113.2275110  59.2371430  45.1663050
 112.2580460  59.9782310  46.0622990 117.5965940  61.3069450  40.4933460
 117.9381640  62.0511680  39.9976780 116.7678650  61.6200570  40.8558290
 110.1940980  57.0064540  52.1331860 109.8355920  57.6718390  52.7205200
 109.8995540  56.1748090  52.5044480 113.3954100  57.4648780  55.0171410
 113.0954240  57.6105960  54.1199230 114.1665340  56.9054070  54.9244800
 118.7382550  62.2617780  53.0126540 118.7527090  61.3298740  52.7945450
 118.0307650  62.3477540  53.6516310 116.5656630  61.3882980  43.2649380
 117.2527760  61.9352190  43.6456970 115.7789050  61.9323710  43.2998990
 108.7049030  57.0055800  38.7566460 109.5743880  57.2880600  39.0402380
 108.2139350  57.8191670  38.6415270 115.8683840  58.3929010  42.8774740
 116.3246620  59.2034260  43.1034930 115.5172050  58.0752150  43.7093230
 118.1716450  63.9035350  50.1067040 118.8158670  64.1094730  50.7840460
 118.5345890  63.1423750  49.6537890 111.7695620  48.7366660  43.3497260
 111.6410250  48.7284560  44.2982180 110.9457640  49.0749750  42.9988270
 119.4448530  61.9067700  48.8244490 120.0870760  61.2060860  48.9376660
 119.9697880  62.6866140  48.6441380 109.0720280  66.2183180  39.3228090
 109.4317920  66.8172520  38.6685360 108.9312620  66.7643070  40.0963120
 108.7689550  50.4957780  52.8103960 108.0548070  50.6954700  53.4156570
 109.1884590  49.7197350  53.1818760 109.0562140  64.4838040  53.7970490
 109.1653260  63.5432780  53.6565880 108.4042700  64.7492790  53.1484220
 117.0474730  62.7553930  55.1968610 116.7271600  62.0363170  55.7414300
 116.3733090  63.4309000  55.2704670 115.0888900  63.6014380  40.1401760
 115.0799000  64.3344070  39.5246270 114.1687260  63.3545960  40.2328720
 110.6895540  58.8229270  40.8848520 110.0823490  59.5628170  40.8943820
 111.1644890  58.9128630  40.0586720 118.0748500  63.6642620  38.8026950
 118.1760480  63.4606610  37.8728930 117.1750240  63.4100900  39.0074730
 115.5974390  54.2222980  42.7850850 114.8890540  54.6909320  43.2264460
 115.8818870  53.5644990  43.4196040 117.2230320  55.6419680  50.7843380
 117.7215570  56.1165500  51.4495230 117.3653270  54.7183200  50.9913410
 116.7166610  66.1828940  43.4974620 116.9708110  66.1450330  42.5753990
 115.7679090  66.0562270  43.4902870 113.8009410  52.5308060  40.1601560
 114.6499940  52.9678210  40.0941750 113.4340680  52.8428320  40.9873620
 112.7000830  58.7840420  38.6337090 113.4664100  58.6721780  39.1962520
 112.7775520  58.0878390  37.9813860 111.3947590  56.2165490  39.3169980
 111.4751180  55.2693000  39.4287380 112.2867340  56.5472370  39.4230640
 112.1962300  66.3660880  46.4204520 112.9324780  65.8176340  46.6913090
 112.5803220  67.2316890  46.2810510 109.0807780  62.4334450  42.2946030
 108.1547560  62.6755590  42.2851440 109.5464210  63.2608710  42.1730780
 111.2020580  65.5506950  55.6090100 112.0033310  65.8719000  56.0225500
 110.6872400  65.1902530  56.3310010 115.3064610  65.5391190  38.2430090
 116.0993220  65.8280020  37.7911880 114.7868960  65.1083360  37.5642570
 120.0385210  61.6586820  55.5565510 119.4323370  61.6818420  54.8161260
 119.7339320  60.9269860  56.0932760 115.8242010  60.7594600  38.1072440
 115.7192650  60.1446950  38.8333820 115.6566230  60.2360490  37.3235450
 115.9756330  59.4451400  54.0861670 115.2102000  60.0136400  54.0016340
 116.1572290  59.1527610  53.1929900 119.0644740  59.8214630  38.7114430
 118.5154840  60.2683930  39.3557170 119.6864000  59.3163880  39.2352100
 114.7319860  58.7805550  40.6079730 115.1536280  58.6145420  41.4511120
 114.8570700  57.9705780  40.1134870 112.8947280  54.7602100  53.4150710
 112.3643740  54.2693050  52.7874050 113.5635350  55.1886300  52.8808640
 117.2447500  57.8043160  37.8556830 117.7653160  57.0892180  37.4897980
 117.8915900  58.4429030  38.1557340 113.3819580  51.7264470  53.4948000
 113.2876450  51.1085220  52.7698870 112.8016970  52.4530760  53.2677910
 116.1481020  50.2837710  50.5275390 115.6998320  50.3061970  49.6820940
 115.5146220  49.8856730  51.1245690 116.5540570  59.1792040  51.1487830
 116.9728680  60.0224770  50.9764070 115.6349200  59.3164080  50.9194610
 118.8904470  56.9108220  52.5325670 119.0100680  56.3149360  53.2720510
 119.7498470  56.9477910  52.1126970 113.6278760  54.8538780  37.5537890
 113.4267820  53.9906140  37.9151230 113.4570810  54.7672140  36.6159490
 114.4047990  65.4845050  52.2645560 113.8669080  66.2091110  51.9454260
 114.6581950  65.0075390  51.4742900 115.6573240  53.4529570  53.7901490
 116.2472930  53.1445420  54.4779310 114.8393480  52.9809320  53.9461390
 112.4261560  51.9539400  37.5415770 112.7287460  51.9606830  36.6334920
 113.1656150  51.6037260  38.0383430 117.2610200  66.7196260  52.5232210
 117.1868900  67.6231400  52.8304580 116.3589040  66.4008160  52.4954280
 115.6446490  50.8974020  38.5271970 115.2968490  50.2198010  37.9474420
 115.8459260  50.4363530  39.3415360 117.8095530  65.8854770  40.1458570
 118.7046320  66.2239740  40.1677330 117.8413160  65.1634180  39.5182850
 111.4491690  61.2581820  38.3745570 111.8866560  61.8011490  39.0303150
 111.9339420  60.4328770  38.3841910 108.6637490  64.0470850  45.8265830
 108.9940500  63.1791910  45.5944470 109.0928490  64.2529370  46.6570790
 113.2599410  62.3779860  43.4867800 112.9594950  62.2544830  44.3871710
 113.1536900  61.5188450  43.0783530 109.1527700  64.9141440  48.5647460
 108.7158690  65.0942240  49.3971610 109.7205380  65.6716060  48.4229180
 108.9852130  57.4261670  44.9236340 108.3300970  57.1573310  44.2796040
 109.8230080  57.3166150  44.4738320 110.0228060  57.8114240  49.4639680
 110.3901100  57.7241640  50.3435700 109.4538880  57.0480790  49.3646540
 108.1990210  54.6360600  40.8661670 107.2954290  54.8990800  40.6913330
 108.6830830  54.9071770  40.0861630 110.7417420  53.6926140  38.7756050
 111.4509120  53.2709360  38.2903330 110.0257360  53.7601370  38.1439400
 110.3891580  49.7465470  37.8158700 111.1119710  50.2874410  38.1339920
 110.6616100  49.4728890  36.9400240 110.0783770  48.9971660  47.7181320
 110.7259960  48.4469040  47.2776480 110.4985610  49.2514810  48.5397130
 109.8315770  49.1527330  50.4606640 109.4830590  49.6091150  51.2264820
 109.5003470  48.2584460  50.5429070 111.4380140  62.3246930  54.6259830
 111.3949770  61.9539840  55.5074290 111.5691150  63.2624500  54.7661650
 115.1386170  63.8806520  50.2269550 114.8977530  64.1481080  49.3400070
 116.0788810  64.0512250  50.2820410 117.3440590  50.3439210  53.9826060
 117.2829480  50.9361040  54.7321470 118.2840970  50.2365170  53.8376320
 110.5036410  48.6803530  53.7357410 111.0519400  48.4991580  52.9723520
 110.5691720  47.8897640  54.2713720 111.2768170  65.2709180  51.7457610
 110.6828490  65.1393880  52.4847650 111.2692010  64.4347320  51.2799710
 110.9080400  62.6367560  50.6965650 110.1814460  62.0172850  50.6291600
 110.9689550  63.0308170  49.8263730 114.5125500  64.8512560  47.4815060
 115.0290520  64.2399920  46.9563320 115.1622880  65.3541340  47.9726070
 117.2521000  65.7421050  48.3084040 117.5398810  65.4875350  47.4317050
 117.7644220  65.1898410  48.8989610 118.4698010  49.4811250  48.8880550
 117.6869800  49.9556750  49.1677310 118.1760940  48.5766080  48.7793730
 109.1910400  65.9541950  43.9062410 109.0232440  65.3212630  44.6044300
 108.3244910  66.1601350  43.5556600 109.8138420  49.7858730  41.4094270
 110.5717780  49.8987610  40.8358300 109.3515590  50.6227930  41.3637700
 116.3552230  51.8998000  44.3996580 115.5426740  51.5254890  44.0592460
 116.8593870  51.1443080  44.7017770 110.7973100  64.6475180  41.3512550
 110.2720720  65.0283210  40.6474510 110.7217680  65.2725950  42.0722260
 112.1863570  50.3122780  39.9496240 112.7156330  49.5252580  39.8204190
 112.8191890  50.9913970  40.1831770 114.3801410  50.0497920  43.0041630
 113.7504150  49.3485230  43.1711760 113.8406550  50.8102050  42.7874790
 117.3193360  66.6637150  55.6752240 118.2460670  66.4281420  55.7188200
 117.3043790  67.4909150  55.1938270 114.5056970  49.3281900  55.4394120
 114.2241240  49.8315500  54.6754940 114.8876670  48.5303650  55.0736250
 113.3966070  66.5957560  40.2261800 114.1284890  66.3116840  39.6785690
 113.6559740  66.3570840  41.1161180 112.5580860  62.7122290  40.2308130
 111.9289740  63.1807390  40.7793960 112.6728690  61.8671510  40.6654320
 120.0130580  56.7627950  26.3809330 119.9324630  55.8482560  26.1101040
 119.5995000  57.2595020  25.6749040 118.1448620  58.5406970  28.2618600
 117.3690720  58.0607410  28.5517170 118.7961550  57.8612620  28.0874760
 112.1614450  58.8526780  29.1394360 111.3299330  58.5975490  29.5390870
 112.7695430  58.9237550  29.8752280 112.1415710  62.8866870  29.3352380
 112.4443750  61.9964610  29.1562600 112.8859300  63.4437090  29.1074630
 110.5706400  53.8128670  22.9236750 109.6823100  54.1544640  22.8216630
 110.8547590  53.6128990  22.0317580 108.5339410  56.4134320  28.8076450
 109.1055520  55.6456520  28.8080090 108.5340950  56.7123080  27.8983060
 118.3919360  65.2325170  26.6621720 117.7730800  65.6882670  26.0916160
 119.2471140  65.3876630  26.2611420 117.5857610  61.2164160  28.2688760
 117.5165890  60.2754100  28.1077890 118.3477470  61.3065570  28.8411330
 109.7764280  51.8218680  30.5945380 109.5967120  50.9244430  30.8748140
 109.3744360  52.3690550  31.2692330 118.6162780  54.0234540  28.4957690
 118.9927600  53.1506420  28.3831360 118.5182290  54.3593240  27.6048130
 112.7467790  52.3960170  23.9575130 112.8534540  53.2963900  24.2643890
 111.8360150  52.3478140  23.6669780 110.3950950  54.3179180  29.2027720
 111.0761060  54.5817550  29.8215120 110.0799000  53.4780050  29.5365730
 114.5875520  55.3646540  28.2900310 115.0953740  55.8627510  28.9305330
 115.1188760  54.5881740  28.1139670 112.8711620  50.0045100  32.5563730
 112.8730060  50.5217490  31.7509630 112.0415930  49.5275280  32.5333660
 119.2582710  60.1164410  24.0553630 118.6399980  60.5813860  23.4916350
 119.7705960  60.8091890  24.4723140 114.1214470  59.6440280  30.7337230
 113.7883850  60.2709200  31.3758300 114.2981150  60.1702160  29.9538900
 112.5526950  51.7155060  30.5634180 112.8943760  52.5597110  30.2688050
 111.6142760  51.8638800  30.6799520 113.3333570  61.6121080  32.5486410
 113.9507570  62.2872160  32.2670860 112.4726690  62.0209060  32.4573910
 108.6265910  60.8020940  21.4293260 108.2493890  61.2908040  20.6978160
 108.8838980  61.4746220  22.0599790 116.2354840  49.2037330  26.8878770
 116.5429820  48.6484220  26.1714270 115.3055540  49.3381790  26.7051760
 118.6235600  57.2686160  23.6238890 117.6964880  57.2023540  23.8527360
 118.7760420  58.2066290  23.5094130 118.6104680  53.5403160  20.6206050
 117.6708350  53.7017120  20.7058510 118.9287940  54.2588840  20.0742040
 114.2292240  57.7950900  26.4058620 113.8249240  57.0828150  25.9104520
 114.3155360  57.4504140  27.2946660 114.6973940  61.4818460  28.5697830
 114.4002230  60.8763930  27.8905610 115.6473760  61.5195770  28.4587190
 112.9420860  54.5694110  30.1857660 113.4935450  54.6789450  29.4110910
 113.4564370  54.9431710  30.9012890 113.7892370  61.2200150  35.2205630
 112.8920900  61.4440120  35.4679030 113.8145240  61.3435090  34.2717030
 112.6163590  58.0913470  33.7963000 112.4771360  58.9636270  34.1650400
 111.7344950  57.7486280  33.6510940 118.9392970  63.0089340  25.1028130
 119.3788880  63.7513670  24.6883520 118.8779860  63.2515910  26.0267090
 114.4143940  64.0335170  36.0048150 114.3859370  64.4378120  35.1376580
 114.2508910  63.1045530  35.8419750 110.9296870  56.6895880  23.9065270
 110.8094470  57.4157970  23.2946540 110.6197760  55.9198790  23.4293180
 108.5682240  59.8611020  29.7133910 108.6462660  59.9959790  28.7689630
 109.1823920  59.1526910  29.9062030 109.8129870  61.5611210  26.1240090
 109.4057950  61.7025800  25.2693690 110.7042880  61.2771370  25.9211300
 119.6308750  65.7103120  33.0307140 120.1453420  65.6211130  33.8329570
 118.7877830  66.0562820  33.3235050 114.0851530  65.7756990  24.2362760
 113.9094010  64.8592530  24.0230560 113.2307270  66.1344280  24.4760560
 108.6241760  60.9025190  32.2528370 108.7872800  60.4330550  31.4347740
 109.0894210  60.3948750  32.9177210 113.3960530  50.0330950  27.2888940
 112.9528680  50.8140490  26.9573460 113.9545520  50.3560840  27.9959880
 117.6830340  52.8999470  32.8924260 117.2209710  53.1082490  33.7044200
 117.2808450  52.0858820  32.5894930 116.5119350  49.6541650  22.1694770
 115.8873530  49.6501520  22.8948080 116.4249470  48.7872610  21.7730740
 115.4336430  50.5778280  29.1478540 115.7308760  51.4841110  29.0670560
 115.9821990  50.0897060  28.5338110 113.1874750  55.1564520  25.0170190
 112.9615670  54.9401690  25.9216810 112.4067280  55.5892980  24.6716160
 115.6273960  56.0550100  35.6830460 115.5317560  55.1144830  35.5330860
 116.4705940  56.2765170  35.2878530 119.0237380  53.7991430  25.6464120
 119.4166950  54.1163630  24.8332810 119.3854230  52.9203310  25.7608640
 110.7584500  52.4663770  33.8364240 110.3647890  53.3138980  34.0437020
 110.0702900  51.8290140  34.0272880 117.3329550  52.5498740  36.9060980
 116.6427870  52.3570940  37.5407070 118.0761850  52.8333380  37.4385280
 108.0601550  50.3892230  27.8694320 107.7714600  50.9595090  28.5819300
 108.8047310  49.9096680  28.2325550 108.2471780  54.3312350  19.0797040
 108.1646450  55.2743110  19.2212030 107.8954840  54.1887260  18.2009390
 119.6092520  56.3897180  29.7414900 118.8773640  56.8983990  30.0905000
 119.2116860  55.5727160  29.4403680 116.0469910  53.0651380  28.1467390
 116.0505970  52.6241330  27.2971930 116.9421030  53.3868710  28.2539210
 111.8972290  52.9477870  27.1061600 111.5572340  53.4253100  27.8628650
 111.1349610  52.4942990  26.7462700 116.1090060  54.0663460  21.1374150
 116.2302880  54.0249940  22.0859970 115.7238570  54.9287610  20.9820880
 120.0718430  51.8430860  29.1537840 120.0891170  52.2939510  29.9979690
 119.8234010  50.9436500  29.3671280 115.1211560  56.3764600  20.5357450
 114.5528460  55.9282850  19.9093360 115.8300560  56.7357380  20.0022600
 110.1980740  60.2776620  34.4124180 109.8135530  59.6370290  35.0107140
 110.5092930  60.9812740  34.9818910 116.3477880  57.1253160  29.8932800
 116.7148010  56.6511730  30.6394140 116.1582940  57.9994730  30.2341140
 109.2118370  51.8696850  26.0226270 108.9265290  51.5052520  26.8604890
 109.1497230  51.1377310  25.4089410 114.1377250  56.1661800  32.2117010
 113.8334320  57.0453780  32.4367370 115.0923710  56.2261590  32.2474450
 112.6659040  60.3722790  22.8083860 111.8921300  59.8320410  22.6482580
 113.3953670  59.8529400  22.4701620 118.8856960  50.7626110  22.7439640
 118.0721570  50.2639280  22.6684950 118.6918910  51.6024360  22.3275990
 118.8065820  59.4397210  34.4879250 118.7403130  58.5192880  34.2336840
 118.1770960  59.5372650  35.2023890 112.7096440  60.0403170  26.4462670
 113.2275110  59.2371430  26.3919560 112.2580460  59.9782310  27.2879500
 117.5965940  61.3069450  21.7189970 117.9381640  62.0511680  21.2233290
 116.7678650  61.6200570  22.0814800 110.1940980  57.0064540  33.3588370
 109.8355920  57.6718390  33.9461710 109.8995540  56.1748090  33.7300990
 113.3954100  57.4648780  36.2427920 113.0954240  57.6105960  35.3455740
 114.1665340  56.9054070  36.1501310 118.7382550  62.2617780  34.2383050
 118.7527090  61.3298740  34.0201960 118.0307650  62.3477540  34.8772820
 116.5656630  61.3882980  24.4905890 117.2527760  61.9352190  24.8713480
 115.7789050  61.9323710  24.5255500 108.7049030  57.0055800  19.9822970
 109.5743880  57.2880600  20.2658890 108.2139350  57.8191670  19.8671780
 115.8683840  58.3929010  24.1031250 116.3246620  59.2034260  24.3291440
 115.5172050  58.0752150  24.9349740 118.1716450  63.9035350  31.3323550
 118.8158670  64.1094730  32.0096970 118.5345890  63.1423750  30.8794400
 111.7695620  48.7366660  24.5753770 111.6410250  48.7284560  25.5238690
 110.9457640  49.0749750  24.2244780 119.4448530  61.9067700  30.0501000
 120.0870760  61.2060860  30.1633170 119.9697880  62.6866140  29.8697890
 109.0720280  66.2183180  20.5484600 109.4317920  66.8172520  19.8941870
 108.9312620  66.7643070  21.3219630 108.7689550  50.4957780  34.0360470
 108.0548070  50.6954700  34.6413080 109.1884590  49.7197350  34.4075270
 109.0562140  64.4838040  35.0227000 109.1653260  63.5432780  34.8822390
 108.4042700  64.7492790  34.3740730 117.0474730  62.7553930  36.4225120
 116.7271600  62.0363170  36.9670810 116.3733090  63.4309000  36.4961180
 115.0888900  63.6014380  21.3658270 115.0799000  64.3344070  20.7502780
 114.1687260  63.3545960  21.4585230 110.6895540  58.8229270  22.1105030
 110.0823490  59.5628170  22.1200330 111.1644890  58.9128630  21.2843230
 118.0748500  63.6642620  20.0283460 118.1760480  63.4606610  19.0985440
 117.1750240  63.4100900  20.2331240 115.5974390  54.2222980  24.0107360
 114.8890540  54.6909320  24.4520970 115.8818870  53.5644990  24.6452550
 117.2230320  55.6419680  32.0099890 117.7215570  56.1165500  32.6751740
 117.3653270  54.7183200  32.2169920 116.7166610  66.1828940  24.7231130
 116.9708110  66.1450330  23.8010500 115.7679090  66.0562270  24.7159380
 113.8009410  52.5308060  21.3858070 114.6499940  52.9678210  21.3198260
 113.4340680  52.8428320  22.2130130 112.7000830  58.7840420  19.8593600
 113.4664100  58.6721780  20.4219030 112.7775520  58.0878390  19.2070370
 111.3947590  56.2165490  20.5426490 111.4751180  55.2693000  20.6543890
 112.2867340  56.5472370  20.6487150 112.1962300  66.3660880  27.6461030
 112.9324780  65.8176340  27.9169600 112.5803220  67.2316890  27.5067020
 109.0807780  62.4334450  23.5202540 108.1547560  62.6755590  23.5107950
 109.5464210  63.2608710  23.3987290 111.2020580  65.5506950  36.8346610
 112.0033310  65.8719000  37.2482010 110.6872400  65.1902530  37.5566520
 115.3064610  65.5391190  19.4686600 116.0993220  65.8280020  19.0168390
 114.7868960  65.1083360  18.7899080 120.0385210  61.6586820  36.7822020
 119.4323370  61.6818420  36.0417770 119.7339320  60.9269860  37.3189270
 108.9218390  58.0380410  35.7782660 109.4257410  57.4587690  36.3498890
 108.1825810  58.3220640  36.3159030 115.8242010  60.7594600  19.3328950
 115.7192650  60.1446950  20.0590330 115.6566230  60.2360490  18.5491960
 115.9756330  59.4451400  35.3118180 115.2102000  60.0136400  35.2272850
 116.1572290  59.1527610  34.4186410 119.0644740  59.8214630  19.9370940
 118.5154840  60.2683930  20.5813680 119.6864000  59.3163880  20.4608610
 110.9541470  56.1810000  36.6732730 110.9946810  55.8823870  37.5817960
 111.8086970  56.5817610  36.5140250 114.7319860  58.7805550  21.8336240
 115.1536280  58.6145420  22.6767630 114.8570700  57.9705780  21.3391380
 112.8947280  54.7602100  34.6407220 112.3643740  54.2693050  34.0130560
 113.5635350  55.1886300  34.1065150 117.2447500  57.8043160  19.0813340
 117.7653160  57.0892180  18.7154490 117.8915900  58.4429030  19.3813850
 113.3819580  51.7264470  34.7204510 113.2876450  51.1085220  33.9955380
 112.8016970  52.4530760  34.4934420 116.1481020  50.2837710  31.7531900
 115.6998320  50.3061970  30.9077450 115.5146220  49.8856730  32.3502200
 116.5540570  59.1792040  32.3744340 116.9728680  60.0224770  32.2020580
 115.6349200  59.3164080  32.1451120 118.8904470  56.9108220  33.7582180
 119.0100680  56.3149360  34.4977020 119.7498470  56.9477910  33.3383480
 113.6278760  54.8538780  18.7794400 113.4267820  53.9906140  19.1407740
 113.4570810  54.7672140  17.8416000 114.4047990  65.4845050  33.4902070
 113.8669080  66.2091110  33.1710770 114.6581950  65.0075390  32.6999410
 115.6573240  53.4529570  35.0158000 116.2472930  53.1445420  35.7035820
 114.8393480  52.9809320  35.1717900 112.4261560  51.9539400  18.7672280
 112.7287460  51.9606830  17.8591430 113.1656150  51.6037260  19.2639940
 117.2610200  66.7196260  33.7488720 117.1868900  67.6231400  34.0561090
 116.3589040  66.4008160  33.7210790 115.6446490  50.8974020  19.7528480
 115.2968490  50.2198010  19.1730930 115.8459260  50.4363530  20.5671870
 117.8095530  65.8854770  21.3715080 118.7046320  66.2239740  21.3933840
 117.8413160  65.1634180  20.7439360 111.4491690  61.2581820  19.6002080
 111.8866560  61.8011490  20.2559660 111.9339420  60.4328770  19.6098420
 108.6637490  64.0470850  27.0522340 108.9940500  63.1791910  26.8200980
 109.0928490  64.2529370  27.8827300 113.2599410  62.3779860  24.7124310
 112.9594950  62.2544830  25.6128220 113.1536900  61.5188450  24.3040040
 109.1527700  64.9141440  29.7903970 108.7158690  65.0942240  30.6228120
 109.7205380  65.6716060  29.6485690 108.9852130  57.4261670  26.1492850
 108.3300970  57.1573310  25.5052550 109.8230080  57.3166150  25.6994830
 110.0228060  57.8114240  30.6896190 110.3901100  57.7241640  31.5692210
 109.4538880  57.0480790  30.5903050 109.5744060  54.7223330  34.5954610
 108.6800110  54.6890090  34.9348320 110.1141610  54.9210120  35.3605860
 108.1990210  54.6360600  22.0918180 107.2954290  54.8990800  21.9169840
 108.6830830  54.9071770  21.3118140 110.7417420  53.6926140  20.0012560
 111.4509120  53.2709360  19.5159840 110.0257360  53.7601370  19.3695910
 110.3891580  49.7465470  19.0415210 111.1119710  50.2874410  19.3596430
 110.6616100  49.4728890  18.1656750 110.0783770  48.9971660  28.9437830
 110.7259960  48.4469040  28.5032990 110.4985610  49.2514810  29.7653640
 109.8315770  49.1527330  31.6863150 109.4830590  49.6091150  32.4521330
 109.5003470  48.2584460  31.7685580 111.4380140  62.3246930  35.8516340
 111.3949770  61.9539840  36.7330800 111.5691150  63.2624500  35.9918160
 115.1386170  63.8806520  31.4526060 114.8977530  64.1481080  30.5656580
 116.0788810  64.0512250  31.5076920 117.3440590  50.3439210  35.2082570
 117.2829480  50.9361040  35.9577980 118.2840970  50.2365170  35.0632830
 110.5036410  48.6803530  34.9613920 111.0519400  48.4991580  34.1980030
 110.5691720  47.8897640  35.4970230 111.2768170  65.2709180  32.9714120
 110.6828490  65.1393880  33.7104160 111.2692010  64.4347320  32.5056220
 110.9080400  62.6367560  31.9222160 110.1814460  62.0172850  31.8548110
 110.9689550  63.0308170  31.0520240 114.5125500  64.8512560  28.7071570
 115.0290520  64.2399920  28.1819830 115.1622880  65.3541340  29.1982580
 117.2521000  65.7421050  29.5340550 117.5398810  65.4875350  28.6573560
 117.7644220  65.1898410  30.1246120 118.4698010  49.4811250  30.1137060
 117.6869800  49.9556750  30.3933820 118.1760940  48.5766080  30.0050240
 109.1910400  65.9541950  25.1318920 109.0232440  65.3212630  25.8300810
 108.3244910  66.1601350  24.7813110 109.8138420  49.7858730  22.6350780
 110.5717780  49.8987610  22.0614810 109.3515590  50.6227930  22.5894210
 116.3552230  51.8998000  25.6253090 115.5426740  51.5254890  25.2848970
 116.8593870  51.1443080  25.9274280 110.7973100  64.6475180  22.5769060
 110.2720720  65.0283210  21.8731020 110.7217680  65.2725950  23.2978770
 112.1863570  50.3122780  21.1752750 112.7156330  49.5252580  21.0460700
 112.8191890  50.9913970  21.4088280 114.3801410  50.0497920  24.2298140
 113.7504150  49.3485230  24.3968270 113.8406550  50.8102050  24.0131300
 117.3193360  66.6637150  36.9008750 118.2460670  66.4281420  36.9444710
 117.3043790  67.4909150  36.4194780 114.5056970  49.3281900  36.6650630
 114.2241240  49.8315500  35.9011450 114.8876670  48.5303650  36.2992760
 113.3966070  66.5957560  21.4518310 114.1284890  66.3116840  20.9042200
 113.6559740  66.3570840  22.3417690 112.5580860  62.7122290  21.4564640
 111.9289740  63.1807390  22.0050470 112.6728690  61.8671510  21.8910830
 120.0130580  56.7627950   7.6065840 119.9324630  55.8482560   7.3357550
 119.5995000  57.2595020   6.9005550 118.1448620  58.5406970   9.4875110
 117.3690720  58.0607410   9.7773680 118.7961550  57.8612620   9.3131270
 112.1614450  58.8526780  10.3650870 111.3299330  58.5975490  10.7647380
 112.7695430  58.9237550  11.1008790 112.1415710  62.8866870  10.5608890
 112.4443750  61.9964610  10.3819110 112.8859300  63.4437090  10.3331140
 110.5706400  53.8128670   4.1493260 109.6823100  54.1544640   4.0473140
 110.8547590  53.6128990   3.2574090 108.5339410  56.4134320  10.0332960
 109.1055520  55.6456520  10.0336600 108.5340950  56.7123080   9.1239570
 118.3919360  65.2325170   7.8878230 117.7730800  65.6882670   7.3172670
 119.2471140  65.3876630   7.4867930 117.5857610  61.2164160   9.4945270
 117.5165890  60.2754100   9.3334400 118.3477470  61.3065570  10.0667840
 109.7764280  51.8218680  11.8201890 109.5967120  50.9244430  12.1004650
 109.3744360  52.3690550  12.4948840 118.6162780  54.0234540   9.7214200
 118.9927600  53.1506420   9.6087870 118.5182290  54.3593240   8.8304640
 112.7467790  52.3960170   5.1831640 112.8534540  53.2963900   5.4900400
 111.8360150  52.3478140   4.8926290 110.3950950  54.3179180  10.4284230
 111.0761060  54.5817550  11.0471630 110.0799000  53.4780050  10.7622240
 114.5875520  55.3646540   9.5156820 115.0953740  55.8627510  10.1561840
 115.1188760  54.5881740   9.3396180 112.8711620  50.0045100  13.7820240
 112.8730060  50.5217490  12.9766140 112.0415930  49.5275280  13.7590170
 119.2582710  60.1164410   5.2810140 118.6399980  60.5813860   4.7172860
 119.7705960  60.8091890   5.6979650 114.1214470  59.6440280  11.9593740
 113.7883850  60.2709200  12.6014810 114.2981150  60.1702160  11.1795410
 112.5526950  51.7155060  11.7890690 112.8943760  52.5597110  11.4944560
 111.6142760  51.8638800  11.9056030 113.3333570  61.6121080  13.7742920
 113.9507570  62.2872160  13.4927370 112.4726690  62.0209060  13.6830420
 108.6265910  60.8020940   2.6549770 108.2493890  61.2908040   1.9234670
 108.8838980  61.4746220   3.2856300 116.2354840  49.2037330   8.1135280
 116.5429820  48.6484220   7.3970780 115.3055540  49.3381790   7.9308270
 118.6235600  57.2686160   4.8495400 117.6964880  57.2023540   5.0783870
 118.7760420  58.2066290   4.7350640 118.6104680  53.5403160   1.8462560
 117.6708350  53.7017120   1.9315020 118.9287940  54.2588840   1.2998550
 114.2292240  57.7950900   7.6315130 113.8249240  57.0828150   7.1361030
 114.3155360  57.4504140   8.5203170 114.6973940  61.4818460   9.7954340
 114.4002230  60.8763930   9.1162120 115.6473760  61.5195770   9.6843700
 112.9420860  54.5694110  11.4114170 113.4935450  54.6789450  10.6367420
 113.4564370  54.9431710  12.1269400 113.7892370  61.2200150  16.4462140
 112.8920900  61.4440120  16.6935540 113.8145240  61.3435090  15.4973540
 112.6163590  58.0913470  15.0219510 112.4771360  58.9636270  15.3906910
 111.7344950  57.7486280  14.8767450 118.9392970  63.0089340   6.3284640
 119.3788880  63.7513670   5.9140030 118.8779860  63.2515910   7.2523600
 114.4143940  64.0335170  17.2304660 114.3859370  64.4378120  16.3633090
 114.2508910  63.1045530  17.0676260 110.9296870  56.6895880   5.1321780
 110.8094470  57.4157970   4.5203050 110.6197760  55.9198790   4.6549690
 108.5682240  59.8611020  10.9390420 108.6462660  59.9959790   9.9946140
 109.1823920  59.1526910  11.1318540 109.8129870  61.5611210   7.3496600
 109.4057950  61.7025800   6.4950200 110.7042880  61.2771370   7.1467810
 119.6308750  65.7103120  14.2563650 120.1453420  65.6211130  15.0586080
 118.7877830  66.0562820  14.5491560 114.0851530  65.7756990   5.4619270
 113.9094010  64.8592530   5.2487070 113.2307270  66.1344280   5.7017070
 108.6241760  60.9025190  13.4784880 108.7872800  60.4330550  12.6604250
 109.0894210  60.3948750  14.1433720 113.3960530  50.0330950   8.5145450
 112.9528680  50.8140490   8.1829970 113.9545520  50.3560840   9.2216390
 117.6830340  52.8999470  14.1180770 117.2209710  53.1082490  14.9300710
 117.2808450  52.0858820  13.8151440 116.5119350  49.6541650   3.3951280
 115.8873530  49.6501520   4.1204590 116.4249470  48.7872610   2.9987250
 115.4336430  50.5778280  10.3735050 115.7308760  51.4841110  10.2927070
 115.9821990  50.0897060   9.7594620 113.1874750  55.1564520   6.2426700
 112.9615670  54.9401690   7.1473320 112.4067280  55.5892980   5.8972670
 115.6273960  56.0550100  16.9086970 115.5317560  55.1144830  16.7587370
 116.4705940  56.2765170  16.5135040 119.0237380  53.7991430   6.8720630
 119.4166950  54.1163630   6.0589320 119.3854230  52.9203310   6.9865150
 110.7584500  52.4663770  15.0620750 110.3647890  53.3138980  15.2693530
 110.0702900  51.8290140  15.2529390 117.3329550  52.5498740  18.1317490
 116.6427870  52.3570940  18.7663580 118.0761850  52.8333380  18.6641790
 108.0601550  50.3892230   9.0950830 107.7714600  50.9595090   9.8075810
 108.8047310  49.9096680   9.4582060 119.6092520  56.3897180  10.9671410
 118.8773640  56.8983990  11.3161510 119.2116860  55.5727160  10.6660190
 116.0469910  53.0651380   9.3723900 116.0505970  52.6241330   8.5228440
 116.9421030  53.3868710   9.4795720 111.8972290  52.9477870   8.3318110
 111.5572340  53.4253100   9.0885160 111.1349610  52.4942990   7.9719210
 116.1090060  54.0663460   2.3630660 116.2302880  54.0249940   3.3116480
 115.7238570  54.9287610   2.2077390 120.0718430  51.8430860  10.3794350
 120.0891170  52.2939510  11.2236200 119.8234010  50.9436500  10.5927790
 110.1980740  60.2776620  15.6380690 109.8135530  59.6370290  16.2363650
 110.5092930  60.9812740  16.2075420 116.3477880  57.1253160  11.1189310
 116.7148010  56.6511730  11.8650650 116.1582940  57.9994730  11.4597650
 109.2118370  51.8696850   7.2482780 108.9265290  51.5052520   8.0861400
 109.1497230  51.1377310   6.6345920 114.1377250  56.1661800  13.4373520
 113.8334320  57.0453780  13.6623880 115.0923710  56.2261590  13.4730960
 112.6659040  60.3722790   4.0340370 111.8921300  59.8320410   3.8739090
 113.3953670  59.8529400   3.6958130 118.8856960  50.7626110   3.9696150
 118.0721570  50.2639280   3.8941460 118.6918910  51.6024360   3.5532500
 118.8065820  59.4397210  15.7135760 118.7403130  58.5192880  15.4593350
 118.1770960  59.5372650  16.4280400 112.7096440  60.0403170   7.6719180
 113.2275110  59.2371430   7.6176070 112.2580460  59.9782310   8.5136010
 117.5965940  61.3069450   2.9446480 117.9381640  62.0511680   2.4489800
 116.7678650  61.6200570   3.3071310 110.1940980  57.0064540  14.5844880
 109.8355920  57.6718390  15.1718220 109.8995540  56.1748090  14.9557500
 113.3954100  57.4648780  17.4684430 113.0954240  57.6105960  16.5712250
 114.1665340  56.9054070  17.3757820 118.7382550  62.2617780  15.4639560
 118.7527090  61.3298740  15.2458470 118.0307650  62.3477540  16.1029330
 116.5656630  61.3882980   5.7162400 117.2527760  61.9352190   6.0969990
 115.7789050  61.9323710   5.7512010 115.8683840  58.3929010   5.3287760
 116.3246620  59.2034260   5.5547950 115.5172050  58.0752150   6.1606250
 118.1716450  63.9035350  12.5580060 118.8158670  64.1094730  13.2353480
 118.5345890  63.1423750  12.1050910 111.7695620  48.7366660   5.8010280
 111.6410250  48.7284560   6.7495200 110.9457640  49.0749750   5.4501290
 119.4448530  61.9067700  11.2757510 120.0870760  61.2060860  11.3889680
 119.9697880  62.6866140  11.0954400 108.7689550  50.4957780  15.2616980
 108.0548070  50.6954700  15.8669590 109.1884590  49.7197350  15.6331780
 109.0562140  64.4838040  16.2483510 109.1653260  63.5432780  16.1078900
 108.4042700  64.7492790  15.5997240 117.0474730  62.7553930  17.6481630
 116.7271600  62.0363170  18.1927320 116.3733090  63.4309000  17.7217690
 115.0888900  63.6014380   2.5914780 115.0799000  64.3344070   1.9759290
 114.1687260  63.3545960   2.6841740 110.6895540  58.8229270   3.3361540
 110.0823490  59.5628170   3.3456840 111.1644890  58.9128630   2.5099740
 115.5974390  54.2222980   5.2363870 114.8890540  54.6909320   5.6777480
 115.8818870  53.5644990   5.8709060 117.2230320  55.6419680  13.2356400
 117.7215570  56.1165500  13.9008250 117.3653270  54.7183200  13.4426430
 116.7166610  66.1828940   5.9487640 116.9708110  66.1450330   5.0267010
 115.7679090  66.0562270   5.9415890 113.8009410  52.5308060   2.6114580
 114.6499940  52.9678210   2.5454770 113.4340680  52.8428320   3.4386640
 111.3947590  56.2165490   1.7683000 111.4751180  55.2693000   1.8800400
 112.2867340  56.5472370   1.8743660 112.1962300  66.3660880   8.8717540
 112.9324780  65.8176340   9.1426110 112.5803220  67.2316890   8.7323530
 109.0807780  62.4334450   4.7459050 108.1547560  62.6755590   4.7364460
 109.5464210  63.2608710   4.6243800 111.2020580  65.5506950  18.0603120
 112.0033310  65.8719000  18.4738520 110.6872400  65.1902530  18.7823030
 120.0385210  61.6586820  18.0078530 119.4323370  61.6818420  17.2674280
 119.7339320  60.9269860  18.5445780 108.9218390  58.0380410  17.0039170
 109.4257410  57.4587690  17.5755400 108.1825810  58.3220640  17.5415540
 115.9756330  59.4451400  16.5374690 115.2102000  60.0136400  16.4529360
 116.1572290  59.1527610  15.6442920 110.9541470  56.1810000  17.8989240
 110.9946810  55.8823870  18.8074470 111.8086970  56.5817610  17.7396760
 114.7319860  58.7805550   3.0592750 115.1536280  58.6145420   3.9024140
 114.8570700  57.9705780   2.5647890 112.8947280  54.7602100  15.8663730
 112.3643740  54.2693050  15.2387070 113.5635350  55.1886300  15.3321660
 113.3819580  51.7264470  15.9461020 113.2876450  51.1085220  15.2211890
 112.8016970  52.4530760  15.7190930 116.1481020  50.2837710  12.9788410
 115.6998320  50.3061970  12.1333960 115.5146220  49.8856730  13.5758710
 116.5540570  59.1792040  13.6000850 116.9728680  60.0224770  13.4277090
 115.6349200  59.3164080  13.3707630 118.8904470  56.9108220  14.9838690
 119.0100680  56.3149360  15.7233530 119.7498470  56.9477910  14.5639990
 114.4047990  65.4845050  14.7158580 113.8669080  66.2091110  14.3967280
 114.6581950  65.0075390  13.9255920 115.6573240  53.4529570  16.2414510
 116.2472930  53.1445420  16.9292330 114.8393480  52.9809320  16.3974410
 117.2610200  66.7196260  14.9745230 117.1868900  67.6231400  15.2817600
 116.3589040  66.4008160  14.9467300 117.8095530  65.8854770   2.5971590
 118.7046320  66.2239740   2.6190350 117.8413160  65.1634180   1.9695870
 108.6637490  64.0470850   8.2778850 108.9940500  63.1791910   8.0457490
 109.0928490  64.2529370   9.1083810 113.2599410  62.3779860   5.9380820
 112.9594950  62.2544830   6.8384730 113.1536900  61.5188450   5.5296550
 109.1527700  64.9141440  11.0160480 108.7158690  65.0942240  11.8484630
 109.7205380  65.6716060  10.8742200 108.9852130  57.4261670   7.3749360
 108.3300970  57.1573310   6.7309060 109.8230080  57.3166150   6.9251340
 110.0228060  57.8114240  11.9152700 110.3901100  57.7241640  12.7948720
 109.4538880  57.0480790  11.8159560 109.5744060  54.7223330  15.8211120
 108.6800110  54.6890090  16.1604830 110.1141610  54.9210120  16.5862370
 108.1990210  54.6360600   3.3174690 107.2954290  54.8990800   3.1426350
 108.6830830  54.9071770   2.5374650 110.0783770  48.9971660  10.1694340
 110.7259960  48.4469040   9.7289500 110.4985610  49.2514810  10.9910150
 109.8315770  49.1527330  12.9119660 109.4830590  49.6091150  13.6777840
 109.5003470  48.2584460  12.9942090 111.4380140  62.3246930  17.0772850
 111.3949770  61.9539840  17.9587310 111.5691150  63.2624500  17.2174670
 115.1386170  63.8806520  12.6782570 114.8977530  64.1481080  11.7913090
 116.0788810  64.0512250  12.7333430 117.3440590  50.3439210  16.4339080
 117.2829480  50.9361040  17.1834490 118.2840970  50.2365170  16.2889340
 110.5036410  48.6803530  16.1870430 111.0519400  48.4991580  15.4236540
 110.5691720  47.8897640  16.7226740 111.2768170  65.2709180  14.1970630
 110.6828490  65.1393880  14.9360670 111.2692010  64.4347320  13.7312730
 110.9080400  62.6367560  13.1478670 110.1814460  62.0172850  13.0804620
 110.9689550  63.0308170  12.2776750 114.5125500  64.8512560   9.9328080
 115.0290520  64.2399920   9.4076340 115.1622880  65.3541340  10.4239090
 117.2521000  65.7421050  10.7597060 117.5398810  65.4875350   9.8830070
 117.7644220  65.1898410  11.3502630 118.4698010  49.4811250  11.3393570
 117.6869800  49.9556750  11.6190330 118.1760940  48.5766080  11.2306750
 109.1910400  65.9541950   6.3575430 109.0232440  65.3212630   7.0557320
 108.3244910  66.1601350   6.0069620 109.8138420  49.7858730   3.8607290
 110.5717780  49.8987610   3.2871320 109.3515590  50.6227930   3.8150720
 116.3552230  51.8998000   6.8509600 115.5426740  51.5254890   6.5105480
 116.8593870  51.1443080   7.1530790 110.7973100  64.6475180   3.8025570
 110.2720720  65.0283210   3.0987530 110.7217680  65.2725950   4.5235280
 112.1863570  50.3122780   2.4009260 112.7156330  49.5252580   2.2717210
 112.8191890  50.9913970   2.6344790 114.3801410  50.0497920   5.4554650
 113.7504150  49.3485230   5.6224780 113.8406550  50.8102050   5.2387810
 117.3193360  66.6637150  18.1265260 118.2460670  66.4281420  18.1701220
 117.3043790  67.4909150  17.6451290 114.5056970  49.3281900  17.8907140
 114.2241240  49.8315500  17.1267960 114.8876670  48.5303650  17.5249270
 113.3966070  66.5957560   2.6774820 114.1284890  66.3116840   2.1298710
 113.6559740  66.3570840   3.5674200 112.5580860  62.7122290   2.6821150
 111.9289740  63.1807390   3.2306980 112.6728690  61.8671510   3.1167340
 120.0130580  37.9884460 101.4783290 119.9324630  37.0739070 101.2075000
 119.5995000  38.4851530 100.7723000 118.1448620  39.7663480 103.3592560
 117.3690720  39.2863920 103.6491130 118.7961550  39.0869130 103.1848720
 112.1614450  40.0783290 104.2368320 111.3299330  39.8232000 104.6364830
 112.7695430  40.1494060 104.9726240 112.1415710  44.1123380 104.4326340
 112.4443750  43.2221120 104.2536560 112.8859300  44.6693600 104.2048590
 110.5706400  35.0385180  98.0210710 109.6823100  35.3801150  97.9190590
 110.8547590  34.8385500  97.1291540 108.5339410  37.6390830 103.9050410
 109.1055520  36.8713030 103.9054050 108.5340950  37.9379590 102.9957020
 118.3919360  46.4581680 101.7595680 117.7730800  46.9139180 101.1890120
 119.2471140  46.6133140 101.3585380 117.5857610  42.4420670 103.3662720
 117.5165890  41.5010610 103.2051850 118.3477470  42.5322080 103.9385290
 109.7764280  33.0475190 105.6919340 109.5967120  32.1500940 105.9722100
 109.3744360  33.5947060 106.3666290 118.6162780  35.2491050 103.5931650
 118.9927600  34.3762930 103.4805320 118.5182290  35.5849750 102.7022090
 112.7467790  33.6216680  99.0549090 112.8534540  34.5220410  99.3617850
 111.8360150  33.5734650  98.7643740 110.3950950  35.5435690 104.3001680
 111.0761060  35.8074060 104.9189080 110.0799000  34.7036560 104.6339690
 114.5875520  36.5903050 103.3874270 115.0953740  37.0884020 104.0279290
 115.1188760  35.8138250 103.2113630 112.8711620  31.2301610 107.6537690
 112.8730060  31.7474000 106.8483590 112.0415930  30.7531790 107.6307620
 119.2582710  41.3420920  99.1527590 118.6399980  41.8070370  98.5890310
 119.7705960  42.0348400  99.5697100 114.1214470  40.8696790 105.8311190
 113.7883850  41.4965710 106.4732260 114.2981150  41.3958670 105.0512860
 112.5526950  32.9411570 105.6608140 112.8943760  33.7853620 105.3662010
 111.6142760  33.0895310 105.7773480 113.3333570  42.8377590 107.6460370
 113.9507570  43.5128670 107.3644820 112.4726690  43.2465570 107.5547870
 108.6265910  42.0277450  96.5267220 108.2493890  42.5164550  95.7952120
 108.8838980  42.7002730  97.1573750 116.2354840  30.4293840 101.9852730
 116.5429820  29.8740730 101.2688230 115.3055540  30.5638300 101.8025720
 118.6235600  38.4942670  98.7212850 117.6964880  38.4280050  98.9501320
 118.7760420  39.4322800  98.6068090 118.6104680  34.7659670  95.7180010
 117.6708350  34.9273630  95.8032470 118.9287940  35.4845350  95.1716000
 114.2292240  39.0207410 101.5032580 113.8249240  38.3084660 101.0078480
 114.3155360  38.6760650 102.3920620 114.6973940  42.7074970 103.6671790
 114.4002230  42.1020440 102.9879570 115.6473760  42.7452280 103.5561150
 112.9420860  35.7950620 105.2831620 113.4935450  35.9045960 104.5084870
 113.4564370  36.1688220 105.9986850 113.7892370  42.4456660 110.3179590
 112.8920900  42.6696630 110.5652990 113.8145240  42.5691600 109.3690990
 112.6163590  39.3169980 108.8936960 112.4771360  40.1892780 109.2624360
 111.7344950  38.9742790 108.7484900 118.9392970  44.2345850 100.2002090
 119.3788880  44.9770180  99.7857480 118.8779860  44.4772420 101.1241050
 110.9296870  37.9152390  99.0039230 110.8094470  38.6414480  98.3920500
 110.6197760  37.1455300  98.5267140 108.5682240  41.0867530 104.8107870
 108.6462660  41.2216300 103.8663590 109.1823920  40.3783420 105.0035990
 109.8129870  42.7867720 101.2214050 109.4057950  42.9282310 100.3667650
 110.7042880  42.5027880 101.0185260 119.6308750  46.9359630 108.1281100
 120.1453420  46.8467640 108.9303530 118.7877830  47.2819330 108.4209010
 114.0851530  47.0013500  99.3336720 113.9094010  46.0849040  99.1204520
 113.2307270  47.3600790  99.5734520 108.6241760  42.1281700 107.3502330
 108.7872800  41.6587060 106.5321700 109.0894210  41.6205260 108.0151170
 113.3960530  31.2587460 102.3862900 112.9528680  32.0397000 102.0547420
 113.9545520  31.5817350 103.0933840 117.6830340  34.1255980 107.9898220
 117.2209710  34.3339000 108.8018160 117.2808450  33.3115330 107.6868890
 116.5119350  30.8798160  97.2668730 115.8873530  30.8758030  97.9922040
 116.4249470  30.0129120  96.8704700 115.4336430  31.8034790 104.2452500
 115.7308760  32.7097620 104.1644520 115.9821990  31.3153570 103.6312070
 113.1874750  36.3821030 100.1144150 112.9615670  36.1658200 101.0190770
 112.4067280  36.8149490  99.7690120 115.6273960  37.2806610 110.7804420
 115.5317560  36.3401340 110.6304820 116.4705940  37.5021680 110.3852490
 119.0237380  35.0247940 100.7438080 119.4166950  35.3420140  99.9306770
 119.3854230  34.1459820 100.8582600 110.7584500  33.6920280 108.9338200
 110.3647890  34.5395490 109.1410980 110.0702900  33.0546650 109.1246840
 108.0601550  31.6148740 102.9668280 107.7714600  32.1851600 103.6793260
 108.8047310  31.1353190 103.3299510 108.2471780  35.5568860  94.1771000
 108.1646450  36.4999620  94.3185990 107.8954840  35.4143770  93.2983350
 119.6092520  37.6153690 104.8388860 118.8773640  38.1240500 105.1878960
 119.2116860  36.7983670 104.5377640 116.0469910  34.2907890 103.2441350
 116.0505970  33.8497840 102.3945890 116.9421030  34.6125220 103.3513170
 111.8972290  34.1734380 102.2035560 111.5572340  34.6509610 102.9602610
 111.1349610  33.7199500 101.8436660 116.1090060  35.2919970  96.2348110
 116.2302880  35.2506450  97.1833930 115.7238570  36.1544120  96.0794840
 120.0718430  33.0687370 104.2511800 120.0891170  33.5196020 105.0953650
 119.8234010  32.1693010 104.4645240 115.1211560  37.6021110  95.6331410
 114.5528460  37.1539360  95.0067320 115.8300560  37.9613890  95.0996560
 110.1980740  41.5033130 109.5098140 109.8135530  40.8626800 110.1081100
 110.5092930  42.2069250 110.0792870 116.3477880  38.3509670 104.9906760
 116.7148010  37.8768240 105.7368100 116.1582940  39.2251240 105.3315100
 109.2118370  33.0953360 101.1200230 108.9265290  32.7309030 101.9578850
 109.1497230  32.3633820 100.5063370 114.1377250  37.3918310 107.3090970
 113.8334320  38.2710290 107.5341330 115.0923710  37.4518100 107.3448410
 112.6659040  41.5979300  97.9057820 111.8921300  41.0576920  97.7456540
 113.3953670  41.0785910  97.5675580 118.8856960  31.9882620  97.8413600
 118.0721570  31.4895790  97.7658910 118.6918910  32.8280870  97.4249950
 118.8065820  40.6653720 109.5853210 118.7403130  39.7449390 109.3310800
 118.1770960  40.7629160 110.2997850 112.7096440  41.2659680 101.5436630
 113.2275110  40.4627940 101.4893520 112.2580460  41.2038820 102.3853460
 117.5965940  42.5325960  96.8163930 117.9381640  43.2768190  96.3207250
 116.7678650  42.8457080  97.1788760 110.1940980  38.2321050 108.4562330
 109.8355920  38.8974900 109.0435670 109.8995540  37.4004600 108.8274950
 118.7382550  43.4874290 109.3357010 118.7527090  42.5555250 109.1175920
 118.0307650  43.5734050 109.9746780 116.5656630  42.6139490  99.5879850
 117.2527760  43.1608700  99.9687440 115.7789050  43.1580220  99.6229460
 108.7049030  38.2312310  95.0796930 109.5743880  38.5137110  95.3632850
 108.2139350  39.0448180  94.9645740 115.8683840  39.6185520  99.2005210
 116.3246620  40.4290770  99.4265400 115.5172050  39.3008660 100.0323700
 118.1716450  45.1291860 106.4297510 118.8158670  45.3351240 107.1070930
 118.5345890  44.3680260 105.9768360 111.7695620  29.9623170  99.6727730
 111.6410250  29.9541070 100.6212650 110.9457640  30.3006260  99.3218740
 119.4448530  43.1324210 105.1474960 120.0870760  42.4317370 105.2607130
 119.9697880  43.9122650 104.9671850 109.0720280  47.4439690  95.6458560
 109.4317920  48.0429030  94.9915830 108.9312620  47.9899580  96.4193590
 108.7689550  31.7214290 109.1334430 108.0548070  31.9211210 109.7387040
 109.1884590  30.9453860 109.5049230 109.0562140  45.7094550 110.1200960
 109.1653260  44.7689290 109.9796350 108.4042700  45.9749300 109.4714690
 115.0888900  44.8270890  96.4632230 115.0799000  45.5600580  95.8476740
 114.1687260  44.5802470  96.5559190 110.6895540  40.0485780  97.2078990
 110.0823490  40.7884680  97.2174290 111.1644890  40.1385140  96.3817190
 118.0748500  44.8899130  95.1257420 118.1760480  44.6863120  94.1959400
 117.1750240  44.6357410  95.3305200 115.5974390  35.4479490  99.1081320
 114.8890540  35.9165830  99.5494930 115.8818870  34.7901500  99.7426510
 117.2230320  36.8676190 107.1073850 117.7215570  37.3422010 107.7725700
 117.3653270  35.9439710 107.3143880 116.7166610  47.4085450  99.8205090
 116.9708110  47.3706840  98.8984460 115.7679090  47.2818780  99.8133340
 113.8009410  33.7564570  96.4832030 114.6499940  34.1934720  96.4172220
 113.4340680  34.0684830  97.3104090 112.7000830  40.0096930  94.9567560
 113.4664100  39.8978290  95.5192990 112.7775520  39.3134900  94.3044330
 111.3947590  37.4422000  95.6400450 111.4751180  36.4949510  95.7517850
 112.2867340  37.7728880  95.7461110 112.1962300  47.5917390 102.7434990
 112.9324780  47.0432850 103.0143560 112.5803220  48.4573400 102.6040980
 109.0807780  43.6590960  98.6176500 108.1547560  43.9012100  98.6081910
 109.5464210  44.4865220  98.4961250 115.3064610  46.7647700  94.5660560
 116.0993220  47.0536530  94.1142350 114.7868960  46.3339870  93.8873040
 115.8242010  41.9851110  94.4302910 115.7192650  41.3703460  95.1564290
 115.6566230  41.4617000  93.6465920 115.9756330  40.6707910 110.4092140
 115.2102000  41.2392910 110.3246810 116.1572290  40.3784120 109.5160370
 119.0644740  41.0471140  95.0344900 118.5154840  41.4940440  95.6787640
 119.6864000  40.5420390  95.5582570 114.7319860  40.0062060  96.9310200
 115.1536280  39.8401930  97.7741590 114.8570700  39.1962290  96.4365340
 112.8947280  35.9858610 109.7381180 112.3643740  35.4949560 109.1104520
 113.5635350  36.4142810 109.2039110 117.2447500  39.0299670  94.1787300
 117.7653160  38.3148690  93.8128450 117.8915900  39.6685540  94.4787810
 113.3819580  32.9520980 109.8178470 113.2876450  32.3341730 109.0929340
 112.8016970  33.6787270 109.5908380 116.1481020  31.5094220 106.8505860
 115.6998320  31.5318480 106.0051410 115.5146220  31.1113240 107.4476160
 116.5540570  40.4048550 107.4718300 116.9728680  41.2481280 107.2994540
 115.6349200  40.5420590 107.2425080 118.8904470  38.1364730 108.8556140
 119.0100680  37.5405870 109.5950980 119.7498470  38.1734420 108.4357440
 113.6278760  36.0795290  93.8768360 113.4267820  35.2162650  94.2381700
 113.4570810  35.9928650  92.9389960 114.4047990  46.7101560 108.5876030
 113.8669080  47.4347620 108.2684730 114.6581950  46.2331900 107.7973370
 115.6573240  34.6786080 110.1131960 116.2472930  34.3701930 110.8009780
 114.8393480  34.2065830 110.2691860 112.4261560  33.1795910  93.8646240
 112.7287460  33.1863340  92.9565390 113.1656150  32.8293770  94.3613900
 117.2610200  47.9452770 108.8462680 117.1868900  48.8487910 109.1535050
 116.3589040  47.6264670 108.8184750 115.6446490  32.1230530  94.8502440
 115.2968490  31.4454520  94.2704890 115.8459260  31.6620040  95.6645830
 117.8095530  47.1111280  96.4689040 118.7046320  47.4496250  96.4907800
 117.8413160  46.3890690  95.8413320 111.4491690  42.4838330  94.6976040
 111.8866560  43.0268000  95.3533620 111.9339420  41.6585280  94.7072380
 108.6637490  45.2727360 102.1496300 108.9940500  44.4048420 101.9174940
 109.0928490  45.4785880 102.9801260 113.2599410  43.6036370  99.8098270
 112.9594950  43.4801340 100.7102180 113.1536900  42.7444960  99.4014000
 109.1527700  46.1397950 104.8877930 108.7158690  46.3198750 105.7202080
 109.7205380  46.8972570 104.7459650 108.9852130  38.6518180 101.2466810
 108.3300970  38.3829820 100.6026510 109.8230080  38.5422660 100.7968790
 110.0228060  39.0370750 105.7870150 110.3901100  38.9498150 106.6666170
 109.4538880  38.2737300 105.6877010 109.5744060  35.9479840 109.6928570
 108.6800110  35.9146600 110.0322280 110.1141610  36.1466630 110.4579820
 108.1990210  35.8617110  97.1892140 107.2954290  36.1247310  97.0143800
 108.6830830  36.1328280  96.4092100 110.7417420  34.9182650  95.0986520
 111.4509120  34.4965870  94.6133800 110.0257360  34.9857880  94.4669870
 110.3891580  30.9721980  94.1389170 111.1119710  31.5130920  94.4570390
 110.6616100  30.6985400  93.2630710 110.0783770  30.2228170 104.0411790
 110.7259960  29.6725550 103.6006950 110.4985610  30.4771320 104.8627600
 109.8315770  30.3783840 106.7837110 109.4830590  30.8347660 107.5495290
 109.5003470  29.4840970 106.8659540 115.1386170  45.1063030 106.5500020
 114.8977530  45.3737590 105.6630540 116.0788810  45.2768760 106.6050880
 110.5036410  29.9060040 110.0587880 111.0519400  29.7248090 109.2953990
 110.5691720  29.1154150 110.5944190 111.2768170  46.4965690 108.0688080
 110.6828490  46.3650390 108.8078120 111.2692010  45.6603830 107.6030180
 110.9080400  43.8624070 107.0196120 110.1814460  43.2429360 106.9522070
 110.9689550  44.2564680 106.1494200 114.5125500  46.0769070 103.8045530
 115.0290520  45.4656430 103.2793790 115.1622880  46.5797850 104.2956540
 117.2521000  46.9677560 104.6314510 117.5398810  46.7131860 103.7547520
 117.7644220  46.4154920 105.2220080 118.4698010  30.7067760 105.2111020
 117.6869800  31.1813260 105.4907780 118.1760940  29.8022590 105.1024200
 109.1910400  47.1798460 100.2292880 109.0232440  46.5469140 100.9274770
 108.3244910  47.3857860  99.8787070 109.8138420  31.0115240  97.7324740
 110.5717780  31.1244120  97.1588770 109.3515590  31.8484440  97.6868170
 116.3552230  33.1254510 100.7227050 115.5426740  32.7511400 100.3822930
 116.8593870  32.3699590 101.0248240 110.7973100  45.8731690  97.6743020
 110.2720720  46.2539720  96.9704980 110.7217680  46.4982460  98.3952730
 112.1863570  31.5379290  96.2726710 112.7156330  30.7509090  96.1434660
 112.8191890  32.2170480  96.5062240 114.3801410  31.2754430  99.3272100
 113.7504150  30.5741740  99.4942230 113.8406550  32.0358560  99.1105260
 113.3966070  47.8214070  96.5492270 114.1284890  47.5373350  96.0016160
 113.6559740  47.5827350  97.4391650 112.5580860  43.9378800  96.5538600
 111.9289740  44.4063900  97.1024430 112.6728690  43.0928020  96.9884790
 120.0130580  37.9884460  82.7039800 119.9324630  37.0739070  82.4331510
 119.5995000  38.4851530  81.9979510 118.1448620  39.7663480  84.5849070
 117.3690720  39.2863920  84.8747640 118.7961550  39.0869130  84.4105230
 112.1614450  40.0783290  85.4624830 111.3299330  39.8232000  85.8621340
 112.7695430  40.1494060  86.1982750 112.1415710  44.1123380  85.6582850
 112.4443750  43.2221120  85.4793070 112.8859300  44.6693600  85.4305100
 110.5706400  35.0385180  79.2467220 109.6823100  35.3801150  79.1447100
 110.8547590  34.8385500  78.3548050 108.5339410  37.6390830  85.1306920
 109.1055520  36.8713030  85.1310560 108.5340950  37.9379590  84.2213530
 118.3919360  46.4581680  82.9852190 117.7730800  46.9139180  82.4146630
 119.2471140  46.6133140  82.5841890 117.5857610  42.4420670  84.5919230
 117.5165890  41.5010610  84.4308360 118.3477470  42.5322080  85.1641800
 109.7764280  33.0475190  86.9175850 109.5967120  32.1500940  87.1978610
 109.3744360  33.5947060  87.5922800 118.6162780  35.2491050  84.8188160
 118.9927600  34.3762930  84.7061830 118.5182290  35.5849750  83.9278600
 112.7467790  33.6216680  80.2805600 112.8534540  34.5220410  80.5874360
 111.8360150  33.5734650  79.9900250 110.3950950  35.5435690  85.5258190
 111.0761060  35.8074060  86.1445590 110.0799000  34.7036560  85.8596200
 114.5875520  36.5903050  84.6130780 115.0953740  37.0884020  85.2535800
 115.1188760  35.8138250  84.4370140 112.8711620  31.2301610  88.8794200
 112.8730060  31.7474000  88.0740100 112.0415930  30.7531790  88.8564130
 119.2582710  41.3420920  80.3784100 118.6399980  41.8070370  79.8146820
 119.7705960  42.0348400  80.7953610 114.1214470  40.8696790  87.0567700
 113.7883850  41.4965710  87.6988770 114.2981150  41.3958670  86.2769370
 112.5526950  32.9411570  86.8864650 112.8943760  33.7853620  86.5918520
 111.6142760  33.0895310  87.0029990 113.3333570  42.8377590  88.8716880
 113.9507570  43.5128670  88.5901330 112.4726690  43.2465570  88.7804380
 108.6265910  42.0277450  77.7523730 108.2493890  42.5164550  77.0208630
 108.8838980  42.7002730  78.3830260 116.2354840  30.4293840  83.2109240
 116.5429820  29.8740730  82.4944740 115.3055540  30.5638300  83.0282230
 118.6235600  38.4942670  79.9469360 117.6964880  38.4280050  80.1757830
 118.7760420  39.4322800  79.8324600 118.6104680  34.7659670  76.9436520
 117.6708350  34.9273630  77.0288980 118.9287940  35.4845350  76.3972510
 114.2292240  39.0207410  82.7289090 113.8249240  38.3084660  82.2334990
 114.3155360  38.6760650  83.6177130 114.6973940  42.7074970  84.8928300
 114.4002230  42.1020440  84.2136080 115.6473760  42.7452280  84.7817660
 112.9420860  35.7950620  86.5088130 113.4935450  35.9045960  85.7341380
 113.4564370  36.1688220  87.2243360 113.7892370  42.4456660  91.5436100
 112.8920900  42.6696630  91.7909500 113.8145240  42.5691600  90.5947500
 112.6163590  39.3169980  90.1193470 112.4771360  40.1892780  90.4880870
 111.7344950  38.9742790  89.9741410 118.9392970  44.2345850  81.4258600
 119.3788880  44.9770180  81.0113990 118.8779860  44.4772420  82.3497560
 114.4143940  45.2591680  92.3278620 114.3859370  45.6634630  91.4607050
 114.2508910  44.3302040  92.1650220 110.9296870  37.9152390  80.2295740
 110.8094470  38.6414480  79.6177010 110.6197760  37.1455300  79.7523650
 108.5682240  41.0867530  86.0364380 108.6462660  41.2216300  85.0920100
 109.1823920  40.3783420  86.2292500 109.8129870  42.7867720  82.4470560
 109.4057950  42.9282310  81.5924160 110.7042880  42.5027880  82.2441770
 119.6308750  46.9359630  89.3537610 120.1453420  46.8467640  90.1560040
 118.7877830  47.2819330  89.6465520 114.0851530  47.0013500  80.5593230
 113.9094010  46.0849040  80.3461030 113.2307270  47.3600790  80.7991030
 108.6241760  42.1281700  88.5758840 108.7872800  41.6587060  87.7578210
 109.0894210  41.6205260  89.2407680 113.3960530  31.2587460  83.6119410
 112.9528680  32.0397000  83.2803930 113.9545520  31.5817350  84.3190350
 117.6830340  34.1255980  89.2154730 117.2209710  34.3339000  90.0274670
 117.2808450  33.3115330  88.9125400 116.5119350  30.8798160  78.4925240
 115.8873530  30.8758030  79.2178550 116.4249470  30.0129120  78.0961210
 115.4336430  31.8034790  85.4709010 115.7308760  32.7097620  85.3901030
 115.9821990  31.3153570  84.8568580 113.1874750  36.3821030  81.3400660
 112.9615670  36.1658200  82.2447280 112.4067280  36.8149490  80.9946630
 115.6273960  37.2806610  92.0060930 115.5317560  36.3401340  91.8561330
 116.4705940  37.5021680  91.6109000 119.0237380  35.0247940  81.9694590
 119.4166950  35.3420140  81.1563280 119.3854230  34.1459820  82.0839110
 110.7584500  33.6920280  90.1594710 110.3647890  34.5395490  90.3667490
 110.0702900  33.0546650  90.3503350 117.3329550  33.7755250  93.2291450
 116.6427870  33.5827450  93.8637540 118.0761850  34.0589890  93.7615750
 108.0601550  31.6148740  84.1924790 107.7714600  32.1851600  84.9049770
 108.8047310  31.1353190  84.5556020 108.2471780  35.5568860  75.4027510
 108.1646450  36.4999620  75.5442500 107.8954840  35.4143770  74.5239860
 119.6092520  37.6153690  86.0645370 118.8773640  38.1240500  86.4135470
 119.2116860  36.7983670  85.7634150 116.0469910  34.2907890  84.4697860
 116.0505970  33.8497840  83.6202400 116.9421030  34.6125220  84.5769680
 111.8972290  34.1734380  83.4292070 111.5572340  34.6509610  84.1859120
 111.1349610  33.7199500  83.0693170 116.1090060  35.2919970  77.4604620
 116.2302880  35.2506450  78.4090440 115.7238570  36.1544120  77.3051350
 120.0718430  33.0687370  85.4768310 120.0891170  33.5196020  86.3210160
 119.8234010  32.1693010  85.6901750 115.1211560  37.6021110  76.8587920
 114.5528460  37.1539360  76.2323830 115.8300560  37.9613890  76.3253070
 110.1980740  41.5033130  90.7354650 109.8135530  40.8626800  91.3337610
 110.5092930  42.2069250  91.3049380 116.3477880  38.3509670  86.2163270
 116.7148010  37.8768240  86.9624610 116.1582940  39.2251240  86.5571610
 109.2118370  33.0953360  82.3456740 108.9265290  32.7309030  83.1835360
 109.1497230  32.3633820  81.7319880 114.1377250  37.3918310  88.5347480
 113.8334320  38.2710290  88.7597840 115.0923710  37.4518100  88.5704920
 112.6659040  41.5979300  79.1314330 111.8921300  41.0576920  78.9713050
 113.3953670  41.0785910  78.7932090 118.8856960  31.9882620  79.0670110
 118.0721570  31.4895790  78.9915420 118.6918910  32.8280870  78.6506460
 118.8065820  40.6653720  90.8109720 118.7403130  39.7449390  90.5567310
 118.1770960  40.7629160  91.5254360 112.7096440  41.2659680  82.7693140
 113.2275110  40.4627940  82.7150030 112.2580460  41.2038820  83.6109970
 117.5965940  42.5325960  78.0420440 117.9381640  43.2768190  77.5463760
 116.7678650  42.8457080  78.4045270 110.1940980  38.2321050  89.6818840
 109.8355920  38.8974900  90.2692180 109.8995540  37.4004600  90.0531460
 113.3954100  38.6905290  92.5658390 113.0954240  38.8362470  91.6686210
 114.1665340  38.1310580  92.4731780 118.7382550  43.4874290  90.5613520
 118.7527090  42.5555250  90.3432430 118.0307650  43.5734050  91.2003290
 116.5656630  42.6139490  80.8136360 117.2527760  43.1608700  81.1943950
 115.7789050  43.1580220  80.8485970 108.7049030  38.2312310  76.3053440
 109.5743880  38.5137110  76.5889360 108.2139350  39.0448180  76.1902250
 115.8683840  39.6185520  80.4261720 116.3246620  40.4290770  80.6521910
 115.5172050  39.3008660  81.2580210 118.1716450  45.1291860  87.6554020
 118.8158670  45.3351240  88.3327440 118.5345890  44.3680260  87.2024870
 111.7695620  29.9623170  80.8984240 111.6410250  29.9541070  81.8469160
 110.9457640  30.3006260  80.5475250 119.4448530  43.1324210  86.3731470
 120.0870760  42.4317370  86.4863640 119.9697880  43.9122650  86.1928360
 109.0720280  47.4439690  76.8715070 109.4317920  48.0429030  76.2172340
 108.9312620  47.9899580  77.6450100 108.7689550  31.7214290  90.3590940
 108.0548070  31.9211210  90.9643550 109.1884590  30.9453860  90.7305740
 109.0562140  45.7094550  91.3457470 109.1653260  44.7689290  91.2052860
 108.4042700  45.9749300  90.6971200 117.0474730  43.9810440  92.7455590
 116.7271600  43.2619680  93.2901280 116.3733090  44.6565510  92.8191650
 115.0888900  44.8270890  77.6888740 115.0799000  45.5600580  77.0733250
 114.1687260  44.5802470  77.7815700 110.6895540  40.0485780  78.4335500
 110.0823490  40.7884680  78.4430800 111.1644890  40.1385140  77.6073700
 118.0748500  44.8899130  76.3513930 118.1760480  44.6863120  75.4215910
 117.1750240  44.6357410  76.5561710 115.5974390  35.4479490  80.3337830
 114.8890540  35.9165830  80.7751440 115.8818870  34.7901500  80.9683020
 117.2230320  36.8676190  88.3330360 117.7215570  37.3422010  88.9982210
 117.3653270  35.9439710  88.5400390 116.7166610  47.4085450  81.0461600
 116.9708110  47.3706840  80.1240970 115.7679090  47.2818780  81.0389850
 113.8009410  33.7564570  77.7088540 114.6499940  34.1934720  77.6428730
 113.4340680  34.0684830  78.5360600 112.7000830  40.0096930  76.1824070
 113.4664100  39.8978290  76.7449500 112.7775520  39.3134900  75.5300840
 111.3947590  37.4422000  76.8656960 111.4751180  36.4949510  76.9774360
 112.2867340  37.7728880  76.9717620 112.1962300  47.5917390  83.9691500
 112.9324780  47.0432850  84.2400070 112.5803220  48.4573400  83.8297490
 109.0807780  43.6590960  79.8433010 108.1547560  43.9012100  79.8338420
 109.5464210  44.4865220  79.7217760 111.2020580  46.7763460  93.1577080
 112.0033310  47.0975510  93.5712480 110.6872400  46.4159040  93.8796990
 115.3064610  46.7647700  75.7917070 116.0993220  47.0536530  75.3398860
 114.7868960  46.3339870  75.1129550 120.0385210  42.8843330  93.1052490
 119.4323370  42.9074930  92.3648240 119.7339320  42.1526370  93.6419740
 108.9218390  39.2636920  92.1013130 109.4257410  38.6844200  92.6729360
 108.1825810  39.5477150  92.6389500 115.8242010  41.9851110  75.6559420
 115.7192650  41.3703460  76.3820800 115.6566230  41.4617000  74.8722430
 115.9756330  40.6707910  91.6348650 115.2102000  41.2392910  91.5503320
 116.1572290  40.3784120  90.7416880 119.0644740  41.0471140  76.2601410
 118.5154840  41.4940440  76.9044150 119.6864000  40.5420390  76.7839080
 110.9541470  37.4066510  92.9963200 110.9946810  37.1080380  93.9048430
 111.8086970  37.8074120  92.8370720 114.7319860  40.0062060  78.1566710
 115.1536280  39.8401930  78.9998100 114.8570700  39.1962290  77.6621850
 112.8947280  35.9858610  90.9637690 112.3643740  35.4949560  90.3361030
 113.5635350  36.4142810  90.4295620 117.2447500  39.0299670  75.4043810
 117.7653160  38.3148690  75.0384960 117.8915900  39.6685540  75.7044320
 113.3819580  32.9520980  91.0434980 113.2876450  32.3341730  90.3185850
 112.8016970  33.6787270  90.8164890 116.1481020  31.5094220  88.0762370
 115.6998320  31.5318480  87.2307920 115.5146220  31.1113240  88.6732670
 116.5540570  40.4048550  88.6974810 116.9728680  41.2481280  88.5251050
 115.6349200  40.5420590  88.4681590 118.8904470  38.1364730  90.0812650
 119.0100680  37.5405870  90.8207490 119.7498470  38.1734420  89.6613950
 113.6278760  36.0795290  75.1024870 113.4267820  35.2162650  75.4638210
 113.4570810  35.9928650  74.1646470 114.4047990  46.7101560  89.8132540
 113.8669080  47.4347620  89.4941240 114.6581950  46.2331900  89.0229880
 115.6573240  34.6786080  91.3388470 116.2472930  34.3701930  92.0266290
 114.8393480  34.2065830  91.4948370 112.4261560  33.1795910  75.0902750
 112.7287460  33.1863340  74.1821900 113.1656150  32.8293770  75.5870410
 117.2610200  47.9452770  90.0719190 117.1868900  48.8487910  90.3791560
 116.3589040  47.6264670  90.0441260 115.6446490  32.1230530  76.0758950
 115.2968490  31.4454520  75.4961400 115.8459260  31.6620040  76.8902340
 117.8095530  47.1111280  77.6945550 118.7046320  47.4496250  77.7164310
 117.8413160  46.3890690  77.0669830 111.4491690  42.4838330  75.9232550
 111.8866560  43.0268000  76.5790130 111.9339420  41.6585280  75.9328890
 108.6637490  45.2727360  83.3752810 108.9940500  44.4048420  83.1431450
 109.0928490  45.4785880  84.2057770 113.2599410  43.6036370  81.0354780
 112.9594950  43.4801340  81.9358690 113.1536900  42.7444960  80.6270510
 109.1527700  46.1397950  86.1134440 108.7158690  46.3198750  86.9458590
 109.7205380  46.8972570  85.9716160 108.9852130  38.6518180  82.4723320
 108.3300970  38.3829820  81.8283020 109.8230080  38.5422660  82.0225300
 110.0228060  39.0370750  87.0126660 110.3901100  38.9498150  87.8922680
 109.4538880  38.2737300  86.9133520 109.5744060  35.9479840  90.9185080
 108.6800110  35.9146600  91.2578790 110.1141610  36.1466630  91.6836330
 108.1990210  35.8617110  78.4148650 107.2954290  36.1247310  78.2400310
 108.6830830  36.1328280  77.6348610 110.7417420  34.9182650  76.3243030
 111.4509120  34.4965870  75.8390310 110.0257360  34.9857880  75.6926380
 110.3891580  30.9721980  75.3645680 111.1119710  31.5130920  75.6826900
 110.6616100  30.6985400  74.4887220 110.0783770  30.2228170  85.2668300
 110.7259960  29.6725550  84.8263460 110.4985610  30.4771320  86.0884110
 109.8315770  30.3783840  88.0093620 109.4830590  30.8347660  88.7751800
 109.5003470  29.4840970  88.0916050 111.4380140  43.5503440  92.1746810
 111.3949770  43.1796350  93.0561270 111.5691150  44.4881010  92.3148630
 115.1386170  45.1063030  87.7756530 114.8977530  45.3737590  86.8887050
 116.0788810  45.2768760  87.8307390 117.3440590  31.5695720  91.5313040
 117.2829480  32.1617550  92.2808450 118.2840970  31.4621680  91.3863300
 110.5036410  29.9060040  91.2844390 111.0519400  29.7248090  90.5210500
 110.5691720  29.1154150  91.8200700 111.2768170  46.4965690  89.2944590
 110.6828490  46.3650390  90.0334630 111.2692010  45.6603830  88.8286690
 110.9080400  43.8624070  88.2452630 110.1814460  43.2429360  88.1778580
 110.9689550  44.2564680  87.3750710 114.5125500  46.0769070  85.0302040
 115.0290520  45.4656430  84.5050300 115.1622880  46.5797850  85.5213050
 117.2521000  46.9677560  85.8571020 117.5398810  46.7131860  84.9804030
 117.7644220  46.4154920  86.4476590 118.4698010  30.7067760  86.4367530
 117.6869800  31.1813260  86.7164290 118.1760940  29.8022590  86.3280710
 109.1910400  47.1798460  81.4549390 109.0232440  46.5469140  82.1531280
 108.3244910  47.3857860  81.1043580 109.8138420  31.0115240  78.9581250
 110.5717780  31.1244120  78.3845280 109.3515590  31.8484440  78.9124680
 116.3552230  33.1254510  81.9483560 115.5426740  32.7511400  81.6079440
 116.8593870  32.3699590  82.2504750 110.7973100  45.8731690  78.8999530
 110.2720720  46.2539720  78.1961490 110.7217680  46.4982460  79.6209240
 112.1863570  31.5379290  77.4983220 112.7156330  30.7509090  77.3691170
 112.8191890  32.2170480  77.7318750 114.3801410  31.2754430  80.5528610
 113.7504150  30.5741740  80.7198740 113.8406550  32.0358560  80.3361770
 117.3193360  47.8893660  93.2239220 118.2460670  47.6537930  93.2675180
 117.3043790  48.7165660  92.7425250 114.5056970  30.5538410  92.9881100
 114.2241240  31.0572010  92.2241920 114.8876670  29.7560160  92.6223230
 113.3966070  47.8214070  77.7748780 114.1284890  47.5373350  77.2272670
 113.6559740  47.5827350  78.6648160 112.5580860  43.9378800  77.7795110
 111.9289740  44.4063900  78.3280940 112.6728690  43.0928020  78.2141300
 120.0130580  37.9884460  63.9296310 119.9324630  37.0739070  63.6588020
 119.5995000  38.4851530  63.2236020 118.1448620  39.7663480  65.8105580
 117.3690720  39.2863920  66.1004150 118.7961550  39.0869130  65.6361740
 112.1614450  40.0783290  66.6881340 111.3299330  39.8232000  67.0877850
 112.7695430  40.1494060  67.4239260 112.1415710  44.1123380  66.8839360
 112.4443750  43.2221120  66.7049580 112.8859300  44.6693600  66.6561610
 110.5706400  35.0385180  60.4723730 109.6823100  35.3801150  60.3703610
 110.8547590  34.8385500  59.5804560 108.5339410  37.6390830  66.3563430
 109.1055520  36.8713030  66.3567070 108.5340950  37.9379590  65.4470040
 118.3919360  46.4581680  64.2108700 117.7730800  46.9139180  63.6403140
 119.2471140  46.6133140  63.8098400 117.5857610  42.4420670  65.8175740
 117.5165890  41.5010610  65.6564870 118.3477470  42.5322080  66.3898310
 109.7764280  33.0475190  68.1432360 109.5967120  32.1500940  68.4235120
 109.3744360  33.5947060  68.8179310 118.6162780  35.2491050  66.0444670
 118.9927600  34.3762930  65.9318340 118.5182290  35.5849750  65.1535110
 112.7467790  33.6216680  61.5062110 112.8534540  34.5220410  61.8130870
 111.8360150  33.5734650  61.2156760 110.3950950  35.5435690  66.7514700
 111.0761060  35.8074060  67.3702100 110.0799000  34.7036560  67.0852710
 114.5875520  36.5903050  65.8387290 115.0953740  37.0884020  66.4792310
 115.1188760  35.8138250  65.6626650 112.8711620  31.2301610  70.1050710
 112.8730060  31.7474000  69.2996610 112.0415930  30.7531790  70.0820640
 119.2582710  41.3420920  61.6040610 118.6399980  41.8070370  61.0403330
 119.7705960  42.0348400  62.0210120 114.1214470  40.8696790  68.2824210
 113.7883850  41.4965710  68.9245280 114.2981150  41.3958670  67.5025880
 112.5526950  32.9411570  68.1121160 112.8943760  33.7853620  67.8175030
 111.6142760  33.0895310  68.2286500 113.3333570  42.8377590  70.0973390
 113.9507570  43.5128670  69.8157840 112.4726690  43.2465570  70.0060890
 108.6265910  42.0277450  58.9780240 108.2493890  42.5164550  58.2465140
 108.8838980  42.7002730  59.6086770 116.2354840  30.4293840  64.4365750
 116.5429820  29.8740730  63.7201250 115.3055540  30.5638300  64.2538740
 118.6235600  38.4942670  61.1725870 117.6964880  38.4280050  61.4014340
 118.7760420  39.4322800  61.0581110 118.6104680  34.7659670  58.1693030
 117.6708350  34.9273630  58.2545490 118.9287940  35.4845350  57.6229020
 114.2292240  39.0207410  63.9545600 113.8249240  38.3084660  63.4591500
 114.3155360  38.6760650  64.8433640 114.6973940  42.7074970  66.1184810
 114.4002230  42.1020440  65.4392590 115.6473760  42.7452280  66.0074170
 112.9420860  35.7950620  67.7344640 113.4935450  35.9045960  66.9597890
 113.4564370  36.1688220  68.4499870 113.7892370  42.4456660  72.7692610
 112.8920900  42.6696630  73.0166010 113.8145240  42.5691600  71.8204010
 112.6163590  39.3169980  71.3449980 112.4771360  40.1892780  71.7137380
 111.7344950  38.9742790  71.1997920 118.9392970  44.2345850  62.6515110
 119.3788880  44.9770180  62.2370500 118.8779860  44.4772420  63.5754070
 114.4143940  45.2591680  73.5535130 114.3859370  45.6634630  72.6863560
 114.2508910  44.3302040  73.3906730 110.9296870  37.9152390  61.4552250
 110.8094470  38.6414480  60.8433520 110.6197760  37.1455300  60.9780160
 108.5682240  41.0867530  67.2620890 108.6462660  41.2216300  66.3176610
 109.1823920  40.3783420  67.4549010 109.8129870  42.7867720  63.6727070
 109.4057950  42.9282310  62.8180670 110.7042880  42.5027880  63.4698280
 119.6308750  46.9359630  70.5794120 120.1453420  46.8467640  71.3816550
 118.7877830  47.2819330  70.8722030 114.0851530  47.0013500  61.7849740
 113.9094010  46.0849040  61.5717540 113.2307270  47.3600790  62.0247540
 108.6241760  42.1281700  69.8015350 108.7872800  41.6587060  68.9834720
 109.0894210  41.6205260  70.4664190 113.3960530  31.2587460  64.8375920
 112.9528680  32.0397000  64.5060440 113.9545520  31.5817350  65.5446860
 117.6830340  34.1255980  70.4411240 117.2209710  34.3339000  71.2531180
 117.2808450  33.3115330  70.1381910 116.5119350  30.8798160  59.7181750
 115.8873530  30.8758030  60.4435060 116.4249470  30.0129120  59.3217720
 115.4336430  31.8034790  66.6965520 115.7308760  32.7097620  66.6157540
 115.9821990  31.3153570  66.0825090 113.1874750  36.3821030  62.5657170
 112.9615670  36.1658200  63.4703790 112.4067280  36.8149490  62.2203140
 115.6273960  37.2806610  73.2317440 115.5317560  36.3401340  73.0817840
 116.4705940  37.5021680  72.8365510 119.0237380  35.0247940  63.1951100
 119.4166950  35.3420140  62.3819790 119.3854230  34.1459820  63.3095620
 110.7584500  33.6920280  71.3851220 110.3647890  34.5395490  71.5924000
 110.0702900  33.0546650  71.5759860 117.3329550  33.7755250  74.4547960
 116.6427870  33.5827450  75.0894050 118.0761850  34.0589890  74.9872260
 108.0601550  31.6148740  65.4181300 107.7714600  32.1851600  66.1306280
 108.8047310  31.1353190  65.7812530 108.2471780  35.5568860  56.6284020
 108.1646450  36.4999620  56.7699010 107.8954840  35.4143770  55.7496370
 119.6092520  37.6153690  67.2901880 118.8773640  38.1240500  67.6391980
 119.2116860  36.7983670  66.9890660 116.0469910  34.2907890  65.6954370
 116.0505970  33.8497840  64.8458910 116.9421030  34.6125220  65.8026190
 111.8972290  34.1734380  64.6548580 111.5572340  34.6509610  65.4115630
 111.1349610  33.7199500  64.2949680 116.1090060  35.2919970  58.6861130
 116.2302880  35.2506450  59.6346950 115.7238570  36.1544120  58.5307860
 120.0718430  33.0687370  66.7024820 120.0891170  33.5196020  67.5466670
 119.8234010  32.1693010  66.9158260 115.1211560  37.6021110  58.0844430
 114.5528460  37.1539360  57.4580340 115.8300560  37.9613890  57.5509580
 110.1980740  41.5033130  71.9611160 109.8135530  40.8626800  72.5594120
 110.5092930  42.2069250  72.5305890 116.3477880  38.3509670  67.4419780
 116.7148010  37.8768240  68.1881120 116.1582940  39.2251240  67.7828120
 109.2118370  33.0953360  63.5713250 108.9265290  32.7309030  64.4091870
 109.1497230  32.3633820  62.9576390 114.1377250  37.3918310  69.7603990
 113.8334320  38.2710290  69.9854350 115.0923710  37.4518100  69.7961430
 112.6659040  41.5979300  60.3570840 111.8921300  41.0576920  60.1969560
 113.3953670  41.0785910  60.0188600 118.8856960  31.9882620  60.2926620
 118.0721570  31.4895790  60.2171930 118.6918910  32.8280870  59.8762970
 118.8065820  40.6653720  72.0366230 118.7403130  39.7449390  71.7823820
 118.1770960  40.7629160  72.7510870 112.7096440  41.2659680  63.9949650
 113.2275110  40.4627940  63.9406540 112.2580460  41.2038820  64.8366480
 117.5965940  42.5325960  59.2676950 117.9381640  43.2768190  58.7720270
 116.7678650  42.8457080  59.6301780 110.1940980  38.2321050  70.9075350
 109.8355920  38.8974900  71.4948690 109.8995540  37.4004600  71.2787970
 113.3954100  38.6905290  73.7914900 113.0954240  38.8362470  72.8942720
 114.1665340  38.1310580  73.6988290 118.7382550  43.4874290  71.7870030
 118.7527090  42.5555250  71.5688940 118.0307650  43.5734050  72.4259800
 116.5656630  42.6139490  62.0392870 117.2527760  43.1608700  62.4200460
 115.7789050  43.1580220  62.0742480 108.7049030  38.2312310  57.5309950
 109.5743880  38.5137110  57.8145870 108.2139350  39.0448180  57.4158760
 115.8683840  39.6185520  61.6518230 116.3246620  40.4290770  61.8778420
 115.5172050  39.3008660  62.4836720 118.1716450  45.1291860  68.8810530
 118.8158670  45.3351240  69.5583950 118.5345890  44.3680260  68.4281380
 111.7695620  29.9623170  62.1240750 111.6410250  29.9541070  63.0725670
 110.9457640  30.3006260  61.7731760 119.4448530  43.1324210  67.5987980
 120.0870760  42.4317370  67.7120150 119.9697880  43.9122650  67.4184870
 109.0720280  47.4439690  58.0971580 109.4317920  48.0429030  57.4428850
 108.9312620  47.9899580  58.8706610 108.7689550  31.7214290  71.5847450
 108.0548070  31.9211210  72.1900060 109.1884590  30.9453860  71.9562250
 109.0562140  45.7094550  72.5713980 109.1653260  44.7689290  72.4309370
 108.4042700  45.9749300  71.9227710 117.0474730  43.9810440  73.9712100
 116.7271600  43.2619680  74.5157790 116.3733090  44.6565510  74.0448160
 115.0888900  44.8270890  58.9145250 115.0799000  45.5600580  58.2989760
 114.1687260  44.5802470  59.0072210 110.6895540  40.0485780  59.6592010
 110.0823490  40.7884680  59.6687310 111.1644890  40.1385140  58.8330210
 118.0748500  44.8899130  57.5770440 118.1760480  44.6863120  56.6472420
 117.1750240  44.6357410  57.7818220 115.5974390  35.4479490  61.5594340
 114.8890540  35.9165830  62.0007950 115.8818870  34.7901500  62.1939530
 117.2230320  36.8676190  69.5586870 117.7215570  37.3422010  70.2238720
 117.3653270  35.9439710  69.7656900 116.7166610  47.4085450  62.2718110
 116.9708110  47.3706840  61.3497480 115.7679090  47.2818780  62.2646360
 113.8009410  33.7564570  58.9345050 114.6499940  34.1934720  58.8685240
 113.4340680  34.0684830  59.7617110 112.7000830  40.0096930  57.4080580
 113.4664100  39.8978290  57.9706010 112.7775520  39.3134900  56.7557350
 111.3947590  37.4422000  58.0913470 111.4751180  36.4949510  58.2030870
 112.2867340  37.7728880  58.1974130 112.1962300  47.5917390  65.1948010
 112.9324780  47.0432850  65.4656580 112.5803220  48.4573400  65.0554000
 109.0807780  43.6590960  61.0689520 108.1547560  43.9012100  61.0594930
 109.5464210  44.4865220  60.9474270 111.2020580  46.7763460  74.3833590
 112.0033310  47.0975510  74.7968990 110.6872400  46.4159040  75.1053500
 115.3064610  46.7647700  57.0173580 116.0993220  47.0536530  56.5655370
 114.7868960  46.3339870  56.3386060 120.0385210  42.8843330  74.3309000
 119.4323370  42.9074930  73.5904750 119.7339320  42.1526370  74.8676250
 108.9218390  39.2636920  73.3269640 109.4257410  38.6844200  73.8985870
 108.1825810  39.5477150  73.8646010 115.8242010  41.9851110  56.8815930
 115.7192650  41.3703460  57.6077310 115.6566230  41.4617000  56.0978940
 115.9756330  40.6707910  72.8605160 115.2102000  41.2392910  72.7759830
 116.1572290  40.3784120  71.9673390 119.0644740  41.0471140  57.4857920
 118.5154840  41.4940440  58.1300660 119.6864000  40.5420390  58.0095590
 110.9541470  37.4066510  74.2219710 110.9946810  37.1080380  75.1304940
 111.8086970  37.8074120  74.0627230 114.7319860  40.0062060  59.3823220
 115.1536280  39.8401930  60.2254610 114.8570700  39.1962290  58.8878360
 112.8947280  35.9858610  72.1894200 112.3643740  35.4949560  71.5617540
 113.5635350  36.4142810  71.6552130 117.2447500  39.0299670  56.6300320
 117.7653160  38.3148690  56.2641470 117.8915900  39.6685540  56.9300830
 113.3819580  32.9520980  72.2691490 113.2876450  32.3341730  71.5442360
 112.8016970  33.6787270  72.0421400 116.1481020  31.5094220  69.3018880
 115.6998320  31.5318480  68.4564430 115.5146220  31.1113240  69.8989180
 116.5540570  40.4048550  69.9231320 116.9728680  41.2481280  69.7507560
 115.6349200  40.5420590  69.6938100 118.8904470  38.1364730  71.3069160
 119.0100680  37.5405870  72.0464000 119.7498470  38.1734420  70.8870460
 113.6278760  36.0795290  56.3281380 113.4267820  35.2162650  56.6894720
 113.4570810  35.9928650  55.3902980 114.4047990  46.7101560  71.0389050
 113.8669080  47.4347620  70.7197750 114.6581950  46.2331900  70.2486390
 115.6573240  34.6786080  72.5644980 116.2472930  34.3701930  73.2522800
 114.8393480  34.2065830  72.7204880 112.4261560  33.1795910  56.3159260
 112.7287460  33.1863340  55.4078410 113.1656150  32.8293770  56.8126920
 117.2610200  47.9452770  71.2975700 117.1868900  48.8487910  71.6048070
 116.3589040  47.6264670  71.2697770 115.6446490  32.1230530  57.3015460
 115.2968490  31.4454520  56.7217910 115.8459260  31.6620040  58.1158850
 117.8095530  47.1111280  58.9202060 118.7046320  47.4496250  58.9420820
 117.8413160  46.3890690  58.2926340 111.4491690  42.4838330  57.1489060
 111.8866560  43.0268000  57.8046640 111.9339420  41.6585280  57.1585400
 108.6637490  45.2727360  64.6009320 108.9940500  44.4048420  64.3687960
 109.0928490  45.4785880  65.4314280 113.2599410  43.6036370  62.2611290
 112.9594950  43.4801340  63.1615200 113.1536900  42.7444960  61.8527020
 109.1527700  46.1397950  67.3390950 108.7158690  46.3198750  68.1715100
 109.7205380  46.8972570  67.1972670 108.9852130  38.6518180  63.6979830
 108.3300970  38.3829820  63.0539530 109.8230080  38.5422660  63.2481810
 110.0228060  39.0370750  68.2383170 110.3901100  38.9498150  69.1179190
 109.4538880  38.2737300  68.1390030 109.5744060  35.9479840  72.1441590
 108.6800110  35.9146600  72.4835300 110.1141610  36.1466630  72.9092840
 108.1990210  35.8617110  59.6405160 107.2954290  36.1247310  59.4656820
 108.6830830  36.1328280  58.8605120 110.7417420  34.9182650  57.5499540
 111.4509120  34.4965870  57.0646820 110.0257360  34.9857880  56.9182890
 110.3891580  30.9721980  56.5902190 111.1119710  31.5130920  56.9083410
 110.6616100  30.6985400  55.7143730 110.0783770  30.2228170  66.4924810
 110.7259960  29.6725550  66.0519970 110.4985610  30.4771320  67.3140620
 109.8315770  30.3783840  69.2350130 109.4830590  30.8347660  70.0008310
 109.5003470  29.4840970  69.3172560 111.4380140  43.5503440  73.4003320
 111.3949770  43.1796350  74.2817780 111.5691150  44.4881010  73.5405140
 115.1386170  45.1063030  69.0013040 114.8977530  45.3737590  68.1143560
 116.0788810  45.2768760  69.0563900 117.3440590  31.5695720  72.7569550
 117.2829480  32.1617550  73.5064960 118.2840970  31.4621680  72.6119810
 110.5036410  29.9060040  72.5100900 111.0519400  29.7248090  71.7467010
 110.5691720  29.1154150  73.0457210 111.2768170  46.4965690  70.5201100
 110.6828490  46.3650390  71.2591140 111.2692010  45.6603830  70.0543200
 110.9080400  43.8624070  69.4709140 110.1814460  43.2429360  69.4035090
 110.9689550  44.2564680  68.6007220 114.5125500  46.0769070  66.2558550
 115.0290520  45.4656430  65.7306810 115.1622880  46.5797850  66.7469560
 117.2521000  46.9677560  67.0827530 117.5398810  46.7131860  66.2060540
 117.7644220  46.4154920  67.6733100 118.4698010  30.7067760  67.6624040
 117.6869800  31.1813260  67.9420800 118.1760940  29.8022590  67.5537220
 109.1910400  47.1798460  62.6805900 109.0232440  46.5469140  63.3787790
 108.3244910  47.3857860  62.3300090 109.8138420  31.0115240  60.1837760
 110.5717780  31.1244120  59.6101790 109.3515590  31.8484440  60.1381190
 116.3552230  33.1254510  63.1740070 115.5426740  32.7511400  62.8335950
 116.8593870  32.3699590  63.4761260 110.7973100  45.8731690  60.1256040
 110.2720720  46.2539720  59.4218000 110.7217680  46.4982460  60.8465750
 112.1863570  31.5379290  58.7239730 112.7156330  30.7509090  58.5947680
 112.8191890  32.2170480  58.9575260 114.3801410  31.2754430  61.7785120
 113.7504150  30.5741740  61.9455250 113.8406550  32.0358560  61.5618280
 117.3193360  47.8893660  74.4495730 118.2460670  47.6537930  74.4931690
 117.3043790  48.7165660  73.9681760 114.5056970  30.5538410  74.2137610
 114.2241240  31.0572010  73.4498430 114.8876670  29.7560160  73.8479740
 113.3966070  47.8214070  59.0005290 114.1284890  47.5373350  58.4529180
 113.6559740  47.5827350  59.8904670 112.5580860  43.9378800  59.0051620
 111.9289740  44.4063900  59.5537450 112.6728690  43.0928020  59.4397810
 120.0130580  37.9884460  45.1552820 119.9324630  37.0739070  44.8844530
 119.5995000  38.4851530  44.4492530 118.1448620  39.7663480  47.0362090
 117.3690720  39.2863920  47.3260660 118.7961550  39.0869130  46.8618250
 112.1614450  40.0783290  47.9137850 111.3299330  39.8232000  48.3134360
 112.7695430  40.1494060  48.6495770 112.1415710  44.1123380  48.1095870
 112.4443750  43.2221120  47.9306090 112.8859300  44.6693600  47.8818120
 110.5706400  35.0385180  41.6980240 109.6823100  35.3801150  41.5960120
 110.8547590  34.8385500  40.8061070 108.5339410  37.6390830  47.5819940
 109.1055520  36.8713030  47.5823580 108.5340950  37.9379590  46.6726550
 118.3919360  46.4581680  45.4365210 117.7730800  46.9139180  44.8659650
 119.2471140  46.6133140  45.0354910 117.5857610  42.4420670  47.0432250
 117.5165890  41.5010610  46.8821380 118.3477470  42.5322080  47.6154820
 109.7764280  33.0475190  49.3688870 109.5967120  32.1500940  49.6491630
 109.3744360  33.5947060  50.0435820 118.6162780  35.2491050  47.2701180
 118.9927600  34.3762930  47.1574850 118.5182290  35.5849750  46.3791620
 112.7467790  33.6216680  42.7318620 112.8534540  34.5220410  43.0387380
 111.8360150  33.5734650  42.4413270 110.3950950  35.5435690  47.9771210
 111.0761060  35.8074060  48.5958610 110.0799000  34.7036560  48.3109220
 114.5875520  36.5903050  47.0643800 115.0953740  37.0884020  47.7048820
 115.1188760  35.8138250  46.8883160 112.8711620  31.2301610  51.3307220
 112.8730060  31.7474000  50.5253120 112.0415930  30.7531790  51.3077150
 119.2582710  41.3420920  42.8297120 118.6399980  41.8070370  42.2659840
 119.7705960  42.0348400  43.2466630 114.1214470  40.8696790  49.5080720
 113.7883850  41.4965710  50.1501790 114.2981150  41.3958670  48.7282390
 112.5526950  32.9411570  49.3377670 112.8943760  33.7853620  49.0431540
 111.6142760  33.0895310  49.4543010 113.3333570  42.8377590  51.3229900
 113.9507570  43.5128670  51.0414350 112.4726690  43.2465570  51.2317400
 108.6265910  42.0277450  40.2036750 108.2493890  42.5164550  39.4721650
 108.8838980  42.7002730  40.8343280 116.2354840  30.4293840  45.6622260
 116.5429820  29.8740730  44.9457760 115.3055540  30.5638300  45.4795250
 118.6235600  38.4942670  42.3982380 117.6964880  38.4280050  42.6270850
 118.7760420  39.4322800  42.2837620 118.6104680  34.7659670  39.3949540
 117.6708350  34.9273630  39.4802000 118.9287940  35.4845350  38.8485530
 114.2292240  39.0207410  45.1802110 113.8249240  38.3084660  44.6848010
 114.3155360  38.6760650  46.0690150 114.6973940  42.7074970  47.3441320
 114.4002230  42.1020440  46.6649100 115.6473760  42.7452280  47.2330680
 112.9420860  35.7950620  48.9601150 113.4935450  35.9045960  48.1854400
 113.4564370  36.1688220  49.6756380 113.7892370  42.4456660  53.9949120
 112.8920900  42.6696630  54.2422520 113.8145240  42.5691600  53.0460520
 112.6163590  39.3169980  52.5706490 112.4771360  40.1892780  52.9393890
 111.7344950  38.9742790  52.4254430 118.9392970  44.2345850  43.8771620
 119.3788880  44.9770180  43.4627010 118.8779860  44.4772420  44.8010580
 114.4143940  45.2591680  54.7791640 114.3859370  45.6634630  53.9120070
 114.2508910  44.3302040  54.6163240 110.9296870  37.9152390  42.6808760
 110.8094470  38.6414480  42.0690030 110.6197760  37.1455300  42.2036670
 108.5682240  41.0867530  48.4877400 108.6462660  41.2216300  47.5433120
 109.1823920  40.3783420  48.6805520 109.8129870  42.7867720  44.8983580
 109.4057950  42.9282310  44.0437180 110.7042880  42.5027880  44.6954790
 119.6308750  46.9359630  51.8050630 120.1453420  46.8467640  52.6073060
 118.7877830  47.2819330  52.0978540 114.0851530  47.0013500  43.0106250
 113.9094010  46.0849040  42.7974050 113.2307270  47.3600790  43.2504050
 108.6241760  42.1281700  51.0271860 108.7872800  41.6587060  50.2091230
 109.0894210  41.6205260  51.6920700 113.3960530  31.2587460  46.0632430
 112.9528680  32.0397000  45.7316950 113.9545520  31.5817350  46.7703370
 117.6830340  34.1255980  51.6667750 117.2209710  34.3339000  52.4787690
 117.2808450  33.3115330  51.3638420 116.5119350  30.8798160  40.9438260
 115.8873530  30.8758030  41.6691570 116.4249470  30.0129120  40.5474230
 115.4336430  31.8034790  47.9222030 115.7308760  32.7097620  47.8414050
 115.9821990  31.3153570  47.3081600 113.1874750  36.3821030  43.7913680
 112.9615670  36.1658200  44.6960300 112.4067280  36.8149490  43.4459650
 115.6273960  37.2806610  54.4573950 115.5317560  36.3401340  54.3074350
 116.4705940  37.5021680  54.0622020 119.0237380  35.0247940  44.4207610
 119.4166950  35.3420140  43.6076300 119.3854230  34.1459820  44.5352130
 110.7584500  33.6920280  52.6107730 110.3647890  34.5395490  52.8180510
 110.0702900  33.0546650  52.8016370 117.3329550  33.7755250  55.6804470
 116.6427870  33.5827450  56.3150560 118.0761850  34.0589890  56.2128770
 108.0601550  31.6148740  46.6437810 107.7714600  32.1851600  47.3562790
 108.8047310  31.1353190  47.0069040 108.2471780  35.5568860  37.8540530
 108.1646450  36.4999620  37.9955520 107.8954840  35.4143770  36.9752880
 119.6092520  37.6153690  48.5158390 118.8773640  38.1240500  48.8648490
 119.2116860  36.7983670  48.2147170 116.0469910  34.2907890  46.9210880
 116.0505970  33.8497840  46.0715420 116.9421030  34.6125220  47.0282700
 111.8972290  34.1734380  45.8805090 111.5572340  34.6509610  46.6372140
 111.1349610  33.7199500  45.5206190 116.1090060  35.2919970  39.9117640
 116.2302880  35.2506450  40.8603460 115.7238570  36.1544120  39.7564370
 120.0718430  33.0687370  47.9281330 120.0891170  33.5196020  48.7723180
 119.8234010  32.1693010  48.1414770 115.1211560  37.6021110  39.3100940
 114.5528460  37.1539360  38.6836850 115.8300560  37.9613890  38.7766090
 110.1980740  41.5033130  53.1867670 109.8135530  40.8626800  53.7850630
 110.5092930  42.2069250  53.7562400 116.3477880  38.3509670  48.6676290
 116.7148010  37.8768240  49.4137630 116.1582940  39.2251240  49.0084630
 109.2118370  33.0953360  44.7969760 108.9265290  32.7309030  45.6348380
 109.1497230  32.3633820  44.1832900 114.1377250  37.3918310  50.9860500
 113.8334320  38.2710290  51.2110860 115.0923710  37.4518100  51.0217940
 112.6659040  41.5979300  41.5827350 111.8921300  41.0576920  41.4226070
 113.3953670  41.0785910  41.2445110 118.8856960  31.9882620  41.5183130
 118.0721570  31.4895790  41.4428440 118.6918910  32.8280870  41.1019480
 118.8065820  40.6653720  53.2622740 118.7403130  39.7449390  53.0080330
 118.1770960  40.7629160  53.9767380 112.7096440  41.2659680  45.2206160
 113.2275110  40.4627940  45.1663050 112.2580460  41.2038820  46.0622990
 117.5965940  42.5325960  40.4933460 117.9381640  43.2768190  39.9976780
 116.7678650  42.8457080  40.8558290 110.1940980  38.2321050  52.1331860
 109.8355920  38.8974900  52.7205200 109.8995540  37.4004600  52.5044480
 113.3954100  38.6905290  55.0171410 113.0954240  38.8362470  54.1199230
 114.1665340  38.1310580  54.9244800 118.7382550  43.4874290  53.0126540
 118.7527090  42.5555250  52.7945450 118.0307650  43.5734050  53.6516310
 116.5656630  42.6139490  43.2649380 117.2527760  43.1608700  43.6456970
 115.7789050  43.1580220  43.2998990 108.7049030  38.2312310  38.7566460
 109.5743880  38.5137110  39.0402380 108.2139350  39.0448180  38.6415270
 115.8683840  39.6185520  42.8774740 116.3246620  40.4290770  43.1034930
 115.5172050  39.3008660  43.7093230 118.1716450  45.1291860  50.1067040
 118.8158670  45.3351240  50.7840460 118.5345890  44.3680260  49.6537890
 111.7695620  29.9623170  43.3497260 111.6410250  29.9541070  44.2982180
 110.9457640  30.3006260  42.9988270 119.4448530  43.1324210  48.8244490
 120.0870760  42.4317370  48.9376660 119.9697880  43.9122650  48.6441380
 109.0720280  47.4439690  39.3228090 109.4317920  48.0429030  38.6685360
 108.9312620  47.9899580  40.0963120 108.7689550  31.7214290  52.8103960
 108.0548070  31.9211210  53.4156570 109.1884590  30.9453860  53.1818760
 109.0562140  45.7094550  53.7970490 109.1653260  44.7689290  53.6565880
 108.4042700  45.9749300  53.1484220 117.0474730  43.9810440  55.1968610
 116.7271600  43.2619680  55.7414300 116.3733090  44.6565510  55.2704670
 115.0888900  44.8270890  40.1401760 115.0799000  45.5600580  39.5246270
 114.1687260  44.5802470  40.2328720 110.6895540  40.0485780  40.8848520
 110.0823490  40.7884680  40.8943820 111.1644890  40.1385140  40.0586720
 118.0748500  44.8899130  38.8026950 118.1760480  44.6863120  37.8728930
 117.1750240  44.6357410  39.0074730 115.5974390  35.4479490  42.7850850
 114.8890540  35.9165830  43.2264460 115.8818870  34.7901500  43.4196040
 117.2230320  36.8676190  50.7843380 117.7215570  37.3422010  51.4495230
 117.3653270  35.9439710  50.9913410 116.7166610  47.4085450  43.4974620
 116.9708110  47.3706840  42.5753990 115.7679090  47.2818780  43.4902870
 113.8009410  33.7564570  40.1601560 114.6499940  34.1934720  40.0941750
 113.4340680  34.0684830  40.9873620 112.7000830  40.0096930  38.6337090
 113.4664100  39.8978290  39.1962520 112.7775520  39.3134900  37.9813860
 111.3947590  37.4422000  39.3169980 111.4751180  36.4949510  39.4287380
 112.2867340  37.7728880  39.4230640 112.1962300  47.5917390  46.4204520
 112.9324780  47.0432850  46.6913090 112.5803220  48.4573400  46.2810510
 109.0807780  43.6590960  42.2946030 108.1547560  43.9012100  42.2851440
 109.5464210  44.4865220  42.1730780 111.2020580  46.7763460  55.6090100
 112.0033310  47.0975510  56.0225500 110.6872400  46.4159040  56.3310010
 115.3064610  46.7647700  38.2430090 116.0993220  47.0536530  37.7911880
 114.7868960  46.3339870  37.5642570 120.0385210  42.8843330  55.5565510
 119.4323370  42.9074930  54.8161260 119.7339320  42.1526370  56.0932760
 108.9218390  39.2636920  54.5526150 109.4257410  38.6844200  55.1242380
 108.1825810  39.5477150  55.0902520 115.8242010  41.9851110  38.1072440
 115.7192650  41.3703460  38.8333820 115.6566230  41.4617000  37.3235450
 115.9756330  40.6707910  54.0861670 115.2102000  41.2392910  54.0016340
 116.1572290  40.3784120  53.1929900 119.0644740  41.0471140  38.7114430
 118.5154840  41.4940440  39.3557170 119.6864000  40.5420390  39.2352100
 110.9541470  37.4066510  55.4476220 110.9946810  37.1080380  56.3561450
 111.8086970  37.8074120  55.2883740 114.7319860  40.0062060  40.6079730
 115.1536280  39.8401930  41.4511120 114.8570700  39.1962290  40.1134870
 112.8947280  35.9858610  53.4150710 112.3643740  35.4949560  52.7874050
 113.5635350  36.4142810  52.8808640 117.2447500  39.0299670  37.8556830
 117.7653160  38.3148690  37.4897980 117.8915900  39.6685540  38.1557340
 113.3819580  32.9520980  53.4948000 113.2876450  32.3341730  52.7698870
 112.8016970  33.6787270  53.2677910 116.1481020  31.5094220  50.5275390
 115.6998320  31.5318480  49.6820940 115.5146220  31.1113240  51.1245690
 116.5540570  40.4048550  51.1487830 116.9728680  41.2481280  50.9764070
 115.6349200  40.5420590  50.9194610 118.8904470  38.1364730  52.5325670
 119.0100680  37.5405870  53.2720510 119.7498470  38.1734420  52.1126970
 113.6278760  36.0795290  37.5537890 113.4267820  35.2162650  37.9151230
 113.4570810  35.9928650  36.6159490 114.4047990  46.7101560  52.2645560
 113.8669080  47.4347620  51.9454260 114.6581950  46.2331900  51.4742900
 115.6573240  34.6786080  53.7901490 116.2472930  34.3701930  54.4779310
 114.8393480  34.2065830  53.9461390 112.4261560  33.1795910  37.5415770
 112.7287460  33.1863340  36.6334920 113.1656150  32.8293770  38.0383430
 117.2610200  47.9452770  52.5232210 117.1868900  48.8487910  52.8304580
 116.3589040  47.6264670  52.4954280 115.6446490  32.1230530  38.5271970
 115.2968490  31.4454520  37.9474420 115.8459260  31.6620040  39.3415360
 117.8095530  47.1111280  40.1458570 118.7046320  47.4496250  40.1677330
 117.8413160  46.3890690  39.5182850 111.4491690  42.4838330  38.3745570
 111.8866560  43.0268000  39.0303150 111.9339420  41.6585280  38.3841910
 108.6637490  45.2727360  45.8265830 108.9940500  44.4048420  45.5944470
 109.0928490  45.4785880  46.6570790 113.2599410  43.6036370  43.4867800
 112.9594950  43.4801340  44.3871710 113.1536900  42.7444960  43.0783530
 109.1527700  46.1397950  48.5647460 108.7158690  46.3198750  49.3971610
 109.7205380  46.8972570  48.4229180 108.9852130  38.6518180  44.9236340
 108.3300970  38.3829820  44.2796040 109.8230080  38.5422660  44.4738320
 110.0228060  39.0370750  49.4639680 110.3901100  38.9498150  50.3435700
 109.4538880  38.2737300  49.3646540 109.5744060  35.9479840  53.3698100
 108.6800110  35.9146600  53.7091810 110.1141610  36.1466630  54.1349350
 108.1990210  35.8617110  40.8661670 107.2954290  36.1247310  40.6913330
 108.6830830  36.1328280  40.0861630 110.7417420  34.9182650  38.7756050
 111.4509120  34.4965870  38.2903330 110.0257360  34.9857880  38.1439400
 110.3891580  30.9721980  37.8158700 111.1119710  31.5130920  38.1339920
 110.6616100  30.6985400  36.9400240 110.0783770  30.2228170  47.7181320
 110.7259960  29.6725550  47.2776480 110.4985610  30.4771320  48.5397130
 109.8315770  30.3783840  50.4606640 109.4830590  30.8347660  51.2264820
 109.5003470  29.4840970  50.5429070 111.4380140  43.5503440  54.6259830
 111.3949770  43.1796350  55.5074290 111.5691150  44.4881010  54.7661650
 115.1386170  45.1063030  50.2269550 114.8977530  45.3737590  49.3400070
 116.0788810  45.2768760  50.2820410 117.3440590  31.5695720  53.9826060
 117.2829480  32.1617550  54.7321470 118.2840970  31.4621680  53.8376320
 110.5036410  29.9060040  53.7357410 111.0519400  29.7248090  52.9723520
 110.5691720  29.1154150  54.2713720 111.2768170  46.4965690  51.7457610
 110.6828490  46.3650390  52.4847650 111.2692010  45.6603830  51.2799710
 110.9080400  43.8624070  50.6965650 110.1814460  43.2429360  50.6291600
 110.9689550  44.2564680  49.8263730 114.5125500  46.0769070  47.4815060
 115.0290520  45.4656430  46.9563320 115.1622880  46.5797850  47.9726070
 117.2521000  46.9677560  48.3084040 117.5398810  46.7131860  47.4317050
 117.7644220  46.4154920  48.8989610 118.4698010  30.7067760  48.8880550
 117.6869800  31.1813260  49.1677310 118.1760940  29.8022590  48.7793730
 109.1910400  47.1798460  43.9062410 109.0232440  46.5469140  44.6044300
 108.3244910  47.3857860  43.5556600 109.8138420  31.0115240  41.4094270
 110.5717780  31.1244120  40.8358300 109.3515590  31.8484440  41.3637700
 116.3552230  33.1254510  44.3996580 115.5426740  32.7511400  44.0592460
 116.8593870  32.3699590  44.7017770 110.7973100  45.8731690  41.3512550
 110.2720720  46.2539720  40.6474510 110.7217680  46.4982460  42.0722260
 112.1863570  31.5379290  39.9496240 112.7156330  30.7509090  39.8204190
 112.8191890  32.2170480  40.1831770 114.3801410  31.2754430  43.0041630
 113.7504150  30.5741740  43.1711760 113.8406550  32.0358560  42.7874790
 117.3193360  47.8893660  55.6752240 118.2460670  47.6537930  55.7188200
 117.3043790  48.7165660  55.1938270 114.5056970  30.5538410  55.4394120
 114.2241240  31.0572010  54.6754940 114.8876670  29.7560160  55.0736250
 113.3966070  47.8214070  40.2261800 114.1284890  47.5373350  39.6785690
 113.6559740  47.5827350  41.1161180 112.5580860  43.9378800  40.2308130
 111.9289740  44.4063900  40.7793960 112.6728690  43.0928020  40.6654320
 120.0130580  37.9884460  26.3809330 119.9324630  37.0739070  26.1101040
 119.5995000  38.4851530  25.6749040 118.1448620  39.7663480  28.2618600
 117.3690720  39.2863920  28.5517170 118.7961550  39.0869130  28.0874760
 112.1614450  40.0783290  29.1394360 111.3299330  39.8232000  29.5390870
 112.7695430  40.1494060  29.8752280 112.1415710  44.1123380  29.3352380
 112.4443750  43.2221120  29.1562600 112.8859300  44.6693600  29.1074630
 110.5706400  35.0385180  22.9236750 109.6823100  35.3801150  22.8216630
 110.8547590  34.8385500  22.0317580 108.5339410  37.6390830  28.8076450
 109.1055520  36.8713030  28.8080090 108.5340950  37.9379590  27.8983060
 118.3919360  46.4581680  26.6621720 117.7730800  46.9139180  26.0916160
 119.2471140  46.6133140  26.2611420 117.5857610  42.4420670  28.2688760
 117.5165890  41.5010610  28.1077890 118.3477470  42.5322080  28.8411330
 109.7764280  33.0475190  30.5945380 109.5967120  32.1500940  30.8748140
 109.3744360  33.5947060  31.2692330 118.6162780  35.2491050  28.4957690
 118.9927600  34.3762930  28.3831360 118.5182290  35.5849750  27.6048130
 112.7467790  33.6216680  23.9575130 112.8534540  34.5220410  24.2643890
 111.8360150  33.5734650  23.6669780 110.3950950  35.5435690  29.2027720
 111.0761060  35.8074060  29.8215120 110.0799000  34.7036560  29.5365730
 114.5875520  36.5903050  28.2900310 115.0953740  37.0884020  28.9305330
 115.1188760  35.8138250  28.1139670 112.8711620  31.2301610  32.5563730
 112.8730060  31.7474000  31.7509630 112.0415930  30.7531790  32.5333660
 119.2582710  41.3420920  24.0553630 118.6399980  41.8070370  23.4916350
 119.7705960  42.0348400  24.4723140 114.1214470  40.8696790  30.7337230
 113.7883850  41.4965710  31.3758300 114.2981150  41.3958670  29.9538900
 112.5526950  32.9411570  30.5634180 112.8943760  33.7853620  30.2688050
 111.6142760  33.0895310  30.6799520 113.3333570  42.8377590  32.5486410
 113.9507570  43.5128670  32.2670860 112.4726690  43.2465570  32.4573910
 108.6265910  42.0277450  21.4293260 108.2493890  42.5164550  20.6978160
 108.8838980  42.7002730  22.0599790 116.2354840  30.4293840  26.8878770
 116.5429820  29.8740730  26.1714270 115.3055540  30.5638300  26.7051760
 118.6235600  38.4942670  23.6238890 117.6964880  38.4280050  23.8527360
 118.7760420  39.4322800  23.5094130 118.6104680  34.7659670  20.6206050
 117.6708350  34.9273630  20.7058510 118.9287940  35.4845350  20.0742040
 114.2292240  39.0207410  26.4058620 113.8249240  38.3084660  25.9104520
 114.3155360  38.6760650  27.2946660 114.6973940  42.7074970  28.5697830
 114.4002230  42.1020440  27.8905610 115.6473760  42.7452280  28.4587190
 112.9420860  35.7950620  30.1857660 113.4935450  35.9045960  29.4110910
 113.4564370  36.1688220  30.9012890 113.7892370  42.4456660  35.2205630
 112.8920900  42.6696630  35.4679030 113.8145240  42.5691600  34.2717030
 112.6163590  39.3169980  33.7963000 112.4771360  40.1892780  34.1650400
 111.7344950  38.9742790  33.6510940 118.9392970  44.2345850  25.1028130
 119.3788880  44.9770180  24.6883520 118.8779860  44.4772420  26.0267090
 114.4143940  45.2591680  36.0048150 114.3859370  45.6634630  35.1376580
 114.2508910  44.3302040  35.8419750 110.9296870  37.9152390  23.9065270
 110.8094470  38.6414480  23.2946540 110.6197760  37.1455300  23.4293180
 108.5682240  41.0867530  29.7133910 108.6462660  41.2216300  28.7689630
 109.1823920  40.3783420  29.9062030 109.8129870  42.7867720  26.1240090
 109.4057950  42.9282310  25.2693690 110.7042880  42.5027880  25.9211300
 119.6308750  46.9359630  33.0307140 120.1453420  46.8467640  33.8329570
 118.7877830  47.2819330  33.3235050 114.0851530  47.0013500  24.2362760
 113.9094010  46.0849040  24.0230560 113.2307270  47.3600790  24.4760560
 108.6241760  42.1281700  32.2528370 108.7872800  41.6587060  31.4347740
 109.0894210  41.6205260  32.9177210 113.3960530  31.2587460  27.2888940
 112.9528680  32.0397000  26.9573460 113.9545520  31.5817350  27.9959880
 117.6830340  34.1255980  32.8924260 117.2209710  34.3339000  33.7044200
 117.2808450  33.3115330  32.5894930 116.5119350  30.8798160  22.1694770
 115.8873530  30.8758030  22.8948080 116.4249470  30.0129120  21.7730740
 115.4336430  31.8034790  29.1478540 115.7308760  32.7097620  29.0670560
 115.9821990  31.3153570  28.5338110 113.1874750  36.3821030  25.0170190
 112.9615670  36.1658200  25.9216810 112.4067280  36.8149490  24.6716160
 115.6273960  37.2806610  35.6830460 115.5317560  36.3401340  35.5330860
 116.4705940  37.5021680  35.2878530 119.0237380  35.0247940  25.6464120
 119.4166950  35.3420140  24.8332810 119.3854230  34.1459820  25.7608640
 110.7584500  33.6920280  33.8364240 110.3647890  34.5395490  34.0437020
 110.0702900  33.0546650  34.0272880 117.3329550  33.7755250  36.9060980
 116.6427870  33.5827450  37.5407070 118.0761850  34.0589890  37.4385280
 108.0601550  31.6148740  27.8694320 107.7714600  32.1851600  28.5819300
 108.8047310  31.1353190  28.2325550 108.2471780  35.5568860  19.0797040
 108.1646450  36.4999620  19.2212030 107.8954840  35.4143770  18.2009390
 119.6092520  37.6153690  29.7414900 118.8773640  38.1240500  30.0905000
 119.2116860  36.7983670  29.4403680 116.0469910  34.2907890  28.1467390
 116.0505970  33.8497840  27.2971930 116.9421030  34.6125220  28.2539210
 111.8972290  34.1734380  27.1061600 111.5572340  34.6509610  27.8628650
 111.1349610  33.7199500  26.7462700 116.1090060  35.2919970  21.1374150
 116.2302880  35.2506450  22.0859970 115.7238570  36.1544120  20.9820880
 120.0718430  33.0687370  29.1537840 120.0891170  33.5196020  29.9979690
 119.8234010  32.1693010  29.3671280 115.1211560  37.6021110  20.5357450
 114.5528460  37.1539360  19.9093360 115.8300560  37.9613890  20.0022600
 110.1980740  41.5033130  34.4124180 109.8135530  40.8626800  35.0107140
 110.5092930  42.2069250  34.9818910 116.3477880  38.3509670  29.8932800
 116.7148010  37.8768240  30.6394140 116.1582940  39.2251240  30.2341140
 109.2118370  33.0953360  26.0226270 108.9265290  32.7309030  26.8604890
 109.1497230  32.3633820  25.4089410 114.1377250  37.3918310  32.2117010
 113.8334320  38.2710290  32.4367370 115.0923710  37.4518100  32.2474450
 112.6659040  41.5979300  22.8083860 111.8921300  41.0576920  22.6482580
 113.3953670  41.0785910  22.4701620 118.8856960  31.9882620  22.7439640
 118.0721570  31.4895790  22.6684950 118.6918910  32.8280870  22.3275990
 118.8065820  40.6653720  34.4879250 118.7403130  39.7449390  34.2336840
 118.1770960  40.7629160  35.2023890 112.7096440  41.2659680  26.4462670
 113.2275110  40.4627940  26.3919560 112.2580460  41.2038820  27.2879500
 117.5965940  42.5325960  21.7189970 117.9381640  43.2768190  21.2233290
 116.7678650  42.8457080  22.0814800 110.1940980  38.2321050  33.3588370
 109.8355920  38.8974900  33.9461710 109.8995540  37.4004600  33.7300990
 113.3954100  38.6905290  36.2427920 113.0954240  38.8362470  35.3455740
 114.1665340  38.1310580  36.1501310 118.7382550  43.4874290  34.2383050
 118.7527090  42.5555250  34.0201960 118.0307650  43.5734050  34.8772820
 116.5656630  42.6139490  24.4905890 117.2527760  43.1608700  24.8713480
 115.7789050  43.1580220  24.5255500 108.7049030  38.2312310  19.9822970
 109.5743880  38.5137110  20.2658890 108.2139350  39.0448180  19.8671780
 115.8683840  39.6185520  24.1031250 116.3246620  40.4290770  24.3291440
 115.5172050  39.3008660  24.9349740 118.1716450  45.1291860  31.3323550
 118.8158670  45.3351240  32.0096970 118.5345890  44.3680260  30.8794400
 111.7695620  29.9623170  24.5753770 111.6410250  29.9541070  25.5238690
 110.9457640  30.3006260  24.2244780 119.4448530  43.1324210  30.0501000
 120.0870760  42.4317370  30.1633170 119.9697880  43.9122650  29.8697890
 109.0720280  47.4439690  20.5484600 109.4317920  48.0429030  19.8941870
 108.9312620  47.9899580  21.3219630 108.7689550  31.7214290  34.0360470
 108.0548070  31.9211210  34.6413080 109.1884590  30.9453860  34.4075270
 109.0562140  45.7094550  35.0227000 109.1653260  44.7689290  34.8822390
 108.4042700  45.9749300  34.3740730 117.0474730  43.9810440  36.4225120
 116.7271600  43.2619680  36.9670810 116.3733090  44.6565510  36.4961180
 115.0888900  44.8270890  21.3658270 115.0799000  45.5600580  20.7502780
 114.1687260  44.5802470  21.4585230 110.6895540  40.0485780  22.1105030
 110.0823490  40.7884680  22.1200330 111.1644890  40.1385140  21.2843230
 118.0748500  44.8899130  20.0283460 118.1760480  44.6863120  19.0985440
 117.1750240  44.6357410  20.2331240 115.5974390  35.4479490  24.0107360
 114.8890540  35.9165830  24.4520970 115.8818870  34.7901500  24.6452550
 117.2230320  36.8676190  32.0099890 117.7215570  37.3422010  32.6751740
 117.3653270  35.9439710  32.2169920 116.7166610  47.4085450  24.7231130
 116.9708110  47.3706840  23.8010500 115.7679090  47.2818780  24.7159380
 113.8009410  33.7564570  21.3858070 114.6499940  34.1934720  21.3198260
 113.4340680  34.0684830  22.2130130 112.7000830  40.0096930  19.8593600
 113.4664100  39.8978290  20.4219030 112.7775520  39.3134900  19.2070370
 111.3947590  37.4422000  20.5426490 111.4751180  36.4949510  20.6543890
 112.2867340  37.7728880  20.6487150 112.1962300  47.5917390  27.6461030
 112.9324780  47.0432850  27.9169600 112.5803220  48.4573400  27.5067020
 109.0807780  43.6590960  23.5202540 108.1547560  43.9012100  23.5107950
 109.5464210  44.4865220  23.3987290 111.2020580  46.7763460  36.8346610
 112.0033310  47.0975510  37.2482010 110.6872400  46.4159040  37.5566520
 115.3064610  46.7647700  19.4686600 116.0993220  47.0536530  19.0168390
 114.7868960  46.3339870  18.7899080 120.0385210  42.8843330  36.7822020
 119.4323370  42.9074930  36.0417770 119.7339320  42.1526370  37.3189270
 108.9218390  39.2636920  35.7782660 109.4257410  38.6844200  36.3498890
 108.1825810  39.5477150  36.3159030 115.8242010  41.9851110  19.3328950
 115.7192650  41.3703460  20.0590330 115.6566230  41.4617000  18.5491960
 115.9756330  40.6707910  35.3118180 115.2102000  41.2392910  35.2272850
 116.1572290  40.3784120  34.4186410 119.0644740  41.0471140  19.9370940
 118.5154840  41.4940440  20.5813680 119.6864000  40.5420390  20.4608610
 110.9541470  37.4066510  36.6732730 110.9946810  37.1080380  37.5817960
 111.8086970  37.8074120  36.5140250 114.7319860  40.0062060  21.8336240
 115.1536280  39.8401930  22.6767630 114.8570700  39.1962290  21.3391380
 112.8947280  35.9858610  34.6407220 112.3643740  35.4949560  34.0130560
 113.5635350  36.4142810  34.1065150 117.2447500  39.0299670  19.0813340
 117.7653160  38.3148690  18.7154490 117.8915900  39.6685540  19.3813850
 113.3819580  32.9520980  34.7204510 113.2876450  32.3341730  33.9955380
 112.8016970  33.6787270  34.4934420 116.1481020  31.5094220  31.7531900
 115.6998320  31.5318480  30.9077450 115.5146220  31.1113240  32.3502200
 116.5540570  40.4048550  32.3744340 116.9728680  41.2481280  32.2020580
 115.6349200  40.5420590  32.1451120 118.8904470  38.1364730  33.7582180
 119.0100680  37.5405870  34.4977020 119.7498470  38.1734420  33.3383480
 113.6278760  36.0795290  18.7794400 113.4267820  35.2162650  19.1407740
 113.4570810  35.9928650  17.8416000 114.4047990  46.7101560  33.4902070
 113.8669080  47.4347620  33.1710770 114.6581950  46.2331900  32.6999410
 115.6573240  34.6786080  35.0158000 116.2472930  34.3701930  35.7035820
 114.8393480  34.2065830  35.1717900 112.4261560  33.1795910  18.7672280
 112.7287460  33.1863340  17.8591430 113.1656150  32.8293770  19.2639940
 117.2610200  47.9452770  33.7488720 117.1868900  48.8487910  34.0561090
 116.3589040  47.6264670  33.7210790 115.6446490  32.1230530  19.7528480
 115.2968490  31.4454520  19.1730930 115.8459260  31.6620040  20.5671870
 117.8095530  47.1111280  21.3715080 118.7046320  47.4496250  21.3933840
 117.8413160  46.3890690  20.7439360 111.4491690  42.4838330  19.6002080
 111.8866560  43.0268000  20.2559660 111.9339420  41.6585280  19.6098420
 108.6637490  45.2727360  27.0522340 108.9940500  44.4048420  26.8200980
 109.0928490  45.4785880  27.8827300 113.2599410  43.6036370  24.7124310
 112.9594950  43.4801340  25.6128220 113.1536900  42.7444960  24.3040040
 109.1527700  46.1397950  29.7903970 108.7158690  46.3198750  30.6228120
 109.7205380  46.8972570  29.6485690 108.9852130  38.6518180  26.1492850
 108.3300970  38.3829820  25.5052550 109.8230080  38.5422660  25.6994830
 110.0228060  39.0370750  30.6896190 110.3901100  38.9498150  31.5692210
 109.4538880  38.2737300  30.5903050 109.5744060  35.9479840  34.5954610
 108.6800110  35.9146600  34.9348320 110.1141610  36.1466630  35.3605860
 108.1990210  35.8617110  22.0918180 107.2954290  36.1247310  21.9169840
 108.6830830  36.1328280  21.3118140 110.7417420  34.9182650  20.0012560
 111.4509120  34.4965870  19.5159840 110.0257360  34.9857880  19.3695910
 110.3891580  30.9721980  19.0415210 111.1119710  31.5130920  19.3596430
 110.6616100  30.6985400  18.1656750 110.0783770  30.2228170  28.9437830
 110.7259960  29.6725550  28.5032990 110.4985610  30.4771320  29.7653640
 109.8315770  30.3783840  31.6863150 109.4830590  30.8347660  32.4521330
 109.5003470  29.4840970  31.7685580 111.4380140  43.5503440  35.8516340
 111.3949770  43.1796350  36.7330800 111.5691150  44.4881010  35.9918160
 115.1386170  45.1063030  31.4526060 114.8977530  45.3737590  30.5656580
 116.0788810  45.2768760  31.5076920 117.3440590  31.5695720  35.2082570
 117.2829480  32.1617550  35.9577980 118.2840970  31.4621680  35.0632830
 110.5036410  29.9060040  34.9613920 111.0519400  29.7248090  34.1980030
 110.5691720  29.1154150  35.4970230 111.2768170  46.4965690  32.9714120
 110.6828490  46.3650390  33.7104160 111.2692010  45.6603830  32.5056220
 110.9080400  43.8624070  31.9222160 110.1814460  43.2429360  31.8548110
 110.9689550  44.2564680  31.0520240 114.5125500  46.0769070  28.7071570
 115.0290520  45.4656430  28.1819830 115.1622880  46.5797850  29.1982580
 117.2521000  46.9677560  29.5340550 117.5398810  46.7131860  28.6573560
 117.7644220  46.4154920  30.1246120 118.4698010  30.7067760  30.1137060
 117.6869800  31.1813260  30.3933820 118.1760940  29.8022590  30.0050240
 109.1910400  47.1798460  25.1318920 109.0232440  46.5469140  25.8300810
 108.3244910  47.3857860  24.7813110 109.8138420  31.0115240  22.6350780
 110.5717780  31.1244120  22.0614810 109.3515590  31.8484440  22.5894210
 116.3552230  33.1254510  25.6253090 115.5426740  32.7511400  25.2848970
 116.8593870  32.3699590  25.9274280 110.7973100  45.8731690  22.5769060
 110.2720720  46.2539720  21.8731020 110.7217680  46.4982460  23.2978770
 112.1863570  31.5379290  21.1752750 112.7156330  30.7509090  21.0460700
 112.8191890  32.2170480  21.4088280 114.3801410  31.2754430  24.2298140
 113.7504150  30.5741740  24.3968270 113.8406550  32.0358560  24.0131300
 117.3193360  47.8893660  36.9008750 118.2460670  47.6537930  36.9444710
 117.3043790  48.7165660  36.4194780 114.5056970  30.5538410  36.6650630
 114.2241240  31.0572010  35.9011450 114.8876670  29.7560160  36.2992760
 113.3966070  47.8214070  21.4518310 114.1284890  47.5373350  20.9042200
 113.6559740  47.5827350  22.3417690 112.5580860  43.9378800  21.4564640
 111.9289740  44.4063900  22.0050470 112.6728690  43.0928020  21.8910830
 120.0130580  37.9884460   7.6065840 119.9324630  37.0739070   7.3357550
 119.5995000  38.4851530   6.9005550 118.1448620  39.7663480   9.4875110
 117.3690720  39.2863920   9.7773680 118.7961550  39.0869130   9.3131270
 112.1614450  40.0783290  10.3650870 111.3299330  39.8232000  10.7647380
 112.7695430  40.1494060  11.1008790 112.1415710  44.1123380  10.5608890
 112.4443750  43.2221120  10.3819110 112.8859300  44.6693600  10.3331140
 110.5706400  35.0385180   4.1493260 109.6823100  35.3801150   4.0473140
 110.8547590  34.8385500   3.2574090 108.5339410  37.6390830  10.0332960
 109.1055520  36.8713030  10.0336600 108.5340950  37.9379590   9.1239570
 118.3919360  46.4581680   7.8878230 117.7730800  46.9139180   7.3172670
 119.2471140  46.6133140   7.4867930 117.5857610  42.4420670   9.4945270
 117.5165890  41.5010610   9.3334400 118.3477470  42.5322080  10.0667840
 109.7764280  33.0475190  11.8201890 109.5967120  32.1500940  12.1004650
 109.3744360  33.5947060  12.4948840 118.6162780  35.2491050   9.7214200
 118.9927600  34.3762930   9.6087870 118.5182290  35.5849750   8.8304640
 112.7467790  33.6216680   5.1831640 112.8534540  34.5220410   5.4900400
 111.8360150  33.5734650   4.8926290 110.3950950  35.5435690  10.4284230
 111.0761060  35.8074060  11.0471630 110.0799000  34.7036560  10.7622240
 114.5875520  36.5903050   9.5156820 115.0953740  37.0884020  10.1561840
 115.1188760  35.8138250   9.3396180 112.8711620  31.2301610  13.7820240
 112.8730060  31.7474000  12.9766140 112.0415930  30.7531790  13.7590170
 119.2582710  41.3420920   5.2810140 118.6399980  41.8070370   4.7172860
 119.7705960  42.0348400   5.6979650 114.1214470  40.8696790  11.9593740
 113.7883850  41.4965710  12.6014810 114.2981150  41.3958670  11.1795410
 112.5526950  32.9411570  11.7890690 112.8943760  33.7853620  11.4944560
 111.6142760  33.0895310  11.9056030 113.3333570  42.8377590  13.7742920
 113.9507570  43.5128670  13.4927370 112.4726690  43.2465570  13.6830420
 108.6265910  42.0277450   2.6549770 108.2493890  42.5164550   1.9234670
 108.8838980  42.7002730   3.2856300 116.2354840  30.4293840   8.1135280
 116.5429820  29.8740730   7.3970780 115.3055540  30.5638300   7.9308270
 118.6235600  38.4942670   4.8495400 117.6964880  38.4280050   5.0783870
 118.7760420  39.4322800   4.7350640 118.6104680  34.7659670   1.8462560
 117.6708350  34.9273630   1.9315020 118.9287940  35.4845350   1.2998550
 114.2292240  39.0207410   7.6315130 113.8249240  38.3084660   7.1361030
 114.3155360  38.6760650   8.5203170 114.6973940  42.7074970   9.7954340
 114.4002230  42.1020440   9.1162120 115.6473760  42.7452280   9.6843700
 112.9420860  35.7950620  11.4114170 113.4935450  35.9045960  10.6367420
 113.4564370  36.1688220  12.1269400 113.7892370  42.4456660  16.4462140
 112.8920900  42.6696630  16.6935540 113.8145240  42.5691600  15.4973540
 112.6163590  39.3169980  15.0219510 112.4771360  40.1892780  15.3906910
 111.7344950  38.9742790  14.8767450 118.9392970  44.2345850   6.3284640
 119.3788880  44.9770180   5.9140030 118.8779860  44.4772420   7.2523600
 114.4143940  45.2591680  17.2304660 114.3859370  45.6634630  16.3633090
 114.2508910  44.3302040  17.0676260 110.9296870  37.9152390   5.1321780
 110.8094470  38.6414480   4.5203050 110.6197760  37.1455300   4.6549690
 108.5682240  41.0867530  10.9390420 108.6462660  41.2216300   9.9946140
 109.1823920  40.3783420  11.1318540 109.8129870  42.7867720   7.3496600
 109.4057950  42.9282310   6.4950200 110.7042880  42.5027880   7.1467810
 119.6308750  46.9359630  14.2563650 120.1453420  46.8467640  15.0586080
 118.7877830  47.2819330  14.5491560 114.0851530  47.0013500   5.4619270
 113.9094010  46.0849040   5.2487070 113.2307270  47.3600790   5.7017070
 108.6241760  42.1281700  13.4784880 108.7872800  41.6587060  12.6604250
 109.0894210  41.6205260  14.1433720 113.3960530  31.2587460   8.5145450
 112.9528680  32.0397000   8.1829970 113.9545520  31.5817350   9.2216390
 117.6830340  34.1255980  14.1180770 117.2209710  34.3339000  14.9300710
 117.2808450  33.3115330  13.8151440 116.5119350  30.8798160   3.3951280
 115.8873530  30.8758030   4.1204590 116.4249470  30.0129120   2.9987250
 115.4336430  31.8034790  10.3735050 115.7308760  32.7097620  10.2927070
 115.9821990  31.3153570   9.7594620 113.1874750  36.3821030   6.2426700
 112.9615670  36.1658200   7.1473320 112.4067280  36.8149490   5.8972670
 115.6273960  37.2806610  16.9086970 115.5317560  36.3401340  16.7587370
 116.4705940  37.5021680  16.5135040 119.0237380  35.0247940   6.8720630
 119.4166950  35.3420140   6.0589320 119.3854230  34.1459820   6.9865150
 110.7584500  33.6920280  15.0620750 110.3647890  34.5395490  15.2693530
 110.0702900  33.0546650  15.2529390 117.3329550  33.7755250  18.1317490
 116.6427870  33.5827450  18.7663580 118.0761850  34.0589890  18.6641790
 108.0601550  31.6148740   9.0950830 107.7714600  32.1851600   9.8075810
 108.8047310  31.1353190   9.4582060 119.6092520  37.6153690  10.9671410
 118.8773640  38.1240500  11.3161510 119.2116860  36.7983670  10.6660190
 116.0469910  34.2907890   9.3723900 116.0505970  33.8497840   8.5228440
 116.9421030  34.6125220   9.4795720 111.8972290  34.1734380   8.3318110
 111.5572340  34.6509610   9.0885160 111.1349610  33.7199500   7.9719210
 116.1090060  35.2919970   2.3630660 116.2302880  35.2506450   3.3116480
 115.7238570  36.1544120   2.2077390 120.0718430  33.0687370  10.3794350
 120.0891170  33.5196020  11.2236200 119.8234010  32.1693010  10.5927790
 110.1980740  41.5033130  15.6380690 109.8135530  40.8626800  16.2363650
 110.5092930  42.2069250  16.2075420 116.3477880  38.3509670  11.1189310
 116.7148010  37.8768240  11.8650650 116.1582940  39.2251240  11.4597650
 109.2118370  33.0953360   7.2482780 108.9265290  32.7309030   8.0861400
 109.1497230  32.3633820   6.6345920 114.1377250  37.3918310  13.4373520
 113.8334320  38.2710290  13.6623880 115.0923710  37.4518100  13.4730960
 112.6659040  41.5979300   4.0340370 111.8921300  41.0576920   3.8739090
 113.3953670  41.0785910   3.6958130 118.8856960  31.9882620   3.9696150
 118.0721570  31.4895790   3.8941460 118.6918910  32.8280870   3.5532500
 118.8065820  40.6653720  15.7135760 118.7403130  39.7449390  15.4593350
 118.1770960  40.7629160  16.4280400 112.7096440  41.2659680   7.6719180
 113.2275110  40.4627940   7.6176070 112.2580460  41.2038820   8.5136010
 117.5965940  42.5325960   2.9446480 117.9381640  43.2768190   2.4489800
 116.7678650  42.8457080   3.3071310 110.1940980  38.2321050  14.5844880
 109.8355920  38.8974900  15.1718220 109.8995540  37.4004600  14.9557500
 113.3954100  38.6905290  17.4684430 113.0954240  38.8362470  16.5712250
 114.1665340  38.1310580  17.3757820 118.7382550  43.4874290  15.4639560
 118.7527090  42.5555250  15.2458470 118.0307650  43.5734050  16.1029330
 116.5656630  42.6139490   5.7162400 117.2527760  43.1608700   6.0969990
 115.7789050  43.1580220   5.7512010 115.8683840  39.6185520   5.3287760
 116.3246620  40.4290770   5.5547950 115.5172050  39.3008660   6.1606250
 118.1716450  45.1291860  12.5580060 118.8158670  45.3351240  13.2353480
 118.5345890  44.3680260  12.1050910 111.7695620  29.9623170   5.8010280
 111.6410250  29.9541070   6.7495200 110.9457640  30.3006260   5.4501290
 119.4448530  43.1324210  11.2757510 120.0870760  42.4317370  11.3889680
 119.9697880  43.9122650  11.0954400 108.7689550  31.7214290  15.2616980
 108.0548070  31.9211210  15.8669590 109.1884590  30.9453860  15.6331780
 109.0562140  45.7094550  16.2483510 109.1653260  44.7689290  16.1078900
 108.4042700  45.9749300  15.5997240 117.0474730  43.9810440  17.6481630
 116.7271600  43.2619680  18.1927320 116.3733090  44.6565510  17.7217690
 115.0888900  44.8270890   2.5914780 115.0799000  45.5600580   1.9759290
 114.1687260  44.5802470   2.6841740 110.6895540  40.0485780   3.3361540
 110.0823490  40.7884680   3.3456840 111.1644890  40.1385140   2.5099740
 115.5974390  35.4479490   5.2363870 114.8890540  35.9165830   5.6777480
 115.8818870  34.7901500   5.8709060 117.2230320  36.8676190  13.2356400
 117.7215570  37.3422010  13.9008250 117.3653270  35.9439710  13.4426430
 116.7166610  47.4085450   5.9487640 116.9708110  47.3706840   5.0267010
 115.7679090  47.2818780   5.9415890 113.8009410  33.7564570   2.6114580
 114.6499940  34.1934720   2.5454770 113.4340680  34.0684830   3.4386640
 111.3947590  37.4422000   1.7683000 111.4751180  36.4949510   1.8800400
 112.2867340  37.7728880   1.8743660 112.1962300  47.5917390   8.8717540
 112.9324780  47.0432850   9.1426110 112.5803220  48.4573400   8.7323530
 109.0807780  43.6590960   4.7459050 108.1547560  43.9012100   4.7364460
 109.5464210  44.4865220   4.6243800 111.2020580  46.7763460  18.0603120
 112.0033310  47.0975510  18.4738520 110.6872400  46.4159040  18.7823030
 120.0385210  42.8843330  18.0078530 119.4323370  42.9074930  17.2674280
 119.7339320  42.1526370  18.5445780 108.9218390  39.2636920  17.0039170
 109.4257410  38.6844200  17.5755400 108.1825810  39.5477150  17.5415540
 115.9756330  40.6707910  16.5374690 115.2102000  41.2392910  16.4529360
 116.1572290  40.3784120  15.6442920 110.9541470  37.4066510  17.8989240
 110.9946810  37.1080380  18.8074470 111.8086970  37.8074120  17.7396760
 114.7319860  40.0062060   3.0592750 115.1536280  39.8401930   3.9024140
 114.8570700  39.1962290   2.5647890 112.8947280  35.9858610  15.8663730
 112.3643740  35.4949560  15.2387070 113.5635350  36.4142810  15.3321660
 113.3819580  32.9520980  15.9461020 113.2876450  32.3341730  15.2211890
 112.8016970  33.6787270  15.7190930 116.1481020  31.5094220  12.9788410
 115.6998320  31.5318480  12.1333960 115.5146220  31.1113240  13.5758710
 116.5540570  40.4048550  13.6000850 116.9728680  41.2481280  13.4277090
 115.6349200  40.5420590  13.3707630 118.8904470  38.1364730  14.9838690
 119.0100680  37.5405870  15.7233530 119.7498470  38.1734420  14.5639990
 114.4047990  46.7101560  14.7158580 113.8669080  47.4347620  14.3967280
 114.6581950  46.2331900  13.9255920 115.6573240  34.6786080  16.2414510
 116.2472930  34.3701930  16.9292330 114.8393480  34.2065830  16.3974410
 117.2610200  47.9452770  14.9745230 117.1868900  48.8487910  15.2817600
 116.3589040  47.6264670  14.9467300 117.8095530  47.1111280   2.5971590
 118.7046320  47.4496250   2.6190350 117.8413160  46.3890690   1.9695870
 108.6637490  45.2727360   8.2778850 108.9940500  44.4048420   8.0457490
 109.0928490  45.4785880   9.1083810 113.2599410  43.6036370   5.9380820
 112.9594950  43.4801340   6.8384730 113.1536900  42.7444960   5.5296550
 109.1527700  46.1397950  11.0160480 108.7158690  46.3198750  11.8484630
 109.7205380  46.8972570  10.8742200 108.9852130  38.6518180   7.3749360
 108.3300970  38.3829820   6.7309060 109.8230080  38.5422660   6.9251340
 110.0228060  39.0370750  11.9152700 110.3901100  38.9498150  12.7948720
 109.4538880  38.2737300  11.8159560 109.5744060  35.9479840  15.8211120
 108.6800110  35.9146600  16.1604830 110.1141610  36.1466630  16.5862370
 108.1990210  35.8617110   3.3174690 107.2954290  36.1247310   3.1426350
 108.6830830  36.1328280   2.5374650 110.0783770  30.2228170  10.1694340
 110.7259960  29.6725550   9.7289500 110.4985610  30.4771320  10.9910150
 109.8315770  30.3783840  12.9119660 109.4830590  30.8347660  13.6777840
 109.5003470  29.4840970  12.9942090 111.4380140  43.5503440  17.0772850
 111.3949770  43.1796350  17.9587310 111.5691150  44.4881010  17.2174670
 115.1386170  45.1063030  12.6782570 114.8977530  45.3737590  11.7913090
 116.0788810  45.2768760  12.7333430 117.3440590  31.5695720  16.4339080
 117.2829480  32.1617550  17.1834490 118.2840970  31.4621680  16.2889340
 110.5036410  29.9060040  16.1870430 111.0519400  29.7248090  15.4236540
 110.5691720  29.1154150  16.7226740 111.2768170  46.4965690  14.1970630
 110.6828490  46.3650390  14.9360670 111.2692010  45.6603830  13.7312730
 110.9080400  43.8624070  13.1478670 110.1814460  43.2429360  13.0804620
 110.9689550  44.2564680  12.2776750 114.5125500  46.0769070   9.9328080
 115.0290520  45.4656430   9.4076340 115.1622880  46.5797850  10.4239090
 117.2521000  46.9677560  10.7597060 117.5398810  46.7131860   9.8830070
 117.7644220  46.4154920  11.3502630 118.4698010  30.7067760  11.3393570
 117.6869800  31.1813260  11.6190330 118.1760940  29.8022590  11.2306750
 109.1910400  47.1798460   6.3575430 109.0232440  46.5469140   7.0557320
 108.3244910  47.3857860   6.0069620 109.8138420  31.0115240   3.8607290
 110.5717780  31.1244120   3.2871320 109.3515590  31.8484440   3.8150720
 116.3552230  33.1254510   6.8509600 115.5426740  32.7511400   6.5105480
 116.8593870  32.3699590   7.1530790 110.7973100  45.8731690   3.8025570
 110.2720720  46.2539720   3.0987530 110.7217680  46.4982460   4.5235280
 112.1863570  31.5379290   2.4009260 112.7156330  30.7509090   2.2717210
 112.8191890  32.2170480   2.6344790 114.3801410  31.2754430   5.4554650
 113.7504150  30.5741740   5.6224780 113.8406550  32.0358560   5.2387810
 117.3193360  47.8893660  18.1265260 118.2460670  47.6537930  18.1701220
 117.3043790  48.7165660  17.6451290 114.5056970  30.5538410  17.8907140
 114.2241240  31.0572010  17.1267960 114.8876670  29.7560160  17.5249270
 113.3966070  47.8214070   2.6774820 114.1284890  47.5373350   2.1298710
 113.6559740  47.5827350   3.5674200 112.5580860  43.9378800   2.6821150
 111.9289740  44.4063900   3.2306980 112.6728690  43.0928020   3.1167340
 120.0130580  19.2140970 101.4783290 119.9324630  18.2995580 101.2075000
 119.5995000  19.7108040 100.7723000 118.1448620  20.9919990 103.3592560
 117.3690720  20.5120430 103.6491130 118.7961550  20.3125640 103.1848720
 112.1614450  21.3039800 104.2368320 111.3299330  21.0488510 104.6364830
 112.7695430  21.3750570 104.9726240 112.1415710  25.3379890 104.4326340
 112.4443750  24.4477630 104.2536560 112.8859300  25.8950110 104.2048590
 110.5706400  16.2641690  98.0210710 109.6823100  16.6057660  97.9190590
 110.8547590  16.0642010  97.1291540 108.5339410  18.8647340 103.9050410
 109.1055520  18.0969540 103.9054050 108.5340950  19.1636100 102.9957020
 118.3919360  27.6838190 101.7595680 117.7730800  28.1395690 101.1890120
 119.2471140  27.8389650 101.3585380 117.5857610  23.6677180 103.3662720
 117.5165890  22.7267120 103.2051850 118.3477470  23.7578590 103.9385290
 109.7764280  14.2731700 105.6919340 109.5967120  13.3757450 105.9722100
 109.3744360  14.8203570 106.3666290 118.6162780  16.4747560 103.5931650
 118.9927600  15.6019440 103.4805320 118.5182290  16.8106260 102.7022090
 112.7467790  14.8473190  99.0549090 112.8534540  15.7476920  99.3617850
 111.8360150  14.7991160  98.7643740 110.3950950  16.7692200 104.3001680
 111.0761060  17.0330570 104.9189080 110.0799000  15.9293070 104.6339690
 114.5875520  17.8159560 103.3874270 115.0953740  18.3140530 104.0279290
 115.1188760  17.0394760 103.2113630 112.8711620  12.4558120 107.6537690
 112.8730060  12.9730510 106.8483590 112.0415930  11.9788300 107.6307620
 119.2582710  22.5677430  99.1527590 118.6399980  23.0326880  98.5890310
 119.7705960  23.2604910  99.5697100 114.1214470  22.0953300 105.8311190
 113.7883850  22.7222220 106.4732260 114.2981150  22.6215180 105.0512860
 112.5526950  14.1668080 105.6608140 112.8943760  15.0110130 105.3662010
 111.6142760  14.3151820 105.7773480 113.3333570  24.0634100 107.6460370
 113.9507570  24.7385180 107.3644820 112.4726690  24.4722080 107.5547870
 108.6265910  23.2533960  96.5267220 108.2493890  23.7421060  95.7952120
 108.8838980  23.9259240  97.1573750 116.2354840  11.6550350 101.9852730
 116.5429820  11.0997240 101.2688230 115.3055540  11.7894810 101.8025720
 118.6235600  19.7199180  98.7212850 117.6964880  19.6536560  98.9501320
 118.7760420  20.6579310  98.6068090 118.6104680  15.9916180  95.7180010
 117.6708350  16.1530140  95.8032470 118.9287940  16.7101860  95.1716000
 114.2292240  20.2463920 101.5032580 113.8249240  19.5341170 101.0078480
 114.3155360  19.9017160 102.3920620 114.6973940  23.9331480 103.6671790
 114.4002230  23.3276950 102.9879570 115.6473760  23.9708790 103.5561150
 112.9420860  17.0207130 105.2831620 113.4935450  17.1302470 104.5084870
 113.4564370  17.3944730 105.9986850 113.7892370  23.6713170 110.3179590
 112.8920900  23.8953140 110.5652990 113.8145240  23.7948110 109.3690990
 112.6163590  20.5426490 108.8936960 112.4771360  21.4149290 109.2624360
 111.7344950  20.1999300 108.7484900 118.9392970  25.4602360 100.2002090
 119.3788880  26.2026690  99.7857480 118.8779860  25.7028930 101.1241050
 110.9296870  19.1408900  99.0039230 110.8094470  19.8670990  98.3920500
 110.6197760  18.3711810  98.5267140 108.5682240  22.3124040 104.8107870
 108.6462660  22.4472810 103.8663590 109.1823920  21.6039930 105.0035990
 109.8129870  24.0124230 101.2214050 109.4057950  24.1538820 100.3667650
 110.7042880  23.7284390 101.0185260 119.6308750  28.1616140 108.1281100
 120.1453420  28.0724150 108.9303530 118.7877830  28.5075840 108.4209010
 114.0851530  28.2270010  99.3336720 113.9094010  27.3105550  99.1204520
 113.2307270  28.5857300  99.5734520 108.6241760  23.3538210 107.3502330
 108.7872800  22.8843570 106.5321700 109.0894210  22.8461770 108.0151170
 113.3960530  12.4843970 102.3862900 112.9528680  13.2653510 102.0547420
 113.9545520  12.8073860 103.0933840 117.6830340  15.3512490 107.9898220
 117.2209710  15.5595510 108.8018160 117.2808450  14.5371840 107.6868890
 116.5119350  12.1054670  97.2668730 115.8873530  12.1014540  97.9922040
 116.4249470  11.2385630  96.8704700 115.4336430  13.0291300 104.2452500
 115.7308760  13.9354130 104.1644520 115.9821990  12.5410080 103.6312070
 113.1874750  17.6077540 100.1144150 112.9615670  17.3914710 101.0190770
 112.4067280  18.0406000  99.7690120 115.6273960  18.5063120 110.7804420
 115.5317560  17.5657850 110.6304820 116.4705940  18.7278190 110.3852490
 119.0237380  16.2504450 100.7438080 119.4166950  16.5676650  99.9306770
 119.3854230  15.3716330 100.8582600 110.7584500  14.9176790 108.9338200
 110.3647890  15.7652000 109.1410980 110.0702900  14.2803160 109.1246840
 108.0601550  12.8405250 102.9668280 107.7714600  13.4108110 103.6793260
 108.8047310  12.3609700 103.3299510 108.2471780  16.7825370  94.1771000
 108.1646450  17.7256130  94.3185990 107.8954840  16.6400280  93.2983350
 119.6092520  18.8410200 104.8388860 118.8773640  19.3497010 105.1878960
 119.2116860  18.0240180 104.5377640 116.0469910  15.5164400 103.2441350
 116.0505970  15.0754350 102.3945890 116.9421030  15.8381730 103.3513170
 111.8972290  15.3990890 102.2035560 111.5572340  15.8766120 102.9602610
 111.1349610  14.9456010 101.8436660 116.1090060  16.5176480  96.2348110
 116.2302880  16.4762960  97.1833930 115.7238570  17.3800630  96.0794840
 120.0718430  14.2943880 104.2511800 120.0891170  14.7452530 105.0953650
 119.8234010  13.3949520 104.4645240 115.1211560  18.8277620  95.6331410
 114.5528460  18.3795870  95.0067320 115.8300560  19.1870400  95.0996560
 110.1980740  22.7289640 109.5098140 109.8135530  22.0883310 110.1081100
 110.5092930  23.4325760 110.0792870 116.3477880  19.5766180 104.9906760
 116.7148010  19.1024750 105.7368100 116.1582940  20.4507750 105.3315100
 109.2118370  14.3209870 101.1200230 108.9265290  13.9565540 101.9578850
 109.1497230  13.5890330 100.5063370 114.1377250  18.6174820 107.3090970
 113.8334320  19.4966800 107.5341330 115.0923710  18.6774610 107.3448410
 112.6659040  22.8235810  97.9057820 111.8921300  22.2833430  97.7456540
 113.3953670  22.3042420  97.5675580 118.8856960  13.2139130  97.8413600
 118.0721570  12.7152300  97.7658910 118.6918910  14.0537380  97.4249950
 118.8065820  21.8910230 109.5853210 118.7403130  20.9705900 109.3310800
 118.1770960  21.9885670 110.2997850 112.7096440  22.4916190 101.5436630
 113.2275110  21.6884450 101.4893520 112.2580460  22.4295330 102.3853460
 117.5965940  23.7582470  96.8163930 117.9381640  24.5024700  96.3207250
 116.7678650  24.0713590  97.1788760 110.1940980  19.4577560 108.4562330
 109.8355920  20.1231410 109.0435670 109.8995540  18.6261110 108.8274950
 118.7382550  24.7130800 109.3357010 118.7527090  23.7811760 109.1175920
 118.0307650  24.7990560 109.9746780 116.5656630  23.8396000  99.5879850
 117.2527760  24.3865210  99.9687440 115.7789050  24.3836730  99.6229460
 108.7049030  19.4568820  95.0796930 109.5743880  19.7393620  95.3632850
 108.2139350  20.2704690  94.9645740 115.8683840  20.8442030  99.2005210
 116.3246620  21.6547280  99.4265400 115.5172050  20.5265170 100.0323700
 118.1716450  26.3548370 106.4297510 118.8158670  26.5607750 107.1070930
 118.5345890  25.5936770 105.9768360 111.7695620  11.1879680  99.6727730
 111.6410250  11.1797580 100.6212650 110.9457640  11.5262770  99.3218740
 119.4448530  24.3580720 105.1474960 120.0870760  23.6573880 105.2607130
 119.9697880  25.1379160 104.9671850 109.0720280  28.6696200  95.6458560
 109.4317920  29.2685540  94.9915830 108.9312620  29.2156090  96.4193590
 108.7689550  12.9470800 109.1334430 108.0548070  13.1467720 109.7387040
 109.1884590  12.1710370 109.5049230 109.0562140  26.9351060 110.1200960
 109.1653260  25.9945800 109.9796350 108.4042700  27.2005810 109.4714690
 115.0888900  26.0527400  96.4632230 115.0799000  26.7857090  95.8476740
 114.1687260  25.8058980  96.5559190 110.6895540  21.2742290  97.2078990
 110.0823490  22.0141190  97.2174290 111.1644890  21.3641650  96.3817190
 118.0748500  26.1155640  95.1257420 118.1760480  25.9119630  94.1959400
 117.1750240  25.8613920  95.3305200 115.5974390  16.6736000  99.1081320
 114.8890540  17.1422340  99.5494930 115.8818870  16.0158010  99.7426510
 117.2230320  18.0932700 107.1073850 117.7215570  18.5678520 107.7725700
 117.3653270  17.1696220 107.3143880 116.7166610  28.6341960  99.8205090
 116.9708110  28.5963350  98.8984460 115.7679090  28.5075290  99.8133340
 113.8009410  14.9821080  96.4832030 114.6499940  15.4191230  96.4172220
 113.4340680  15.2941340  97.3104090 112.7000830  21.2353440  94.9567560
 113.4664100  21.1234800  95.5192990 112.7775520  20.5391410  94.3044330
 111.3947590  18.6678510  95.6400450 111.4751180  17.7206020  95.7517850
 112.2867340  18.9985390  95.7461110 112.1962300  28.8173900 102.7434990
 112.9324780  28.2689360 103.0143560 112.5803220  29.6829910 102.6040980
 109.0807780  24.8847470  98.6176500 108.1547560  25.1268610  98.6081910
 109.5464210  25.7121730  98.4961250 115.3064610  27.9904210  94.5660560
 116.0993220  28.2793040  94.1142350 114.7868960  27.5596380  93.8873040
 115.8242010  23.2107620  94.4302910 115.7192650  22.5959970  95.1564290
 115.6566230  22.6873510  93.6465920 115.9756330  21.8964420 110.4092140
 115.2102000  22.4649420 110.3246810 116.1572290  21.6040630 109.5160370
 119.0644740  22.2727650  95.0344900 118.5154840  22.7196950  95.6787640
 119.6864000  21.7676900  95.5582570 114.7319860  21.2318570  96.9310200
 115.1536280  21.0658440  97.7741590 114.8570700  20.4218800  96.4365340
 112.8947280  17.2115120 109.7381180 112.3643740  16.7206070 109.1104520
 113.5635350  17.6399320 109.2039110 117.2447500  20.2556180  94.1787300
 117.7653160  19.5405200  93.8128450 117.8915900  20.8942050  94.4787810
 113.3819580  14.1777490 109.8178470 113.2876450  13.5598240 109.0929340
 112.8016970  14.9043780 109.5908380 116.1481020  12.7350730 106.8505860
 115.6998320  12.7574990 106.0051410 115.5146220  12.3369750 107.4476160
 116.5540570  21.6305060 107.4718300 116.9728680  22.4737790 107.2994540
 115.6349200  21.7677100 107.2425080 118.8904470  19.3621240 108.8556140
 119.0100680  18.7662380 109.5950980 119.7498470  19.3990930 108.4357440
 113.6278760  17.3051800  93.8768360 113.4267820  16.4419160  94.2381700
 113.4570810  17.2185160  92.9389960 114.4047990  27.9358070 108.5876030
 113.8669080  28.6604130 108.2684730 114.6581950  27.4588410 107.7973370
 115.6573240  15.9042590 110.1131960 116.2472930  15.5958440 110.8009780
 114.8393480  15.4322340 110.2691860 112.4261560  14.4052420  93.8646240
 112.7287460  14.4119850  92.9565390 113.1656150  14.0550280  94.3613900
 117.2610200  29.1709280 108.8462680 117.1868900  30.0744420 109.1535050
 116.3589040  28.8521180 108.8184750 115.6446490  13.3487040  94.8502440
 115.2968490  12.6711030  94.2704890 115.8459260  12.8876550  95.6645830
 117.8095530  28.3367790  96.4689040 118.7046320  28.6752760  96.4907800
 117.8413160  27.6147200  95.8413320 111.4491690  23.7094840  94.6976040
 111.8866560  24.2524510  95.3533620 111.9339420  22.8841790  94.7072380
 108.6637490  26.4983870 102.1496300 108.9940500  25.6304930 101.9174940
 109.0928490  26.7042390 102.9801260 113.2599410  24.8292880  99.8098270
 112.9594950  24.7057850 100.7102180 113.1536900  23.9701470  99.4014000
 109.1527700  27.3654460 104.8877930 108.7158690  27.5455260 105.7202080
 109.7205380  28.1229080 104.7459650 108.9852130  19.8774690 101.2466810
 108.3300970  19.6086330 100.6026510 109.8230080  19.7679170 100.7968790
 110.0228060  20.2627260 105.7870150 110.3901100  20.1754660 106.6666170
 109.4538880  19.4993810 105.6877010 109.5744060  17.1736350 109.6928570
 108.6800110  17.1403110 110.0322280 110.1141610  17.3723140 110.4579820
 108.1990210  17.0873620  97.1892140 107.2954290  17.3503820  97.0143800
 108.6830830  17.3584790  96.4092100 110.7417420  16.1439160  95.0986520
 111.4509120  15.7222380  94.6133800 110.0257360  16.2114390  94.4669870
 110.3891580  12.1978490  94.1389170 111.1119710  12.7387430  94.4570390
 110.6616100  11.9241910  93.2630710 110.0783770  11.4484680 104.0411790
 110.7259960  10.8982060 103.6006950 110.4985610  11.7027830 104.8627600
 109.8315770  11.6040350 106.7837110 109.4830590  12.0604170 107.5495290
 109.5003470  10.7097480 106.8659540 115.1386170  26.3319540 106.5500020
 114.8977530  26.5994100 105.6630540 116.0788810  26.5025270 106.6050880
 110.5036410  11.1316550 110.0587880 111.0519400  10.9504600 109.2953990
 110.5691720  10.3410660 110.5944190 111.2768170  27.7222200 108.0688080
 110.6828490  27.5906900 108.8078120 111.2692010  26.8860340 107.6030180
 110.9080400  25.0880580 107.0196120 110.1814460  24.4685870 106.9522070
 110.9689550  25.4821190 106.1494200 114.5125500  27.3025580 103.8045530
 115.0290520  26.6912940 103.2793790 115.1622880  27.8054360 104.2956540
 117.2521000  28.1934070 104.6314510 117.5398810  27.9388370 103.7547520
 117.7644220  27.6411430 105.2220080 118.4698010  11.9324270 105.2111020
 117.6869800  12.4069770 105.4907780 118.1760940  11.0279100 105.1024200
 109.1910400  28.4054970 100.2292880 109.0232440  27.7725650 100.9274770
 108.3244910  28.6114370  99.8787070 109.8138420  12.2371750  97.7324740
 110.5717780  12.3500630  97.1588770 109.3515590  13.0740950  97.6868170
 116.3552230  14.3511020 100.7227050 115.5426740  13.9767910 100.3822930
 116.8593870  13.5956100 101.0248240 110.7973100  27.0988200  97.6743020
 110.2720720  27.4796230  96.9704980 110.7217680  27.7238970  98.3952730
 112.1863570  12.7635800  96.2726710 112.7156330  11.9765600  96.1434660
 112.8191890  13.4426990  96.5062240 114.3801410  12.5010940  99.3272100
 113.7504150  11.7998250  99.4942230 113.8406550  13.2615070  99.1105260
 113.3966070  29.0470580  96.5492270 114.1284890  28.7629860  96.0016160
 113.6559740  28.8083860  97.4391650 112.5580860  25.1635310  96.5538600
 111.9289740  25.6320410  97.1024430 112.6728690  24.3184530  96.9884790
 120.0130580  19.2140970  82.7039800 119.9324630  18.2995580  82.4331510
 119.5995000  19.7108040  81.9979510 118.1448620  20.9919990  84.5849070
 117.3690720  20.5120430  84.8747640 118.7961550  20.3125640  84.4105230
 112.1614450  21.3039800  85.4624830 111.3299330  21.0488510  85.8621340
 112.7695430  21.3750570  86.1982750 112.1415710  25.3379890  85.6582850
 112.4443750  24.4477630  85.4793070 112.8859300  25.8950110  85.4305100
 110.5706400  16.2641690  79.2467220 109.6823100  16.6057660  79.1447100
 110.8547590  16.0642010  78.3548050 108.5339410  18.8647340  85.1306920
 109.1055520  18.0969540  85.1310560 108.5340950  19.1636100  84.2213530
 118.3919360  27.6838190  82.9852190 117.7730800  28.1395690  82.4146630
 119.2471140  27.8389650  82.5841890 117.5857610  23.6677180  84.5919230
 117.5165890  22.7267120  84.4308360 118.3477470  23.7578590  85.1641800
 109.7764280  14.2731700  86.9175850 109.5967120  13.3757450  87.1978610
 109.3744360  14.8203570  87.5922800 118.6162780  16.4747560  84.8188160
 118.9927600  15.6019440  84.7061830 118.5182290  16.8106260  83.9278600
 112.7467790  14.8473190  80.2805600 112.8534540  15.7476920  80.5874360
 111.8360150  14.7991160  79.9900250 110.3950950  16.7692200  85.5258190
 111.0761060  17.0330570  86.1445590 110.0799000  15.9293070  85.8596200
 114.5875520  17.8159560  84.6130780 115.0953740  18.3140530  85.2535800
 115.1188760  17.0394760  84.4370140 112.8711620  12.4558120  88.8794200
 112.8730060  12.9730510  88.0740100 112.0415930  11.9788300  88.8564130
 119.2582710  22.5677430  80.3784100 118.6399980  23.0326880  79.8146820
 119.7705960  23.2604910  80.7953610 114.1214470  22.0953300  87.0567700
 113.7883850  22.7222220  87.6988770 114.2981150  22.6215180  86.2769370
 112.5526950  14.1668080  86.8864650 112.8943760  15.0110130  86.5918520
 111.6142760  14.3151820  87.0029990 113.3333570  24.0634100  88.8716880
 113.9507570  24.7385180  88.5901330 112.4726690  24.4722080  88.7804380
 108.6265910  23.2533960  77.7523730 108.2493890  23.7421060  77.0208630
 108.8838980  23.9259240  78.3830260 116.2354840  11.6550350  83.2109240
 116.5429820  11.0997240  82.4944740 115.3055540  11.7894810  83.0282230
 118.6235600  19.7199180  79.9469360 117.6964880  19.6536560  80.1757830
 118.7760420  20.6579310  79.8324600 118.6104680  15.9916180  76.9436520
 117.6708350  16.1530140  77.0288980 118.9287940  16.7101860  76.3972510
 114.2292240  20.2463920  82.7289090 113.8249240  19.5341170  82.2334990
 114.3155360  19.9017160  83.6177130 114.6973940  23.9331480  84.8928300
 114.4002230  23.3276950  84.2136080 115.6473760  23.9708790  84.7817660
 112.9420860  17.0207130  86.5088130 113.4935450  17.1302470  85.7341380
 113.4564370  17.3944730  87.2243360 113.7892370  23.6713170  91.5436100
 112.8920900  23.8953140  91.7909500 113.8145240  23.7948110  90.5947500
 112.6163590  20.5426490  90.1193470 112.4771360  21.4149290  90.4880870
 111.7344950  20.1999300  89.9741410 118.9392970  25.4602360  81.4258600
 119.3788880  26.2026690  81.0113990 118.8779860  25.7028930  82.3497560
 114.4143940  26.4848190  92.3278620 114.3859370  26.8891140  91.4607050
 114.2508910  25.5558550  92.1650220 110.9296870  19.1408900  80.2295740
 110.8094470  19.8670990  79.6177010 110.6197760  18.3711810  79.7523650
 108.5682240  22.3124040  86.0364380 108.6462660  22.4472810  85.0920100
 109.1823920  21.6039930  86.2292500 109.8129870  24.0124230  82.4470560
 109.4057950  24.1538820  81.5924160 110.7042880  23.7284390  82.2441770
 119.6308750  28.1616140  89.3537610 120.1453420  28.0724150  90.1560040
 118.7877830  28.5075840  89.6465520 114.0851530  28.2270010  80.5593230
 113.9094010  27.3105550  80.3461030 113.2307270  28.5857300  80.7991030
 108.6241760  23.3538210  88.5758840 108.7872800  22.8843570  87.7578210
 109.0894210  22.8461770  89.2407680 113.3960530  12.4843970  83.6119410
 112.9528680  13.2653510  83.2803930 113.9545520  12.8073860  84.3190350
 117.6830340  15.3512490  89.2154730 117.2209710  15.5595510  90.0274670
 117.2808450  14.5371840  88.9125400 116.5119350  12.1054670  78.4925240
 115.8873530  12.1014540  79.2178550 116.4249470  11.2385630  78.0961210
 115.4336430  13.0291300  85.4709010 115.7308760  13.9354130  85.3901030
 115.9821990  12.5410080  84.8568580 113.1874750  17.6077540  81.3400660
 112.9615670  17.3914710  82.2447280 112.4067280  18.0406000  80.9946630
 115.6273960  18.5063120  92.0060930 115.5317560  17.5657850  91.8561330
 116.4705940  18.7278190  91.6109000 119.0237380  16.2504450  81.9694590
 119.4166950  16.5676650  81.1563280 119.3854230  15.3716330  82.0839110
 110.7584500  14.9176790  90.1594710 110.3647890  15.7652000  90.3667490
 110.0702900  14.2803160  90.3503350 117.3329550  15.0011760  93.2291450
 116.6427870  14.8083960  93.8637540 118.0761850  15.2846400  93.7615750
 108.0601550  12.8405250  84.1924790 107.7714600  13.4108110  84.9049770
 108.8047310  12.3609700  84.5556020 108.2471780  16.7825370  75.4027510
 108.1646450  17.7256130  75.5442500 107.8954840  16.6400280  74.5239860
 119.6092520  18.8410200  86.0645370 118.8773640  19.3497010  86.4135470
 119.2116860  18.0240180  85.7634150 116.0469910  15.5164400  84.4697860
 116.0505970  15.0754350  83.6202400 116.9421030  15.8381730  84.5769680
 111.8972290  15.3990890  83.4292070 111.5572340  15.8766120  84.1859120
 111.1349610  14.9456010  83.0693170 116.1090060  16.5176480  77.4604620
 116.2302880  16.4762960  78.4090440 115.7238570  17.3800630  77.3051350
 120.0718430  14.2943880  85.4768310 120.0891170  14.7452530  86.3210160
 119.8234010  13.3949520  85.6901750 115.1211560  18.8277620  76.8587920
 114.5528460  18.3795870  76.2323830 115.8300560  19.1870400  76.3253070
 110.1980740  22.7289640  90.7354650 109.8135530  22.0883310  91.3337610
 110.5092930  23.4325760  91.3049380 116.3477880  19.5766180  86.2163270
 116.7148010  19.1024750  86.9624610 116.1582940  20.4507750  86.5571610
 109.2118370  14.3209870  82.3456740 108.9265290  13.9565540  83.1835360
 109.1497230  13.5890330  81.7319880 114.1377250  18.6174820  88.5347480
 113.8334320  19.4966800  88.7597840 115.0923710  18.6774610  88.5704920
 112.6659040  22.8235810  79.1314330 111.8921300  22.2833430  78.9713050
 113.3953670  22.3042420  78.7932090 118.8856960  13.2139130  79.0670110
 118.0721570  12.7152300  78.9915420 118.6918910  14.0537380  78.6506460
 118.8065820  21.8910230  90.8109720 118.7403130  20.9705900  90.5567310
 118.1770960  21.9885670  91.5254360 112.7096440  22.4916190  82.7693140
 113.2275110  21.6884450  82.7150030 112.2580460  22.4295330  83.6109970
 117.5965940  23.7582470  78.0420440 117.9381640  24.5024700  77.5463760
 116.7678650  24.0713590  78.4045270 110.1940980  19.4577560  89.6818840
 109.8355920  20.1231410  90.2692180 109.8995540  18.6261110  90.0531460
 113.3954100  19.9161800  92.5658390 113.0954240  20.0618980  91.6686210
 114.1665340  19.3567090  92.4731780 118.7382550  24.7130800  90.5613520
 118.7527090  23.7811760  90.3432430 118.0307650  24.7990560  91.2003290
 116.5656630  23.8396000  80.8136360 117.2527760  24.3865210  81.1943950
 115.7789050  24.3836730  80.8485970 108.7049030  19.4568820  76.3053440
 109.5743880  19.7393620  76.5889360 108.2139350  20.2704690  76.1902250
 115.8683840  20.8442030  80.4261720 116.3246620  21.6547280  80.6521910
 115.5172050  20.5265170  81.2580210 118.1716450  26.3548370  87.6554020
 118.8158670  26.5607750  88.3327440 118.5345890  25.5936770  87.2024870
 111.7695620  11.1879680  80.8984240 111.6410250  11.1797580  81.8469160
 110.9457640  11.5262770  80.5475250 119.4448530  24.3580720  86.3731470
 120.0870760  23.6573880  86.4863640 119.9697880  25.1379160  86.1928360
 109.0720280  28.6696200  76.8715070 109.4317920  29.2685540  76.2172340
 108.9312620  29.2156090  77.6450100 108.7689550  12.9470800  90.3590940
 108.0548070  13.1467720  90.9643550 109.1884590  12.1710370  90.7305740
 109.0562140  26.9351060  91.3457470 109.1653260  25.9945800  91.2052860
 108.4042700  27.2005810  90.6971200 117.0474730  25.2066950  92.7455590
 116.7271600  24.4876190  93.2901280 116.3733090  25.8822020  92.8191650
 115.0888900  26.0527400  77.6888740 115.0799000  26.7857090  77.0733250
 114.1687260  25.8058980  77.7815700 110.6895540  21.2742290  78.4335500
 110.0823490  22.0141190  78.4430800 111.1644890  21.3641650  77.6073700
 118.0748500  26.1155640  76.3513930 118.1760480  25.9119630  75.4215910
 117.1750240  25.8613920  76.5561710 115.5974390  16.6736000  80.3337830
 114.8890540  17.1422340  80.7751440 115.8818870  16.0158010  80.9683020
 117.2230320  18.0932700  88.3330360 117.7215570  18.5678520  88.9982210
 117.3653270  17.1696220  88.5400390 116.7166610  28.6341960  81.0461600
 116.9708110  28.5963350  80.1240970 115.7679090  28.5075290  81.0389850
 113.8009410  14.9821080  77.7088540 114.6499940  15.4191230  77.6428730
 113.4340680  15.2941340  78.5360600 112.7000830  21.2353440  76.1824070
 113.4664100  21.1234800  76.7449500 112.7775520  20.5391410  75.5300840
 111.3947590  18.6678510  76.8656960 111.4751180  17.7206020  76.9774360
 112.2867340  18.9985390  76.9717620 112.1962300  28.8173900  83.9691500
 112.9324780  28.2689360  84.2400070 112.5803220  29.6829910  83.8297490
 109.0807780  24.8847470  79.8433010 108.1547560  25.1268610  79.8338420
 109.5464210  25.7121730  79.7217760 111.2020580  28.0019970  93.1577080
 112.0033310  28.3232020  93.5712480 110.6872400  27.6415550  93.8796990
 115.3064610  27.9904210  75.7917070 116.0993220  28.2793040  75.3398860
 114.7868960  27.5596380  75.1129550 120.0385210  24.1099840  93.1052490
 119.4323370  24.1331440  92.3648240 119.7339320  23.3782880  93.6419740
 108.9218390  20.4893430  92.1013130 109.4257410  19.9100710  92.6729360
 108.1825810  20.7733660  92.6389500 115.8242010  23.2107620  75.6559420
 115.7192650  22.5959970  76.3820800 115.6566230  22.6873510  74.8722430
 115.9756330  21.8964420  91.6348650 115.2102000  22.4649420  91.5503320
 116.1572290  21.6040630  90.7416880 119.0644740  22.2727650  76.2601410
 118.5154840  22.7196950  76.9044150 119.6864000  21.7676900  76.7839080
 110.9541470  18.6323020  92.9963200 110.9946810  18.3336890  93.9048430
 111.8086970  19.0330630  92.8370720 114.7319860  21.2318570  78.1566710
 115.1536280  21.0658440  78.9998100 114.8570700  20.4218800  77.6621850
 112.8947280  17.2115120  90.9637690 112.3643740  16.7206070  90.3361030
 113.5635350  17.6399320  90.4295620 117.2447500  20.2556180  75.4043810
 117.7653160  19.5405200  75.0384960 117.8915900  20.8942050  75.7044320
 113.3819580  14.1777490  91.0434980 113.2876450  13.5598240  90.3185850
 112.8016970  14.9043780  90.8164890 116.1481020  12.7350730  88.0762370
 115.6998320  12.7574990  87.2307920 115.5146220  12.3369750  88.6732670
 116.5540570  21.6305060  88.6974810 116.9728680  22.4737790  88.5251050
 115.6349200  21.7677100  88.4681590 118.8904470  19.3621240  90.0812650
 119.0100680  18.7662380  90.8207490 119.7498470  19.3990930  89.6613950
 113.6278760  17.3051800  75.1024870 113.4267820  16.4419160  75.4638210
 113.4570810  17.2185160  74.1646470 114.4047990  27.9358070  89.8132540
 113.8669080  28.6604130  89.4941240 114.6581950  27.4588410  89.0229880
 115.6573240  15.9042590  91.3388470 116.2472930  15.5958440  92.0266290
 114.8393480  15.4322340  91.4948370 112.4261560  14.4052420  75.0902750
 112.7287460  14.4119850  74.1821900 113.1656150  14.0550280  75.5870410
 117.2610200  29.1709280  90.0719190 117.1868900  30.0744420  90.3791560
 116.3589040  28.8521180  90.0441260 115.6446490  13.3487040  76.0758950
 115.2968490  12.6711030  75.4961400 115.8459260  12.8876550  76.8902340
 117.8095530  28.3367790  77.6945550 118.7046320  28.6752760  77.7164310
 117.8413160  27.6147200  77.0669830 111.4491690  23.7094840  75.9232550
 111.8866560  24.2524510  76.5790130 111.9339420  22.8841790  75.9328890
 108.6637490  26.4983870  83.3752810 108.9940500  25.6304930  83.1431450
 109.0928490  26.7042390  84.2057770 113.2599410  24.8292880  81.0354780
 112.9594950  24.7057850  81.9358690 113.1536900  23.9701470  80.6270510
 109.1527700  27.3654460  86.1134440 108.7158690  27.5455260  86.9458590
 109.7205380  28.1229080  85.9716160 108.9852130  19.8774690  82.4723320
 108.3300970  19.6086330  81.8283020 109.8230080  19.7679170  82.0225300
 110.0228060  20.2627260  87.0126660 110.3901100  20.1754660  87.8922680
 109.4538880  19.4993810  86.9133520 109.5744060  17.1736350  90.9185080
 108.6800110  17.1403110  91.2578790 110.1141610  17.3723140  91.6836330
 108.1990210  17.0873620  78.4148650 107.2954290  17.3503820  78.2400310
 108.6830830  17.3584790  77.6348610 110.7417420  16.1439160  76.3243030
 111.4509120  15.7222380  75.8390310 110.0257360  16.2114390  75.6926380
 110.3891580  12.1978490  75.3645680 111.1119710  12.7387430  75.6826900
 110.6616100  11.9241910  74.4887220 110.0783770  11.4484680  85.2668300
 110.7259960  10.8982060  84.8263460 110.4985610  11.7027830  86.0884110
 109.8315770  11.6040350  88.0093620 109.4830590  12.0604170  88.7751800
 109.5003470  10.7097480  88.0916050 111.4380140  24.7759950  92.1746810
 111.3949770  24.4052860  93.0561270 111.5691150  25.7137520  92.3148630
 115.1386170  26.3319540  87.7756530 114.8977530  26.5994100  86.8887050
 116.0788810  26.5025270  87.8307390 117.3440590  12.7952230  91.5313040
 117.2829480  13.3874060  92.2808450 118.2840970  12.6878190  91.3863300
 110.5036410  11.1316550  91.2844390 111.0519400  10.9504600  90.5210500
 110.5691720  10.3410660  91.8200700 111.2768170  27.7222200  89.2944590
 110.6828490  27.5906900  90.0334630 111.2692010  26.8860340  88.8286690
 110.9080400  25.0880580  88.2452630 110.1814460  24.4685870  88.1778580
 110.9689550  25.4821190  87.3750710 114.5125500  27.3025580  85.0302040
 115.0290520  26.6912940  84.5050300 115.1622880  27.8054360  85.5213050
 117.2521000  28.1934070  85.8571020 117.5398810  27.9388370  84.9804030
 117.7644220  27.6411430  86.4476590 118.4698010  11.9324270  86.4367530
 117.6869800  12.4069770  86.7164290 118.1760940  11.0279100  86.3280710
 109.1910400  28.4054970  81.4549390 109.0232440  27.7725650  82.1531280
 108.3244910  28.6114370  81.1043580 109.8138420  12.2371750  78.9581250
 110.5717780  12.3500630  78.3845280 109.3515590  13.0740950  78.9124680
 116.3552230  14.3511020  81.9483560 115.5426740  13.9767910  81.6079440
 116.8593870  13.5956100  82.2504750 110.7973100  27.0988200  78.8999530
 110.2720720  27.4796230  78.1961490 110.7217680  27.7238970  79.6209240
 112.1863570  12.7635800  77.4983220 112.7156330  11.9765600  77.3691170
 112.8191890  13.4426990  77.7318750 114.3801410  12.5010940  80.5528610
 113.7504150  11.7998250  80.7198740 113.8406550  13.2615070  80.3361770
 117.3193360  29.1150170  93.2239220 118.2460670  28.8794440  93.2675180
 117.3043790  29.9422170  92.7425250 114.5056970  11.7794920  92.9881100
 114.2241240  12.2828520  92.2241920 114.8876670  10.9816670  92.6223230
 113.3966070  29.0470580  77.7748780 114.1284890  28.7629860  77.2272670
 113.6559740  28.8083860  78.6648160 112.5580860  25.1635310  77.7795110
 111.9289740  25.6320410  78.3280940 112.6728690  24.3184530  78.2141300
 120.0130580  19.2140970  63.9296310 119.9324630  18.2995580  63.6588020
 119.5995000  19.7108040  63.2236020 118.1448620  20.9919990  65.8105580
 117.3690720  20.5120430  66.1004150 118.7961550  20.3125640  65.6361740
 112.1614450  21.3039800  66.6881340 111.3299330  21.0488510  67.0877850
 112.7695430  21.3750570  67.4239260 112.1415710  25.3379890  66.8839360
 112.4443750  24.4477630  66.7049580 112.8859300  25.8950110  66.6561610
 110.5706400  16.2641690  60.4723730 109.6823100  16.6057660  60.3703610
 110.8547590  16.0642010  59.5804560 108.5339410  18.8647340  66.3563430
 109.1055520  18.0969540  66.3567070 108.5340950  19.1636100  65.4470040
 118.3919360  27.6838190  64.2108700 117.7730800  28.1395690  63.6403140
 119.2471140  27.8389650  63.8098400 117.5857610  23.6677180  65.8175740
 117.5165890  22.7267120  65.6564870 118.3477470  23.7578590  66.3898310
 109.7764280  14.2731700  68.1432360 109.5967120  13.3757450  68.4235120
 109.3744360  14.8203570  68.8179310 118.6162780  16.4747560  66.0444670
 118.9927600  15.6019440  65.9318340 118.5182290  16.8106260  65.1535110
 112.7467790  14.8473190  61.5062110 112.8534540  15.7476920  61.8130870
 111.8360150  14.7991160  61.2156760 110.3950950  16.7692200  66.7514700
 111.0761060  17.0330570  67.3702100 110.0799000  15.9293070  67.0852710
 114.5875520  17.8159560  65.8387290 115.0953740  18.3140530  66.4792310
 115.1188760  17.0394760  65.6626650 112.8711620  12.4558120  70.1050710
 112.8730060  12.9730510  69.2996610 112.0415930  11.9788300  70.0820640
 119.2582710  22.5677430  61.6040610 118.6399980  23.0326880  61.0403330
 119.7705960  23.2604910  62.0210120 114.1214470  22.0953300  68.2824210
 113.7883850  22.7222220  68.9245280 114.2981150  22.6215180  67.5025880
 112.5526950  14.1668080  68.1121160 112.8943760  15.0110130  67.8175030
 111.6142760  14.3151820  68.2286500 113.3333570  24.0634100  70.0973390
 113.9507570  24.7385180  69.8157840 112.4726690  24.4722080  70.0060890
 108.6265910  23.2533960  58.9780240 108.2493890  23.7421060  58.2465140
 108.8838980  23.9259240  59.6086770 116.2354840  11.6550350  64.4365750
 116.5429820  11.0997240  63.7201250 115.3055540  11.7894810  64.2538740
 118.6235600  19.7199180  61.1725870 117.6964880  19.6536560  61.4014340
 118.7760420  20.6579310  61.0581110 118.6104680  15.9916180  58.1693030
 117.6708350  16.1530140  58.2545490 118.9287940  16.7101860  57.6229020
 114.2292240  20.2463920  63.9545600 113.8249240  19.5341170  63.4591500
 114.3155360  19.9017160  64.8433640 114.6973940  23.9331480  66.1184810
 114.4002230  23.3276950  65.4392590 115.6473760  23.9708790  66.0074170
 112.9420860  17.0207130  67.7344640 113.4935450  17.1302470  66.9597890
 113.4564370  17.3944730  68.4499870 113.7892370  23.6713170  72.7692610
 112.8920900  23.8953140  73.0166010 113.8145240  23.7948110  71.8204010
 112.6163590  20.5426490  71.3449980 112.4771360  21.4149290  71.7137380
 111.7344950  20.1999300  71.1997920 118.9392970  25.4602360  62.6515110
 119.3788880  26.2026690  62.2370500 118.8779860  25.7028930  63.5754070
 114.4143940  26.4848190  73.5535130 114.3859370  26.8891140  72.6863560
 114.2508910  25.5558550  73.3906730 110.9296870  19.1408900  61.4552250
 110.8094470  19.8670990  60.8433520 110.6197760  18.3711810  60.9780160
 108.5682240  22.3124040  67.2620890 108.6462660  22.4472810  66.3176610
 109.1823920  21.6039930  67.4549010 109.8129870  24.0124230  63.6727070
 109.4057950  24.1538820  62.8180670 110.7042880  23.7284390  63.4698280
 119.6308750  28.1616140  70.5794120 120.1453420  28.0724150  71.3816550
 118.7877830  28.5075840  70.8722030 114.0851530  28.2270010  61.7849740
 113.9094010  27.3105550  61.5717540 113.2307270  28.5857300  62.0247540
 108.6241760  23.3538210  69.8015350 108.7872800  22.8843570  68.9834720
 109.0894210  22.8461770  70.4664190 113.3960530  12.4843970  64.8375920
 112.9528680  13.2653510  64.5060440 113.9545520  12.8073860  65.5446860
 117.6830340  15.3512490  70.4411240 117.2209710  15.5595510  71.2531180
 117.2808450  14.5371840  70.1381910 116.5119350  12.1054670  59.7181750
 115.8873530  12.1014540  60.4435060 116.4249470  11.2385630  59.3217720
 115.4336430  13.0291300  66.6965520 115.7308760  13.9354130  66.6157540
 115.9821990  12.5410080  66.0825090 113.1874750  17.6077540  62.5657170
 112.9615670  17.3914710  63.4703790 112.4067280  18.0406000  62.2203140
 115.6273960  18.5063120  73.2317440 115.5317560  17.5657850  73.0817840
 116.4705940  18.7278190  72.8365510 119.0237380  16.2504450  63.1951100
 119.4166950  16.5676650  62.3819790 119.3854230  15.3716330  63.3095620
 110.7584500  14.9176790  71.3851220 110.3647890  15.7652000  71.5924000
 110.0702900  14.2803160  71.5759860 117.3329550  15.0011760  74.4547960
 116.6427870  14.8083960  75.0894050 118.0761850  15.2846400  74.9872260
 108.0601550  12.8405250  65.4181300 107.7714600  13.4108110  66.1306280
 108.8047310  12.3609700  65.7812530 108.2471780  16.7825370  56.6284020
 108.1646450  17.7256130  56.7699010 107.8954840  16.6400280  55.7496370
 119.6092520  18.8410200  67.2901880 118.8773640  19.3497010  67.6391980
 119.2116860  18.0240180  66.9890660 116.0469910  15.5164400  65.6954370
 116.0505970  15.0754350  64.8458910 116.9421030  15.8381730  65.8026190
 111.8972290  15.3990890  64.6548580 111.5572340  15.8766120  65.4115630
 111.1349610  14.9456010  64.2949680 116.1090060  16.5176480  58.6861130
 116.2302880  16.4762960  59.6346950 115.7238570  17.3800630  58.5307860
 120.0718430  14.2943880  66.7024820 120.0891170  14.7452530  67.5466670
 119.8234010  13.3949520  66.9158260 115.1211560  18.8277620  58.0844430
 114.5528460  18.3795870  57.4580340 115.8300560  19.1870400  57.5509580
 110.1980740  22.7289640  71.9611160 109.8135530  22.0883310  72.5594120
 110.5092930  23.4325760  72.5305890 116.3477880  19.5766180  67.4419780
 116.7148010  19.1024750  68.1881120 116.1582940  20.4507750  67.7828120
 109.2118370  14.3209870  63.5713250 108.9265290  13.9565540  64.4091870
 109.1497230  13.5890330  62.9576390 114.1377250  18.6174820  69.7603990
 113.8334320  19.4966800  69.9854350 115.0923710  18.6774610  69.7961430
 112.6659040  22.8235810  60.3570840 111.8921300  22.2833430  60.1969560
 113.3953670  22.3042420  60.0188600 118.8856960  13.2139130  60.2926620
 118.0721570  12.7152300  60.2171930 118.6918910  14.0537380  59.8762970
 118.8065820  21.8910230  72.0366230 118.7403130  20.9705900  71.7823820
 118.1770960  21.9885670  72.7510870 112.7096440  22.4916190  63.9949650
 113.2275110  21.6884450  63.9406540 112.2580460  22.4295330  64.8366480
 117.5965940  23.7582470  59.2676950 117.9381640  24.5024700  58.7720270
 116.7678650  24.0713590  59.6301780 110.1940980  19.4577560  70.9075350
 109.8355920  20.1231410  71.4948690 109.8995540  18.6261110  71.2787970
 113.3954100  19.9161800  73.7914900 113.0954240  20.0618980  72.8942720
 114.1665340  19.3567090  73.6988290 118.7382550  24.7130800  71.7870030
 118.7527090  23.7811760  71.5688940 118.0307650  24.7990560  72.4259800
 116.5656630  23.8396000  62.0392870 117.2527760  24.3865210  62.4200460
 115.7789050  24.3836730  62.0742480 108.7049030  19.4568820  57.5309950
 109.5743880  19.7393620  57.8145870 108.2139350  20.2704690  57.4158760
 115.8683840  20.8442030  61.6518230 116.3246620  21.6547280  61.8778420
 115.5172050  20.5265170  62.4836720 118.1716450  26.3548370  68.8810530
 118.8158670  26.5607750  69.5583950 118.5345890  25.5936770  68.4281380
 111.7695620  11.1879680  62.1240750 111.6410250  11.1797580  63.0725670
 110.9457640  11.5262770  61.7731760 119.4448530  24.3580720  67.5987980
 120.0870760  23.6573880  67.7120150 119.9697880  25.1379160  67.4184870
 109.0720280  28.6696200  58.0971580 109.4317920  29.2685540  57.4428850
 108.9312620  29.2156090  58.8706610 108.7689550  12.9470800  71.5847450
 108.0548070  13.1467720  72.1900060 109.1884590  12.1710370  71.9562250
 109.0562140  26.9351060  72.5713980 109.1653260  25.9945800  72.4309370
 108.4042700  27.2005810  71.9227710 117.0474730  25.2066950  73.9712100
 116.7271600  24.4876190  74.5157790 116.3733090  25.8822020  74.0448160
 115.0888900  26.0527400  58.9145250 115.0799000  26.7857090  58.2989760
 114.1687260  25.8058980  59.0072210 110.6895540  21.2742290  59.6592010
 110.0823490  22.0141190  59.6687310 111.1644890  21.3641650  58.8330210
 118.0748500  26.1155640  57.5770440 118.1760480  25.9119630  56.6472420
 117.1750240  25.8613920  57.7818220 115.5974390  16.6736000  61.5594340
 114.8890540  17.1422340  62.0007950 115.8818870  16.0158010  62.1939530
 117.2230320  18.0932700  69.5586870 117.7215570  18.5678520  70.2238720
 117.3653270  17.1696220  69.7656900 116.7166610  28.6341960  62.2718110
 116.9708110  28.5963350  61.3497480 115.7679090  28.5075290  62.2646360
 113.8009410  14.9821080  58.9345050 114.6499940  15.4191230  58.8685240
 113.4340680  15.2941340  59.7617110 112.7000830  21.2353440  57.4080580
 113.4664100  21.1234800  57.9706010 112.7775520  20.5391410  56.7557350
 111.3947590  18.6678510  58.0913470 111.4751180  17.7206020  58.2030870
 112.2867340  18.9985390  58.1974130 112.1962300  28.8173900  65.1948010
 112.9324780  28.2689360  65.4656580 112.5803220  29.6829910  65.0554000
 109.0807780  24.8847470  61.0689520 108.1547560  25.1268610  61.0594930
 109.5464210  25.7121730  60.9474270 111.2020580  28.0019970  74.3833590
 112.0033310  28.3232020  74.7968990 110.6872400  27.6415550  75.1053500
 115.3064610  27.9904210  57.0173580 116.0993220  28.2793040  56.5655370
 114.7868960  27.5596380  56.3386060 120.0385210  24.1099840  74.3309000
 119.4323370  24.1331440  73.5904750 119.7339320  23.3782880  74.8676250
 108.9218390  20.4893430  73.3269640 109.4257410  19.9100710  73.8985870
 108.1825810  20.7733660  73.8646010 115.8242010  23.2107620  56.8815930
 115.7192650  22.5959970  57.6077310 115.6566230  22.6873510  56.0978940
 115.9756330  21.8964420  72.8605160 115.2102000  22.4649420  72.7759830
 116.1572290  21.6040630  71.9673390 119.0644740  22.2727650  57.4857920
 118.5154840  22.7196950  58.1300660 119.6864000  21.7676900  58.0095590
 110.9541470  18.6323020  74.2219710 110.9946810  18.3336890  75.1304940
 111.8086970  19.0330630  74.0627230 114.7319860  21.2318570  59.3823220
 115.1536280  21.0658440  60.2254610 114.8570700  20.4218800  58.8878360
 112.8947280  17.2115120  72.1894200 112.3643740  16.7206070  71.5617540
 113.5635350  17.6399320  71.6552130 117.2447500  20.2556180  56.6300320
 117.7653160  19.5405200  56.2641470 117.8915900  20.8942050  56.9300830
 113.3819580  14.1777490  72.2691490 113.2876450  13.5598240  71.5442360
 112.8016970  14.9043780  72.0421400 116.1481020  12.7350730  69.3018880
 115.6998320  12.7574990  68.4564430 115.5146220  12.3369750  69.8989180
 116.5540570  21.6305060  69.9231320 116.9728680  22.4737790  69.7507560
 115.6349200  21.7677100  69.6938100 118.8904470  19.3621240  71.3069160
 119.0100680  18.7662380  72.0464000 119.7498470  19.3990930  70.8870460
 113.6278760  17.3051800  56.3281380 113.4267820  16.4419160  56.6894720
 113.4570810  17.2185160  55.3902980 114.4047990  27.9358070  71.0389050
 113.8669080  28.6604130  70.7197750 114.6581950  27.4588410  70.2486390
 115.6573240  15.9042590  72.5644980 116.2472930  15.5958440  73.2522800
 114.8393480  15.4322340  72.7204880 112.4261560  14.4052420  56.3159260
 112.7287460  14.4119850  55.4078410 113.1656150  14.0550280  56.8126920
 117.2610200  29.1709280  71.2975700 117.1868900  30.0744420  71.6048070
 116.3589040  28.8521180  71.2697770 115.6446490  13.3487040  57.3015460
 115.2968490  12.6711030  56.7217910 115.8459260  12.8876550  58.1158850
 117.8095530  28.3367790  58.9202060 118.7046320  28.6752760  58.9420820
 117.8413160  27.6147200  58.2926340 111.4491690  23.7094840  57.1489060
 111.8866560  24.2524510  57.8046640 111.9339420  22.8841790  57.1585400
 108.6637490  26.4983870  64.6009320 108.9940500  25.6304930  64.3687960
 109.0928490  26.7042390  65.4314280 113.2599410  24.8292880  62.2611290
 112.9594950  24.7057850  63.1615200 113.1536900  23.9701470  61.8527020
 109.1527700  27.3654460  67.3390950 108.7158690  27.5455260  68.1715100
 109.7205380  28.1229080  67.1972670 108.9852130  19.8774690  63.6979830
 108.3300970  19.6086330  63.0539530 109.8230080  19.7679170  63.2481810
 110.0228060  20.2627260  68.2383170 110.3901100  20.1754660  69.1179190
 109.4538880  19.4993810  68.1390030 109.5744060  17.1736350  72.1441590
 108.6800110  17.1403110  72.4835300 110.1141610  17.3723140  72.9092840
 108.1990210  17.0873620  59.6405160 107.2954290  17.3503820  59.4656820
 108.6830830  17.3584790  58.8605120 110.7417420  16.1439160  57.5499540
 111.4509120  15.7222380  57.0646820 110.0257360  16.2114390  56.9182890
 110.3891580  12.1978490  56.5902190 111.1119710  12.7387430  56.9083410
 110.6616100  11.9241910  55.7143730 110.0783770  11.4484680  66.4924810
 110.7259960  10.8982060  66.0519970 110.4985610  11.7027830  67.3140620
 109.8315770  11.6040350  69.2350130 109.4830590  12.0604170  70.0008310
 109.5003470  10.7097480  69.3172560 111.4380140  24.7759950  73.4003320
 111.3949770  24.4052860  74.2817780 111.5691150  25.7137520  73.5405140
 115.1386170  26.3319540  69.0013040 114.8977530  26.5994100  68.1143560
 116.0788810  26.5025270  69.0563900 117.3440590  12.7952230  72.7569550
 117.2829480  13.3874060  73.5064960 118.2840970  12.6878190  72.6119810
 110.5036410  11.1316550  72.5100900 111.0519400  10.9504600  71.7467010
 110.5691720  10.3410660  73.0457210 111.2768170  27.7222200  70.5201100
 110.6828490  27.5906900  71.2591140 111.2692010  26.8860340  70.0543200
 110.9080400  25.0880580  69.4709140 110.1814460  24.4685870  69.4035090
 110.9689550  25.4821190  68.6007220 114.5125500  27.3025580  66.2558550
 115.0290520  26.6912940  65.7306810 115.1622880  27.8054360  66.7469560
 117.2521000  28.1934070  67.0827530 117.5398810  27.9388370  66.2060540
 117.7644220  27.6411430  67.6733100 118.4698010  11.9324270  67.6624040
 117.6869800  12.4069770  67.9420800 118.1760940  11.0279100  67.5537220
 109.1910400  28.4054970  62.6805900 109.0232440  27.7725650  63.3787790
 108.3244910  28.6114370  62.3300090 109.8138420  12.2371750  60.1837760
 110.5717780  12.3500630  59.6101790 109.3515590  13.0740950  60.1381190
 116.3552230  14.3511020  63.1740070 115.5426740  13.9767910  62.8335950
 116.8593870  13.5956100  63.4761260 110.7973100  27.0988200  60.1256040
 110.2720720  27.4796230  59.4218000 110.7217680  27.7238970  60.8465750
 112.1863570  12.7635800  58.7239730 112.7156330  11.9765600  58.5947680
 112.8191890  13.4426990  58.9575260 114.3801410  12.5010940  61.7785120
 113.7504150  11.7998250  61.9455250 113.8406550  13.2615070  61.5618280
 117.3193360  29.1150170  74.4495730 118.2460670  28.8794440  74.4931690
 117.3043790  29.9422170  73.9681760 114.5056970  11.7794920  74.2137610
 114.2241240  12.2828520  73.4498430 114.8876670  10.9816670  73.8479740
 113.3966070  29.0470580  59.0005290 114.1284890  28.7629860  58.4529180
 113.6559740  28.8083860  59.8904670 112.5580860  25.1635310  59.0051620
 111.9289740  25.6320410  59.5537450 112.6728690  24.3184530  59.4397810
 120.0130580  19.2140970  45.1552820 119.9324630  18.2995580  44.8844530
 119.5995000  19.7108040  44.4492530 118.1448620  20.9919990  47.0362090
 117.3690720  20.5120430  47.3260660 118.7961550  20.3125640  46.8618250
 112.1614450  21.3039800  47.9137850 111.3299330  21.0488510  48.3134360
 112.7695430  21.3750570  48.6495770 112.1415710  25.3379890  48.1095870
 112.4443750  24.4477630  47.9306090 112.8859300  25.8950110  47.8818120
 110.5706400  16.2641690  41.6980240 109.6823100  16.6057660  41.5960120
 110.8547590  16.0642010  40.8061070 108.5339410  18.8647340  47.5819940
 109.1055520  18.0969540  47.5823580 108.5340950  19.1636100  46.6726550
 118.3919360  27.6838190  45.4365210 117.7730800  28.1395690  44.8659650
 119.2471140  27.8389650  45.0354910 117.5857610  23.6677180  47.0432250
 117.5165890  22.7267120  46.8821380 118.3477470  23.7578590  47.6154820
 109.7764280  14.2731700  49.3688870 109.5967120  13.3757450  49.6491630
 109.3744360  14.8203570  50.0435820 118.6162780  16.4747560  47.2701180
 118.9927600  15.6019440  47.1574850 118.5182290  16.8106260  46.3791620
 112.7467790  14.8473190  42.7318620 112.8534540  15.7476920  43.0387380
 111.8360150  14.7991160  42.4413270 110.3950950  16.7692200  47.9771210
 111.0761060  17.0330570  48.5958610 110.0799000  15.9293070  48.3109220
 114.5875520  17.8159560  47.0643800 115.0953740  18.3140530  47.7048820
 115.1188760  17.0394760  46.8883160 112.8711620  12.4558120  51.3307220
 112.8730060  12.9730510  50.5253120 112.0415930  11.9788300  51.3077150
 119.2582710  22.5677430  42.8297120 118.6399980  23.0326880  42.2659840
 119.7705960  23.2604910  43.2466630 114.1214470  22.0953300  49.5080720
 113.7883850  22.7222220  50.1501790 114.2981150  22.6215180  48.7282390
 112.5526950  14.1668080  49.3377670 112.8943760  15.0110130  49.0431540
 111.6142760  14.3151820  49.4543010 113.3333570  24.0634100  51.3229900
 113.9507570  24.7385180  51.0414350 112.4726690  24.4722080  51.2317400
 108.6265910  23.2533960  40.2036750 108.2493890  23.7421060  39.4721650
 108.8838980  23.9259240  40.8343280 116.2354840  11.6550350  45.6622260
 116.5429820  11.0997240  44.9457760 115.3055540  11.7894810  45.4795250
 118.6235600  19.7199180  42.3982380 117.6964880  19.6536560  42.6270850
 118.7760420  20.6579310  42.2837620 118.6104680  15.9916180  39.3949540
 117.6708350  16.1530140  39.4802000 118.9287940  16.7101860  38.8485530
 114.2292240  20.2463920  45.1802110 113.8249240  19.5341170  44.6848010
 114.3155360  19.9017160  46.0690150 114.6973940  23.9331480  47.3441320
 114.4002230  23.3276950  46.6649100 115.6473760  23.9708790  47.2330680
 112.9420860  17.0207130  48.9601150 113.4935450  17.1302470  48.1854400
 113.4564370  17.3944730  49.6756380 113.7892370  23.6713170  53.9949120
 112.8920900  23.8953140  54.2422520 113.8145240  23.7948110  53.0460520
 112.6163590  20.5426490  52.5706490 112.4771360  21.4149290  52.9393890
 111.7344950  20.1999300  52.4254430 118.9392970  25.4602360  43.8771620
 119.3788880  26.2026690  43.4627010 118.8779860  25.7028930  44.8010580
 114.4143940  26.4848190  54.7791640 114.3859370  26.8891140  53.9120070
 114.2508910  25.5558550  54.6163240 110.9296870  19.1408900  42.6808760
 110.8094470  19.8670990  42.0690030 110.6197760  18.3711810  42.2036670
 108.5682240  22.3124040  48.4877400 108.6462660  22.4472810  47.5433120
 109.1823920  21.6039930  48.6805520 109.8129870  24.0124230  44.8983580
 109.4057950  24.1538820  44.0437180 110.7042880  23.7284390  44.6954790
 119.6308750  28.1616140  51.8050630 120.1453420  28.0724150  52.6073060
 118.7877830  28.5075840  52.0978540 114.0851530  28.2270010  43.0106250
 113.9094010  27.3105550  42.7974050 113.2307270  28.5857300  43.2504050
 108.6241760  23.3538210  51.0271860 108.7872800  22.8843570  50.2091230
 109.0894210  22.8461770  51.6920700 113.3960530  12.4843970  46.0632430
 112.9528680  13.2653510  45.7316950 113.9545520  12.8073860  46.7703370
 117.6830340  15.3512490  51.6667750 117.2209710  15.5595510  52.4787690
 117.2808450  14.5371840  51.3638420 116.5119350  12.1054670  40.9438260
 115.8873530  12.1014540  41.6691570 116.4249470  11.2385630  40.5474230
 115.4336430  13.0291300  47.9222030 115.7308760  13.9354130  47.8414050
 115.9821990  12.5410080  47.3081600 113.1874750  17.6077540  43.7913680
 112.9615670  17.3914710  44.6960300 112.4067280  18.0406000  43.4459650
 115.6273960  18.5063120  54.4573950 115.5317560  17.5657850  54.3074350
 116.4705940  18.7278190  54.0622020 119.0237380  16.2504450  44.4207610
 119.4166950  16.5676650  43.6076300 119.3854230  15.3716330  44.5352130
 110.7584500  14.9176790  52.6107730 110.3647890  15.7652000  52.8180510
 110.0702900  14.2803160  52.8016370 117.3329550  15.0011760  55.6804470
 116.6427870  14.8083960  56.3150560 118.0761850  15.2846400  56.2128770
 108.0601550  12.8405250  46.6437810 107.7714600  13.4108110  47.3562790
 108.8047310  12.3609700  47.0069040 108.2471780  16.7825370  37.8540530
 108.1646450  17.7256130  37.9955520 107.8954840  16.6400280  36.9752880
 119.6092520  18.8410200  48.5158390 118.8773640  19.3497010  48.8648490
 119.2116860  18.0240180  48.2147170 116.0469910  15.5164400  46.9210880
 116.0505970  15.0754350  46.0715420 116.9421030  15.8381730  47.0282700
 111.8972290  15.3990890  45.8805090 111.5572340  15.8766120  46.6372140
 111.1349610  14.9456010  45.5206190 116.1090060  16.5176480  39.9117640
 116.2302880  16.4762960  40.8603460 115.7238570  17.3800630  39.7564370
 120.0718430  14.2943880  47.9281330 120.0891170  14.7452530  48.7723180
 119.8234010  13.3949520  48.1414770 115.1211560  18.8277620  39.3100940
 114.5528460  18.3795870  38.6836850 115.8300560  19.1870400  38.7766090
 110.1980740  22.7289640  53.1867670 109.8135530  22.0883310  53.7850630
 110.5092930  23.4325760  53.7562400 116.3477880  19.5766180  48.6676290
 116.7148010  19.1024750  49.4137630 116.1582940  20.4507750  49.0084630
 109.2118370  14.3209870  44.7969760 108.9265290  13.9565540  45.6348380
 109.1497230  13.5890330  44.1832900 114.1377250  18.6174820  50.9860500
 113.8334320  19.4966800  51.2110860 115.0923710  18.6774610  51.0217940
 112.6659040  22.8235810  41.5827350 111.8921300  22.2833430  41.4226070
 113.3953670  22.3042420  41.2445110 118.8856960  13.2139130  41.5183130
 118.0721570  12.7152300  41.4428440 118.6918910  14.0537380  41.1019480
 118.8065820  21.8910230  53.2622740 118.7403130  20.9705900  53.0080330
 118.1770960  21.9885670  53.9767380 112.7096440  22.4916190  45.2206160
 113.2275110  21.6884450  45.1663050 112.2580460  22.4295330  46.0622990
 117.5965940  23.7582470  40.4933460 117.9381640  24.5024700  39.9976780
 116.7678650  24.0713590  40.8558290 110.1940980  19.4577560  52.1331860
 109.8355920  20.1231410  52.7205200 109.8995540  18.6261110  52.5044480
 113.3954100  19.9161800  55.0171410 113.0954240  20.0618980  54.1199230
 114.1665340  19.3567090  54.9244800 118.7382550  24.7130800  53.0126540
 118.7527090  23.7811760  52.7945450 118.0307650  24.7990560  53.6516310
 116.5656630  23.8396000  43.2649380 117.2527760  24.3865210  43.6456970
 115.7789050  24.3836730  43.2998990 108.7049030  19.4568820  38.7566460
 109.5743880  19.7393620  39.0402380 108.2139350  20.2704690  38.6415270
 115.8683840  20.8442030  42.8774740 116.3246620  21.6547280  43.1034930
 115.5172050  20.5265170  43.7093230 118.1716450  26.3548370  50.1067040
 118.8158670  26.5607750  50.7840460 118.5345890  25.5936770  49.6537890
 111.7695620  11.1879680  43.3497260 111.6410250  11.1797580  44.2982180
 110.9457640  11.5262770  42.9988270 119.4448530  24.3580720  48.8244490
 120.0870760  23.6573880  48.9376660 119.9697880  25.1379160  48.6441380
 109.0720280  28.6696200  39.3228090 109.4317920  29.2685540  38.6685360
 108.9312620  29.2156090  40.0963120 108.7689550  12.9470800  52.8103960
 108.0548070  13.1467720  53.4156570 109.1884590  12.1710370  53.1818760
 109.0562140  26.9351060  53.7970490 109.1653260  25.9945800  53.6565880
 108.4042700  27.2005810  53.1484220 117.0474730  25.2066950  55.1968610
 116.7271600  24.4876190  55.7414300 116.3733090  25.8822020  55.2704670
 115.0888900  26.0527400  40.1401760 115.0799000  26.7857090  39.5246270
 114.1687260  25.8058980  40.2328720 110.6895540  21.2742290  40.8848520
 110.0823490  22.0141190  40.8943820 111.1644890  21.3641650  40.0586720
 118.0748500  26.1155640  38.8026950 118.1760480  25.9119630  37.8728930
 117.1750240  25.8613920  39.0074730 115.5974390  16.6736000  42.7850850
 114.8890540  17.1422340  43.2264460 115.8818870  16.0158010  43.4196040
 117.2230320  18.0932700  50.7843380 117.7215570  18.5678520  51.4495230
 117.3653270  17.1696220  50.9913410 116.7166610  28.6341960  43.4974620
 116.9708110  28.5963350  42.5753990 115.7679090  28.5075290  43.4902870
 113.8009410  14.9821080  40.1601560 114.6499940  15.4191230  40.0941750
 113.4340680  15.2941340  40.9873620 112.7000830  21.2353440  38.6337090
 113.4664100  21.1234800  39.1962520 112.7775520  20.5391410  37.9813860
 111.3947590  18.6678510  39.3169980 111.4751180  17.7206020  39.4287380
 112.2867340  18.9985390  39.4230640 112.1962300  28.8173900  46.4204520
 112.9324780  28.2689360  46.6913090 112.5803220  29.6829910  46.2810510
 109.0807780  24.8847470  42.2946030 108.1547560  25.1268610  42.2851440
 109.5464210  25.7121730  42.1730780 111.2020580  28.0019970  55.6090100
 112.0033310  28.3232020  56.0225500 110.6872400  27.6415550  56.3310010
 115.3064610  27.9904210  38.2430090 116.0993220  28.2793040  37.7911880
 114.7868960  27.5596380  37.5642570 120.0385210  24.1099840  55.5565510
 119.4323370  24.1331440  54.8161260 119.7339320  23.3782880  56.0932760
 108.9218390  20.4893430  54.5526150 109.4257410  19.9100710  55.1242380
 108.1825810  20.7733660  55.0902520 115.8242010  23.2107620  38.1072440
 115.7192650  22.5959970  38.8333820 115.6566230  22.6873510  37.3235450
 115.9756330  21.8964420  54.0861670 115.2102000  22.4649420  54.0016340
 116.1572290  21.6040630  53.1929900 119.0644740  22.2727650  38.7114430
 118.5154840  22.7196950  39.3557170 119.6864000  21.7676900  39.2352100
 110.9541470  18.6323020  55.4476220 110.9946810  18.3336890  56.3561450
 111.8086970  19.0330630  55.2883740 114.7319860  21.2318570  40.6079730
 115.1536280  21.0658440  41.4511120 114.8570700  20.4218800  40.1134870
 112.8947280  17.2115120  53.4150710 112.3643740  16.7206070  52.7874050
 113.5635350  17.6399320  52.8808640 117.2447500  20.2556180  37.8556830
 117.7653160  19.5405200  37.4897980 117.8915900  20.8942050  38.1557340
 113.3819580  14.1777490  53.4948000 113.2876450  13.5598240  52.7698870
 112.8016970  14.9043780  53.2677910 116.1481020  12.7350730  50.5275390
 115.6998320  12.7574990  49.6820940 115.5146220  12.3369750  51.1245690
 116.5540570  21.6305060  51.1487830 116.9728680  22.4737790  50.9764070
 115.6349200  21.7677100  50.9194610 118.8904470  19.3621240  52.5325670
 119.0100680  18.7662380  53.2720510 119.7498470  19.3990930  52.1126970
 113.6278760  17.3051800  37.5537890 113.4267820  16.4419160  37.9151230
 113.4570810  17.2185160  36.6159490 114.4047990  27.9358070  52.2645560
 113.8669080  28.6604130  51.9454260 114.6581950  27.4588410  51.4742900
 115.6573240  15.9042590  53.7901490 116.2472930  15.5958440  54.4779310
 114.8393480  15.4322340  53.9461390 112.4261560  14.4052420  37.5415770
 112.7287460  14.4119850  36.6334920 113.1656150  14.0550280  38.0383430
 117.2610200  29.1709280  52.5232210 117.1868900  30.0744420  52.8304580
 116.3589040  28.8521180  52.4954280 115.6446490  13.3487040  38.5271970
 115.2968490  12.6711030  37.9474420 115.8459260  12.8876550  39.3415360
 117.8095530  28.3367790  40.1458570 118.7046320  28.6752760  40.1677330
 117.8413160  27.6147200  39.5182850 111.4491690  23.7094840  38.3745570
 111.8866560  24.2524510  39.0303150 111.9339420  22.8841790  38.3841910
 108.6637490  26.4983870  45.8265830 108.9940500  25.6304930  45.5944470
 109.0928490  26.7042390  46.6570790 113.2599410  24.8292880  43.4867800
 112.9594950  24.7057850  44.3871710 113.1536900  23.9701470  43.0783530
 109.1527700  27.3654460  48.5647460 108.7158690  27.5455260  49.3971610
 109.7205380  28.1229080  48.4229180 108.9852130  19.8774690  44.9236340
 108.3300970  19.6086330  44.2796040 109.8230080  19.7679170  44.4738320
 110.0228060  20.2627260  49.4639680 110.3901100  20.1754660  50.3435700
 109.4538880  19.4993810  49.3646540 109.5744060  17.1736350  53.3698100
 108.6800110  17.1403110  53.7091810 110.1141610  17.3723140  54.1349350
 108.1990210  17.0873620  40.8661670 107.2954290  17.3503820  40.6913330
 108.6830830  17.3584790  40.0861630 110.7417420  16.1439160  38.7756050
 111.4509120  15.7222380  38.2903330 110.0257360  16.2114390  38.1439400
 110.3891580  12.1978490  37.8158700 111.1119710  12.7387430  38.1339920
 110.6616100  11.9241910  36.9400240 110.0783770  11.4484680  47.7181320
 110.7259960  10.8982060  47.2776480 110.4985610  11.7027830  48.5397130
 109.8315770  11.6040350  50.4606640 109.4830590  12.0604170  51.2264820
 109.5003470  10.7097480  50.5429070 111.4380140  24.7759950  54.6259830
 111.3949770  24.4052860  55.5074290 111.5691150  25.7137520  54.7661650
 115.1386170  26.3319540  50.2269550 114.8977530  26.5994100  49.3400070
 116.0788810  26.5025270  50.2820410 117.3440590  12.7952230  53.9826060
 117.2829480  13.3874060  54.7321470 118.2840970  12.6878190  53.8376320
 110.5036410  11.1316550  53.7357410 111.0519400  10.9504600  52.9723520
 110.5691720  10.3410660  54.2713720 111.2768170  27.7222200  51.7457610
 110.6828490  27.5906900  52.4847650 111.2692010  26.8860340  51.2799710
 110.9080400  25.0880580  50.6965650 110.1814460  24.4685870  50.6291600
 110.9689550  25.4821190  49.8263730 114.5125500  27.3025580  47.4815060
 115.0290520  26.6912940  46.9563320 115.1622880  27.8054360  47.9726070
 117.2521000  28.1934070  48.3084040 117.5398810  27.9388370  47.4317050
 117.7644220  27.6411430  48.8989610 118.4698010  11.9324270  48.8880550
 117.6869800  12.4069770  49.1677310 118.1760940  11.0279100  48.7793730
 109.1910400  28.4054970  43.9062410 109.0232440  27.7725650  44.6044300
 108.3244910  28.6114370  43.5556600 109.8138420  12.2371750  41.4094270
 110.5717780  12.3500630  40.8358300 109.3515590  13.0740950  41.3637700
 116.3552230  14.3511020  44.3996580 115.5426740  13.9767910  44.0592460
 116.8593870  13.5956100  44.7017770 110.7973100  27.0988200  41.3512550
 110.2720720  27.4796230  40.6474510 110.7217680  27.7238970  42.0722260
 112.1863570  12.7635800  39.9496240 112.7156330  11.9765600  39.8204190
 112.8191890  13.4426990  40.1831770 114.3801410  12.5010940  43.0041630
 113.7504150  11.7998250  43.1711760 113.8406550  13.2615070  42.7874790
 117.3193360  29.1150170  55.6752240 118.2460670  28.8794440  55.7188200
 117.3043790  29.9422170  55.1938270 114.5056970  11.7794920  55.4394120
 114.2241240  12.2828520  54.6754940 114.8876670  10.9816670  55.0736250
 113.3966070  29.0470580  40.2261800 114.1284890  28.7629860  39.6785690
 113.6559740  28.8083860  41.1161180 112.5580860  25.1635310  40.2308130
 111.9289740  25.6320410  40.7793960 112.6728690  24.3184530  40.6654320
 120.0130580  19.2140970  26.3809330 119.9324630  18.2995580  26.1101040
 119.5995000  19.7108040  25.6749040 118.1448620  20.9919990  28.2618600
 117.3690720  20.5120430  28.5517170 118.7961550  20.3125640  28.0874760
 112.1614450  21.3039800  29.1394360 111.3299330  21.0488510  29.5390870
 112.7695430  21.3750570  29.8752280 112.1415710  25.3379890  29.3352380
 112.4443750  24.4477630  29.1562600 112.8859300  25.8950110  29.1074630
 110.5706400  16.2641690  22.9236750 109.6823100  16.6057660  22.8216630
 110.8547590  16.0642010  22.0317580 108.5339410  18.8647340  28.8076450
 109.1055520  18.0969540  28.8080090 108.5340950  19.1636100  27.8983060
 118.3919360  27.6838190  26.6621720 117.7730800  28.1395690  26.0916160
 119.2471140  27.8389650  26.2611420 117.5857610  23.6677180  28.2688760
 117.5165890  22.7267120  28.1077890 118.3477470  23.7578590  28.8411330
 109.7764280  14.2731700  30.5945380 109.5967120  13.3757450  30.8748140
 109.3744360  14.8203570  31.2692330 118.6162780  16.4747560  28.4957690
 118.9927600  15.6019440  28.3831360 118.5182290  16.8106260  27.6048130
 112.7467790  14.8473190  23.9575130 112.8534540  15.7476920  24.2643890
 111.8360150  14.7991160  23.6669780 110.3950950  16.7692200  29.2027720
 111.0761060  17.0330570  29.8215120 110.0799000  15.9293070  29.5365730
 114.5875520  17.8159560  28.2900310 115.0953740  18.3140530  28.9305330
 115.1188760  17.0394760  28.1139670 112.8711620  12.4558120  32.5563730
 112.8730060  12.9730510  31.7509630 112.0415930  11.9788300  32.5333660
 119.2582710  22.5677430  24.0553630 118.6399980  23.0326880  23.4916350
 119.7705960  23.2604910  24.4723140 114.1214470  22.0953300  30.7337230
 113.7883850  22.7222220  31.3758300 114.2981150  22.6215180  29.9538900
 112.5526950  14.1668080  30.5634180 112.8943760  15.0110130  30.2688050
 111.6142760  14.3151820  30.6799520 113.3333570  24.0634100  32.5486410
 113.9507570  24.7385180  32.2670860 112.4726690  24.4722080  32.4573910
 108.6265910  23.2533960  21.4293260 108.2493890  23.7421060  20.6978160
 108.8838980  23.9259240  22.0599790 116.2354840  11.6550350  26.8878770
 116.5429820  11.0997240  26.1714270 115.3055540  11.7894810  26.7051760
 118.6235600  19.7199180  23.6238890 117.6964880  19.6536560  23.8527360
 118.7760420  20.6579310  23.5094130 118.6104680  15.9916180  20.6206050
 117.6708350  16.1530140  20.7058510 118.9287940  16.7101860  20.0742040
 114.2292240  20.2463920  26.4058620 113.8249240  19.5341170  25.9104520
 114.3155360  19.9017160  27.2946660 114.6973940  23.9331480  28.5697830
 114.4002230  23.3276950  27.8905610 115.6473760  23.9708790  28.4587190
 112.9420860  17.0207130  30.1857660 113.4935450  17.1302470  29.4110910
 113.4564370  17.3944730  30.9012890 113.7892370  23.6713170  35.2205630
 112.8920900  23.8953140  35.4679030 113.8145240  23.7948110  34.2717030
 112.6163590  20.5426490  33.7963000 112.4771360  21.4149290  34.1650400
 111.7344950  20.1999300  33.6510940 118.9392970  25.4602360  25.1028130
 119.3788880  26.2026690  24.6883520 118.8779860  25.7028930  26.0267090
 114.4143940  26.4848190  36.0048150 114.3859370  26.8891140  35.1376580
 114.2508910  25.5558550  35.8419750 110.9296870  19.1408900  23.9065270
 110.8094470  19.8670990  23.2946540 110.6197760  18.3711810  23.4293180
 108.5682240  22.3124040  29.7133910 108.6462660  22.4472810  28.7689630
 109.1823920  21.6039930  29.9062030 109.8129870  24.0124230  26.1240090
 109.4057950  24.1538820  25.2693690 110.7042880  23.7284390  25.9211300
 119.6308750  28.1616140  33.0307140 120.1453420  28.0724150  33.8329570
 118.7877830  28.5075840  33.3235050 114.0851530  28.2270010  24.2362760
 113.9094010  27.3105550  24.0230560 113.2307270  28.5857300  24.4760560
 108.6241760  23.3538210  32.2528370 108.7872800  22.8843570  31.4347740
 109.0894210  22.8461770  32.9177210 113.3960530  12.4843970  27.2888940
 112.9528680  13.2653510  26.9573460 113.9545520  12.8073860  27.9959880
 117.6830340  15.3512490  32.8924260 117.2209710  15.5595510  33.7044200
 117.2808450  14.5371840  32.5894930 116.5119350  12.1054670  22.1694770
 115.8873530  12.1014540  22.8948080 116.4249470  11.2385630  21.7730740
 115.4336430  13.0291300  29.1478540 115.7308760  13.9354130  29.0670560
 115.9821990  12.5410080  28.5338110 113.1874750  17.6077540  25.0170190
 112.9615670  17.3914710  25.9216810 112.4067280  18.0406000  24.6716160
 115.6273960  18.5063120  35.6830460 115.5317560  17.5657850  35.5330860
 116.4705940  18.7278190  35.2878530 119.0237380  16.2504450  25.6464120
 119.4166950  16.5676650  24.8332810 119.3854230  15.3716330  25.7608640
 110.7584500  14.9176790  33.8364240 110.3647890  15.7652000  34.0437020
 110.0702900  14.2803160  34.0272880 117.3329550  15.0011760  36.9060980
 116.6427870  14.8083960  37.5407070 118.0761850  15.2846400  37.4385280
 108.0601550  12.8405250  27.8694320 107.7714600  13.4108110  28.5819300
 108.8047310  12.3609700  28.2325550 108.2471780  16.7825370  19.0797040
 108.1646450  17.7256130  19.2212030 107.8954840  16.6400280  18.2009390
 119.6092520  18.8410200  29.7414900 118.8773640  19.3497010  30.0905000
 119.2116860  18.0240180  29.4403680 116.0469910  15.5164400  28.1467390
 116.0505970  15.0754350  27.2971930 116.9421030  15.8381730  28.2539210
 111.8972290  15.3990890  27.1061600 111.5572340  15.8766120  27.8628650
 111.1349610  14.9456010  26.7462700 116.1090060  16.5176480  21.1374150
 116.2302880  16.4762960  22.0859970 115.7238570  17.3800630  20.9820880
 120.0718430  14.2943880  29.1537840 120.0891170  14.7452530  29.9979690
 119.8234010  13.3949520  29.3671280 115.1211560  18.8277620  20.5357450
 114.5528460  18.3795870  19.9093360 115.8300560  19.1870400  20.0022600
 110.1980740  22.7289640  34.4124180 109.8135530  22.0883310  35.0107140
 110.5092930  23.4325760  34.9818910 116.3477880  19.5766180  29.8932800
 116.7148010  19.1024750  30.6394140 116.1582940  20.4507750  30.2341140
 109.2118370  14.3209870  26.0226270 108.9265290  13.9565540  26.8604890
 109.1497230  13.5890330  25.4089410 114.1377250  18.6174820  32.2117010
 113.8334320  19.4966800  32.4367370 115.0923710  18.6774610  32.2474450
 112.6659040  22.8235810  22.8083860 111.8921300  22.2833430  22.6482580
 113.3953670  22.3042420  22.4701620 118.8856960  13.2139130  22.7439640
 118.0721570  12.7152300  22.6684950 118.6918910  14.0537380  22.3275990
 118.8065820  21.8910230  34.4879250 118.7403130  20.9705900  34.2336840
 118.1770960  21.9885670  35.2023890 112.7096440  22.4916190  26.4462670
 113.2275110  21.6884450  26.3919560 112.2580460  22.4295330  27.2879500
 117.5965940  23.7582470  21.7189970 117.9381640  24.5024700  21.2233290
 116.7678650  24.0713590  22.0814800 110.1940980  19.4577560  33.3588370
 109.8355920  20.1231410  33.9461710 109.8995540  18.6261110  33.7300990
 113.3954100  19.9161800  36.2427920 113.0954240  20.0618980  35.3455740
 114.1665340  19.3567090  36.1501310 118.7382550  24.7130800  34.2383050
 118.7527090  23.7811760  34.0201960 118.0307650  24.7990560  34.8772820
 116.5656630  23.8396000  24.4905890 117.2527760  24.3865210  24.8713480
 115.7789050  24.3836730  24.5255500 108.7049030  19.4568820  19.9822970
 109.5743880  19.7393620  20.2658890 108.2139350  20.2704690  19.8671780
 115.8683840  20.8442030  24.1031250 116.3246620  21.6547280  24.3291440
 115.5172050  20.5265170  24.9349740 118.1716450  26.3548370  31.3323550
 118.8158670  26.5607750  32.0096970 118.5345890  25.5936770  30.8794400
 111.7695620  11.1879680  24.5753770 111.6410250  11.1797580  25.5238690
 110.9457640  11.5262770  24.2244780 119.4448530  24.3580720  30.0501000
 120.0870760  23.6573880  30.1633170 119.9697880  25.1379160  29.8697890
 109.0720280  28.6696200  20.5484600 109.4317920  29.2685540  19.8941870
 108.9312620  29.2156090  21.3219630 108.7689550  12.9470800  34.0360470
 108.0548070  13.1467720  34.6413080 109.1884590  12.1710370  34.4075270
 109.0562140  26.9351060  35.0227000 109.1653260  25.9945800  34.8822390
 108.4042700  27.2005810  34.3740730 117.0474730  25.2066950  36.4225120
 116.7271600  24.4876190  36.9670810 116.3733090  25.8822020  36.4961180
 115.0888900  26.0527400  21.3658270 115.0799000  26.7857090  20.7502780
 114.1687260  25.8058980  21.4585230 110.6895540  21.2742290  22.1105030
 110.0823490  22.0141190  22.1200330 111.1644890  21.3641650  21.2843230
 118.0748500  26.1155640  20.0283460 118.1760480  25.9119630  19.0985440
 117.1750240  25.8613920  20.2331240 115.5974390  16.6736000  24.0107360
 114.8890540  17.1422340  24.4520970 115.8818870  16.0158010  24.6452550
 117.2230320  18.0932700  32.0099890 117.7215570  18.5678520  32.6751740
 117.3653270  17.1696220  32.2169920 116.7166610  28.6341960  24.7231130
 116.9708110  28.5963350  23.8010500 115.7679090  28.5075290  24.7159380
 113.8009410  14.9821080  21.3858070 114.6499940  15.4191230  21.3198260
 113.4340680  15.2941340  22.2130130 112.7000830  21.2353440  19.8593600
 113.4664100  21.1234800  20.4219030 112.7775520  20.5391410  19.2070370
 111.3947590  18.6678510  20.5426490 111.4751180  17.7206020  20.6543890
 112.2867340  18.9985390  20.6487150 112.1962300  28.8173900  27.6461030
 112.9324780  28.2689360  27.9169600 112.5803220  29.6829910  27.5067020
 109.0807780  24.8847470  23.5202540 108.1547560  25.1268610  23.5107950
 109.5464210  25.7121730  23.3987290 111.2020580  28.0019970  36.8346610
 112.0033310  28.3232020  37.2482010 110.6872400  27.6415550  37.5566520
 115.3064610  27.9904210  19.4686600 116.0993220  28.2793040  19.0168390
 114.7868960  27.5596380  18.7899080 120.0385210  24.1099840  36.7822020
 119.4323370  24.1331440  36.0417770 119.7339320  23.3782880  37.3189270
 108.9218390  20.4893430  35.7782660 109.4257410  19.9100710  36.3498890
 108.1825810  20.7733660  36.3159030 115.8242010  23.2107620  19.3328950
 115.7192650  22.5959970  20.0590330 115.6566230  22.6873510  18.5491960
 115.9756330  21.8964420  35.3118180 115.2102000  22.4649420  35.2272850
 116.1572290  21.6040630  34.4186410 119.0644740  22.2727650  19.9370940
 118.5154840  22.7196950  20.5813680 119.6864000  21.7676900  20.4608610
 110.9541470  18.6323020  36.6732730 110.9946810  18.3336890  37.5817960
 111.8086970  19.0330630  36.5140250 114.7319860  21.2318570  21.8336240
 115.1536280  21.0658440  22.6767630 114.8570700  20.4218800  21.3391380
 112.8947280  17.2115120  34.6407220 112.3643740  16.7206070  34.0130560
 113.5635350  17.6399320  34.1065150 117.2447500  20.2556180  19.0813340
 117.7653160  19.5405200  18.7154490 117.8915900  20.8942050  19.3813850
 113.3819580  14.1777490  34.7204510 113.2876450  13.5598240  33.9955380
 112.8016970  14.9043780  34.4934420 116.1481020  12.7350730  31.7531900
 115.6998320  12.7574990  30.9077450 115.5146220  12.3369750  32.3502200
 116.5540570  21.6305060  32.3744340 116.9728680  22.4737790  32.2020580
 115.6349200  21.7677100  32.1451120 118.8904470  19.3621240  33.7582180
 119.0100680  18.7662380  34.4977020 119.7498470  19.3990930  33.3383480
 113.6278760  17.3051800  18.7794400 113.4267820  16.4419160  19.1407740
 113.4570810  17.2185160  17.8416000 114.4047990  27.9358070  33.4902070
 113.8669080  28.6604130  33.1710770 114.6581950  27.4588410  32.6999410
 115.6573240  15.9042590  35.0158000 116.2472930  15.5958440  35.7035820
 114.8393480  15.4322340  35.1717900 112.4261560  14.4052420  18.7672280
 112.7287460  14.4119850  17.8591430 113.1656150  14.0550280  19.2639940
 117.2610200  29.1709280  33.7488720 117.1868900  30.0744420  34.0561090
 116.3589040  28.8521180  33.7210790 115.6446490  13.3487040  19.7528480
 115.2968490  12.6711030  19.1730930 115.8459260  12.8876550  20.5671870
 117.8095530  28.3367790  21.3715080 118.7046320  28.6752760  21.3933840
 117.8413160  27.6147200  20.7439360 111.4491690  23.7094840  19.6002080
 111.8866560  24.2524510  20.2559660 111.9339420  22.8841790  19.6098420
 108.6637490  26.4983870  27.0522340 108.9940500  25.6304930  26.8200980
 109.0928490  26.7042390  27.8827300 113.2599410  24.8292880  24.7124310
 112.9594950  24.7057850  25.6128220 113.1536900  23.9701470  24.3040040
 109.1527700  27.3654460  29.7903970 108.7158690  27.5455260  30.6228120
 109.7205380  28.1229080  29.6485690 108.9852130  19.8774690  26.1492850
 108.3300970  19.6086330  25.5052550 109.8230080  19.7679170  25.6994830
 110.0228060  20.2627260  30.6896190 110.3901100  20.1754660  31.5692210
 109.4538880  19.4993810  30.5903050 109.5744060  17.1736350  34.5954610
 108.6800110  17.1403110  34.9348320 110.1141610  17.3723140  35.3605860
 108.1990210  17.0873620  22.0918180 107.2954290  17.3503820  21.9169840
 108.6830830  17.3584790  21.3118140 110.7417420  16.1439160  20.0012560
 111.4509120  15.7222380  19.5159840 110.0257360  16.2114390  19.3695910
 110.3891580  12.1978490  19.0415210 111.1119710  12.7387430  19.3596430
 110.6616100  11.9241910  18.1656750 110.0783770  11.4484680  28.9437830
 110.7259960  10.8982060  28.5032990 110.4985610  11.7027830  29.7653640
 109.8315770  11.6040350  31.6863150 109.4830590  12.0604170  32.4521330
 109.5003470  10.7097480  31.7685580 111.4380140  24.7759950  35.8516340
 111.3949770  24.4052860  36.7330800 111.5691150  25.7137520  35.9918160
 115.1386170  26.3319540  31.4526060 114.8977530  26.5994100  30.5656580
 116.0788810  26.5025270  31.5076920 117.3440590  12.7952230  35.2082570
 117.2829480  13.3874060  35.9577980 118.2840970  12.6878190  35.0632830
 110.5036410  11.1316550  34.9613920 111.0519400  10.9504600  34.1980030
 110.5691720  10.3410660  35.4970230 111.2768170  27.7222200  32.9714120
 110.6828490  27.5906900  33.7104160 111.2692010  26.8860340  32.5056220
 110.9080400  25.0880580  31.9222160 110.1814460  24.4685870  31.8548110
 110.9689550  25.4821190  31.0520240 114.5125500  27.3025580  28.7071570
 115.0290520  26.6912940  28.1819830 115.1622880  27.8054360  29.1982580
 117.2521000  28.1934070  29.5340550 117.5398810  27.9388370  28.6573560
 117.7644220  27.6411430  30.1246120 118.4698010  11.9324270  30.1137060
 117.6869800  12.4069770  30.3933820 118.1760940  11.0279100  30.0050240
 109.1910400  28.4054970  25.1318920 109.0232440  27.7725650  25.8300810
 108.3244910  28.6114370  24.7813110 109.8138420  12.2371750  22.6350780
 110.5717780  12.3500630  22.0614810 109.3515590  13.0740950  22.5894210
 116.3552230  14.3511020  25.6253090 115.5426740  13.9767910  25.2848970
 116.8593870  13.5956100  25.9274280 110.7973100  27.0988200  22.5769060
 110.2720720  27.4796230  21.8731020 110.7217680  27.7238970  23.2978770
 112.1863570  12.7635800  21.1752750 112.7156330  11.9765600  21.0460700
 112.8191890  13.4426990  21.4088280 114.3801410  12.5010940  24.2298140
 113.7504150  11.7998250  24.3968270 113.8406550  13.2615070  24.0131300
 117.3193360  29.1150170  36.9008750 118.2460670  28.8794440  36.9444710
 117.3043790  29.9422170  36.4194780 114.5056970  11.7794920  36.6650630
 114.2241240  12.2828520  35.9011450 114.8876670  10.9816670  36.2992760
 113.3966070  29.0470580  21.4518310 114.1284890  28.7629860  20.9042200
 113.6559740  28.8083860  22.3417690 112.5580860  25.1635310  21.4564640
 111.9289740  25.6320410  22.0050470 112.6728690  24.3184530  21.8910830
 120.0130580  19.2140970   7.6065840 119.9324630  18.2995580   7.3357550
 119.5995000  19.7108040   6.9005550 118.1448620  20.9919990   9.4875110
 117.3690720  20.5120430   9.7773680 118.7961550  20.3125640   9.3131270
 112.1614450  21.3039800  10.3650870 111.3299330  21.0488510  10.7647380
 112.7695430  21.3750570  11.1008790 112.1415710  25.3379890  10.5608890
 112.4443750  24.4477630  10.3819110 112.8859300  25.8950110  10.3331140
 110.5706400  16.2641690   4.1493260 109.6823100  16.6057660   4.0473140
 110.8547590  16.0642010   3.2574090 108.5339410  18.8647340  10.0332960
 109.1055520  18.0969540  10.0336600 108.5340950  19.1636100   9.1239570
 118.3919360  27.6838190   7.8878230 117.7730800  28.1395690   7.3172670
 119.2471140  27.8389650   7.4867930 117.5857610  23.6677180   9.4945270
 117.5165890  22.7267120   9.3334400 118.3477470  23.7578590  10.0667840
 109.7764280  14.2731700  11.8201890 109.5967120  13.3757450  12.1004650
 109.3744360  14.8203570  12.4948840 118.6162780  16.4747560   9.7214200
 118.9927600  15.6019440   9.6087870 118.5182290  16.8106260   8.8304640
 112.7467790  14.8473190   5.1831640 112.8534540  15.7476920   5.4900400
 111.8360150  14.7991160   4.8926290 110.3950950  16.7692200  10.4284230
 111.0761060  17.0330570  11.0471630 110.0799000  15.9293070  10.7622240
 114.5875520  17.8159560   9.5156820 115.0953740  18.3140530  10.1561840
 115.1188760  17.0394760   9.3396180 112.8711620  12.4558120  13.7820240
 112.8730060  12.9730510  12.9766140 112.0415930  11.9788300  13.7590170
 119.2582710  22.5677430   5.2810140 118.6399980  23.0326880   4.7172860
 119.7705960  23.2604910   5.6979650 114.1214470  22.0953300  11.9593740
 113.7883850  22.7222220  12.6014810 114.2981150  22.6215180  11.1795410
 112.5526950  14.1668080  11.7890690 112.8943760  15.0110130  11.4944560
 111.6142760  14.3151820  11.9056030 113.3333570  24.0634100  13.7742920
 113.9507570  24.7385180  13.4927370 112.4726690  24.4722080  13.6830420
 108.6265910  23.2533960   2.6549770 108.2493890  23.7421060   1.9234670
 108.8838980  23.9259240   3.2856300 116.2354840  11.6550350   8.1135280
 116.5429820  11.0997240   7.3970780 115.3055540  11.7894810   7.9308270
 118.6235600  19.7199180   4.8495400 117.6964880  19.6536560   5.0783870
 118.7760420  20.6579310   4.7350640 118.6104680  15.9916180   1.8462560
 117.6708350  16.1530140   1.9315020 118.9287940  16.7101860   1.2998550
 114.2292240  20.2463920   7.6315130 113.8249240  19.5341170   7.1361030
 114.3155360  19.9017160   8.5203170 114.6973940  23.9331480   9.7954340
 114.4002230  23.3276950   9.1162120 115.6473760  23.9708790   9.6843700
 112.9420860  17.0207130  11.4114170 113.4935450  17.1302470  10.6367420
 113.4564370  17.3944730  12.1269400 113.7892370  23.6713170  16.4462140
 112.8920900  23.8953140  16.6935540 113.8145240  23.7948110  15.4973540
 112.6163590  20.5426490  15.0219510 112.4771360  21.4149290  15.3906910
 111.7344950  20.1999300  14.8767450 118.9392970  25.4602360   6.3284640
 119.3788880  26.2026690   5.9140030 118.8779860  25.7028930   7.2523600
 114.4143940  26.4848190  17.2304660 114.3859370  26.8891140  16.3633090
 114.2508910  25.5558550  17.0676260 110.9296870  19.1408900   5.1321780
 110.8094470  19.8670990   4.5203050 110.6197760  18.3711810   4.6549690
 108.5682240  22.3124040  10.9390420 108.6462660  22.4472810   9.9946140
 109.1823920  21.6039930  11.1318540 109.8129870  24.0124230   7.3496600
 109.4057950  24.1538820   6.4950200 110.7042880  23.7284390   7.1467810
 119.6308750  28.1616140  14.2563650 120.1453420  28.0724150  15.0586080
 118.7877830  28.5075840  14.5491560 114.0851530  28.2270010   5.4619270
 113.9094010  27.3105550   5.2487070 113.2307270  28.5857300   5.7017070
 108.6241760  23.3538210  13.4784880 108.7872800  22.8843570  12.6604250
 109.0894210  22.8461770  14.1433720 113.3960530  12.4843970   8.5145450
 112.9528680  13.2653510   8.1829970 113.9545520  12.8073860   9.2216390
 117.6830340  15.3512490  14.1180770 117.2209710  15.5595510  14.9300710
 117.2808450  14.5371840  13.8151440 116.5119350  12.1054670   3.3951280
 115.8873530  12.1014540   4.1204590 116.4249470  11.2385630   2.9987250
 115.4336430  13.0291300  10.3735050 115.7308760  13.9354130  10.2927070
 115.9821990  12.5410080   9.7594620 113.1874750  17.6077540   6.2426700
 112.9615670  17.3914710   7.1473320 112.4067280  18.0406000   5.8972670
 115.6273960  18.5063120  16.9086970 115.5317560  17.5657850  16.7587370
 116.4705940  18.7278190  16.5135040 119.0237380  16.2504450   6.8720630
 119.4166950  16.5676650   6.0589320 119.3854230  15.3716330   6.9865150
 110.7584500  14.9176790  15.0620750 110.3647890  15.7652000  15.2693530
 110.0702900  14.2803160  15.2529390 117.3329550  15.0011760  18.1317490
 116.6427870  14.8083960  18.7663580 118.0761850  15.2846400  18.6641790
 108.0601550  12.8405250   9.0950830 107.7714600  13.4108110   9.8075810
 108.8047310  12.3609700   9.4582060 119.6092520  18.8410200  10.9671410
 118.8773640  19.3497010  11.3161510 119.2116860  18.0240180  10.6660190
 116.0469910  15.5164400   9.3723900 116.0505970  15.0754350   8.5228440
 116.9421030  15.8381730   9.4795720 111.8972290  15.3990890   8.3318110
 111.5572340  15.8766120   9.0885160 111.1349610  14.9456010   7.9719210
 116.1090060  16.5176480   2.3630660 116.2302880  16.4762960   3.3116480
 115.7238570  17.3800630   2.2077390 120.0718430  14.2943880  10.3794350
 120.0891170  14.7452530  11.2236200 119.8234010  13.3949520  10.5927790
 110.1980740  22.7289640  15.6380690 109.8135530  22.0883310  16.2363650
 110.5092930  23.4325760  16.2075420 116.3477880  19.5766180  11.1189310
 116.7148010  19.1024750  11.8650650 116.1582940  20.4507750  11.4597650
 109.2118370  14.3209870   7.2482780 108.9265290  13.9565540   8.0861400
 109.1497230  13.5890330   6.6345920 114.1377250  18.6174820  13.4373520
 113.8334320  19.4966800  13.6623880 115.0923710  18.6774610  13.4730960
 112.6659040  22.8235810   4.0340370 111.8921300  22.2833430   3.8739090
 113.3953670  22.3042420   3.6958130 118.8856960  13.2139130   3.9696150
 118.0721570  12.7152300   3.8941460 118.6918910  14.0537380   3.5532500
 118.8065820  21.8910230  15.7135760 118.7403130  20.9705900  15.4593350
 118.1770960  21.9885670  16.4280400 112.7096440  22.4916190   7.6719180
 113.2275110  21.6884450   7.6176070 112.2580460  22.4295330   8.5136010
 117.5965940  23.7582470   2.9446480 117.9381640  24.5024700   2.4489800
 116.7678650  24.0713590   3.3071310 110.1940980  19.4577560  14.5844880
 109.8355920  20.1231410  15.1718220 109.8995540  18.6261110  14.9557500
 113.3954100  19.9161800  17.4684430 113.0954240  20.0618980  16.5712250
 114.1665340  19.3567090  17.3757820 118.7382550  24.7130800  15.4639560
 118.7527090  23.7811760  15.2458470 118.0307650  24.7990560  16.1029330
 116.5656630  23.8396000   5.7162400 117.2527760  24.3865210   6.0969990
 115.7789050  24.3836730   5.7512010 115.8683840  20.8442030   5.3287760
 116.3246620  21.6547280   5.5547950 115.5172050  20.5265170   6.1606250
 118.1716450  26.3548370  12.5580060 118.8158670  26.5607750  13.2353480
 118.5345890  25.5936770  12.1050910 111.7695620  11.1879680   5.8010280
 111.6410250  11.1797580   6.7495200 110.9457640  11.5262770   5.4501290
 119.4448530  24.3580720  11.2757510 120.0870760  23.6573880  11.3889680
 119.9697880  25.1379160  11.0954400 108.7689550  12.9470800  15.2616980
 108.0548070  13.1467720  15.8669590 109.1884590  12.1710370  15.6331780
 109.0562140  26.9351060  16.2483510 109.1653260  25.9945800  16.1078900
 108.4042700  27.2005810  15.5997240 117.0474730  25.2066950  17.6481630
 116.7271600  24.4876190  18.1927320 116.3733090  25.8822020  17.7217690
 115.0888900  26.0527400   2.5914780 115.0799000  26.7857090   1.9759290
 114.1687260  25.8058980   2.6841740 110.6895540  21.2742290   3.3361540
 110.0823490  22.0141190   3.3456840 111.1644890  21.3641650   2.5099740
 115.5974390  16.6736000   5.2363870 114.8890540  17.1422340   5.6777480
 115.8818870  16.0158010   5.8709060 117.2230320  18.0932700  13.2356400
 117.7215570  18.5678520  13.9008250 117.3653270  17.1696220  13.4426430
 116.7166610  28.6341960   5.9487640 116.9708110  28.5963350   5.0267010
 115.7679090  28.5075290   5.9415890 113.8009410  14.9821080   2.6114580
 114.6499940  15.4191230   2.5454770 113.4340680  15.2941340   3.4386640
 111.3947590  18.6678510   1.7683000 111.4751180  17.7206020   1.8800400
 112.2867340  18.9985390   1.8743660 112.1962300  28.8173900   8.8717540
 112.9324780  28.2689360   9.1426110 112.5803220  29.6829910   8.7323530
 109.0807780  24.8847470   4.7459050 108.1547560  25.1268610   4.7364460
 109.5464210  25.7121730   4.6243800 111.2020580  28.0019970  18.0603120
 112.0033310  28.3232020  18.4738520 110.6872400  27.6415550  18.7823030
 120.0385210  24.1099840  18.0078530 119.4323370  24.1331440  17.2674280
 119.7339320  23.3782880  18.5445780 108.9218390  20.4893430  17.0039170
 109.4257410  19.9100710  17.5755400 108.1825810  20.7733660  17.5415540
 115.9756330  21.8964420  16.5374690 115.2102000  22.4649420  16.4529360
 116.1572290  21.6040630  15.6442920 110.9541470  18.6323020  17.8989240
 110.9946810  18.3336890  18.8074470 111.8086970  19.0330630  17.7396760
 114.7319860  21.2318570   3.0592750 115.1536280  21.0658440   3.9024140
 114.8570700  20.4218800   2.5647890 112.8947280  17.2115120  15.8663730
 112.3643740  16.7206070  15.2387070 113.5635350  17.6399320  15.3321660
 113.3819580  14.1777490  15.9461020 113.2876450  13.5598240  15.2211890
 112.8016970  14.9043780  15.7190930 116.1481020  12.7350730  12.9788410
 115.6998320  12.7574990  12.1333960 115.5146220  12.3369750  13.5758710
 116.5540570  21.6305060  13.6000850 116.9728680  22.4737790  13.4277090
 115.6349200  21.7677100  13.3707630 118.8904470  19.3621240  14.9838690
 119.0100680  18.7662380  15.7233530 119.7498470  19.3990930  14.5639990
 114.4047990  27.9358070  14.7158580 113.8669080  28.6604130  14.3967280
 114.6581950  27.4588410  13.9255920 115.6573240  15.9042590  16.2414510
 116.2472930  15.5958440  16.9292330 114.8393480  15.4322340  16.3974410
 117.2610200  29.1709280  14.9745230 117.1868900  30.0744420  15.2817600
 116.3589040  28.8521180  14.9467300 117.8095530  28.3367790   2.5971590
 118.7046320  28.6752760   2.6190350 117.8413160  27.6147200   1.9695870
 108.6637490  26.4983870   8.2778850 108.9940500  25.6304930   8.0457490
 109.0928490  26.7042390   9.1083810 113.2599410  24.8292880   5.9380820
 112.9594950  24.7057850   6.8384730 113.1536900  23.9701470   5.5296550
 109.1527700  27.3654460  11.0160480 108.7158690  27.5455260  11.8484630
 109.7205380  28.1229080  10.8742200 108.9852130  19.8774690   7.3749360
 108.3300970  19.6086330   6.7309060 109.8230080  19.7679170   6.9251340
 110.0228060  20.2627260  11.9152700 110.3901100  20.1754660  12.7948720
 109.4538880  19.4993810  11.8159560 109.5744060  17.1736350  15.8211120
 108.6800110  17.1403110  16.1604830 110.1141610  17.3723140  16.5862370
 108.1990210  17.0873620   3.3174690 107.2954290  17.3503820   3.1426350
 108.6830830  17.3584790   2.5374650 110.0783770  11.4484680  10.1694340
 110.7259960  10.8982060   9.7289500 110.4985610  11.7027830  10.9910150
 109.8315770  11.6040350  12.9119660 109.4830590  12.0604170  13.6777840
 109.5003470  10.7097480  12.9942090 111.4380140  24.7759950  17.0772850
 111.3949770  24.4052860  17.9587310 111.5691150  25.7137520  17.2174670
 115.1386170  26.3319540  12.6782570 114.8977530  26.5994100  11.7913090
 116.0788810  26.5025270  12.7333430 117.3440590  12.7952230  16.4339080
 117.2829480  13.3874060  17.1834490 118.2840970  12.6878190  16.2889340
 110.5036410  11.1316550  16.1870430 111.0519400  10.9504600  15.4236540
 110.5691720  10.3410660  16.7226740 111.2768170  27.7222200  14.1970630
 110.6828490  27.5906900  14.9360670 111.2692010  26.8860340  13.7312730
 110.9080400  25.0880580  13.1478670 110.1814460  24.4685870  13.0804620
 110.9689550  25.4821190  12.2776750 114.5125500  27.3025580   9.9328080
 115.0290520  26.6912940   9.4076340 115.1622880  27.8054360  10.4239090
 117.2521000  28.1934070  10.7597060 117.5398810  27.9388370   9.8830070
 117.7644220  27.6411430  11.3502630 118.4698010  11.9324270  11.3393570
 117.6869800  12.4069770  11.6190330 118.1760940  11.0279100  11.2306750
 109.1910400  28.4054970   6.3575430 109.0232440  27.7725650   7.0557320
 108.3244910  28.6114370   6.0069620 109.8138420  12.2371750   3.8607290
 110.5717780  12.3500630   3.2871320 109.3515590  13.0740950   3.8150720
 116.3552230  14.3511020   6.8509600 115.5426740  13.9767910   6.5105480
 116.8593870  13.5956100   7.1530790 110.7973100  27.0988200   3.8025570
 110.2720720  27.4796230   3.0987530 110.7217680  27.7238970   4.5235280
 112.1863570  12.7635800   2.4009260 112.7156330  11.9765600   2.2717210
 112.8191890  13.4426990   2.6344790 114.3801410  12.5010940   5.4554650
 113.7504150  11.7998250   5.6224780 113.8406550  13.2615070   5.2387810
 117.3193360  29.1150170  18.1265260 118.2460670  28.8794440  18.1701220
 117.3043790  29.9422170  17.6451290 114.5056970  11.7794920  17.8907140
 114.2241240  12.2828520  17.1267960 114.8876670  10.9816670  17.5249270
 113.3966070  29.0470580   2.6774820 114.1284890  28.7629860   2.1298710
 113.6559740  28.8083860   3.5674200 112.5580860  25.1635310   2.6821150
 111.9289740  25.6320410   3.2306980 112.6728690  24.3184530   3.1167340
 118.1448620   2.2176500 103.3592560 117.3690720   1.7376940 103.6491130
 118.7961550   1.5382150 103.1848720 112.1614450   2.5296310 104.2368320
 111.3299330   2.2745020 104.6364830 112.7695430   2.6007080 104.9726240
 112.1415710   6.5636400 104.4326340 112.4443750   5.6734140 104.2536560
 112.8859300   7.1206620 104.2048590 118.3919360   8.9094700 101.7595680
 117.7730800   9.3652200 101.1890120 119.2471140   9.0646160 101.3585380
 117.5857610   4.8933690 103.3662720 117.5165890   3.9523630 103.2051850
 118.3477470   4.9835100 103.9385290 119.2582710   3.7933940  99.1527590
 118.6399980   4.2583390  98.5890310 119.7705960   4.4861420  99.5697100
 114.1214470   3.3209810 105.8311190 113.7883850   3.9478730 106.4732260
 114.2981150   3.8471690 105.0512860 113.3333570   5.2890610 107.6460370
 113.9507570   5.9641690 107.3644820 112.4726690   5.6978590 107.5547870
 108.6265910   4.4790470  96.5267220 108.2493890   4.9677570  95.7952120
 108.8838980   5.1515750  97.1573750 114.6973940   5.1587990 103.6671790
 114.4002230   4.5533460 102.9879570 115.6473760   5.1965300 103.5561150
 113.7892370   4.8969680 110.3179590 112.8920900   5.1209650 110.5652990
 113.8145240   5.0204620 109.3690990 112.6163590   1.7683000 108.8936960
 112.4771360   2.6405800 109.2624360 111.7344950   1.4255810 108.7484900
 118.9392970   6.6858870 100.2002090 119.3788880   7.4283200  99.7857480
 118.8779860   6.9285440 101.1241050 108.5682240   3.5380550 104.8107870
 108.6462660   3.6729320 103.8663590 109.1823920   2.8296440 105.0035990
 109.8129870   5.2380740 101.2214050 109.4057950   5.3795330 100.3667650
 110.7042880   4.9540900 101.0185260 119.6308750   9.3872650 108.1281100
 120.1453420   9.2980660 108.9303530 118.7877830   9.7332350 108.4209010
 114.0851530   9.4526520  99.3336720 113.9094010   8.5362060  99.1204520
 113.2307270   9.8113810  99.5734520 108.6241760   4.5794720 107.3502330
 108.7872800   4.1100080 106.5321700 109.0894210   4.0718280 108.0151170
 110.1980740   3.9546150 109.5098140 109.8135530   3.3139820 110.1081100
 110.5092930   4.6582270 110.0792870 112.6659040   4.0492320  97.9057820
 111.8921300   3.5089940  97.7456540 113.3953670   3.5298930  97.5675580
 118.8065820   3.1166740 109.5853210 118.7403130   2.1962410 109.3310800
 118.1770960   3.2142180 110.2997850 112.7096440   3.7172700 101.5436630
 113.2275110   2.9140960 101.4893520 112.2580460   3.6551840 102.3853460
 117.5965940   4.9838980  96.8163930 117.9381640   5.7281210  96.3207250
 116.7678650   5.2970100  97.1788760 118.7382550   5.9387310 109.3357010
 118.7527090   5.0068270 109.1175920 118.0307650   6.0247070 109.9746780
 116.5656630   5.0652510  99.5879850 117.2527760   5.6121720  99.9687440
 115.7789050   5.6093240  99.6229460 115.8683840   2.0698540  99.2005210
 116.3246620   2.8803790  99.4265400 115.5172050   1.7521680 100.0323700
 118.1716450   7.5804880 106.4297510 118.8158670   7.7864260 107.1070930
 118.5345890   6.8193280 105.9768360 119.4448530   5.5837230 105.1474960
 120.0870760   4.8830390 105.2607130 119.9697880   6.3635670 104.9671850
 109.0720280   9.8952710  95.6458560 109.4317920  10.4942050  94.9915830
 108.9312620  10.4412600  96.4193590 109.0562140   8.1607570 110.1200960
 109.1653260   7.2202310 109.9796350 108.4042700   8.4262320 109.4714690
 115.0888900   7.2783910  96.4632230 115.0799000   8.0113600  95.8476740
 114.1687260   7.0315490  96.5559190 110.6895540   2.4998800  97.2078990
 110.0823490   3.2397700  97.2174290 111.1644890   2.5898160  96.3817190
 118.0748500   7.3412150  95.1257420 118.1760480   7.1376140  94.1959400
 117.1750240   7.0870430  95.3305200 116.7166610   9.8598470  99.8205090
 116.9708110   9.8219860  98.8984460 115.7679090   9.7331800  99.8133340
 112.7000830   2.4609950  94.9567560 113.4664100   2.3491310  95.5192990
 112.7775520   1.7647920  94.3044330 112.1962300  10.0430410 102.7434990
 112.9324780   9.4945870 103.0143560 112.5803220  10.9086420 102.6040980
 109.0807780   6.1103980  98.6176500 108.1547560   6.3525120  98.6081910
 109.5464210   6.9378240  98.4961250 115.3064610   9.2160720  94.5660560
 116.0993220   9.5049550  94.1142350 114.7868960   8.7852890  93.8873040
 115.8242010   4.4364130  94.4302910 115.7192650   3.8216480  95.1564290
 115.6566230   3.9130020  93.6465920 115.9756330   3.1220930 110.4092140
 115.2102000   3.6905930 110.3246810 116.1572290   2.8297140 109.5160370
 119.0644740   3.4984160  95.0344900 118.5154840   3.9453460  95.6787640
 119.6864000   2.9933410  95.5582570 114.7319860   2.4575080  96.9310200
 115.1536280   2.2914950  97.7741590 114.8570700   1.6475310  96.4365340
 116.5540570   2.8561570 107.4718300 116.9728680   3.6994300 107.2994540
 115.6349200   2.9933610 107.2425080 114.4047990   9.1614580 108.5876030
 113.8669080   9.8860640 108.2684730 114.6581950   8.6844920 107.7973370
 117.2610200  10.3965790 108.8462680 117.1868900  11.3000930 109.1535050
 116.3589040  10.0777690 108.8184750 117.8095530   9.5624300  96.4689040
 118.7046320   9.9009270  96.4907800 117.8413160   8.8403710  95.8413320
 111.4491690   4.9351350  94.6976040 111.8866560   5.4781020  95.3533620
 111.9339420   4.1098300  94.7072380 108.6637490   7.7240380 102.1496300
 108.9940500   6.8561440 101.9174940 109.0928490   7.9298900 102.9801260
 113.2599410   6.0549390  99.8098270 112.9594950   5.9314360 100.7102180
 113.1536900   5.1957980  99.4014000 109.1527700   8.5910970 104.8877930
 108.7158690   8.7711770 105.7202080 109.7205380   9.3485590 104.7459650
 115.1386170   7.5576050 106.5500020 114.8977530   7.8250610 105.6630540
 116.0788810   7.7281780 106.6050880 111.2768170   8.9478710 108.0688080
 110.6828490   8.8163410 108.8078120 111.2692010   8.1116850 107.6030180
 110.9080400   6.3137090 107.0196120 110.1814460   5.6942380 106.9522070
 110.9689550   6.7077700 106.1494200 114.5125500   8.5282090 103.8045530
 115.0290520   7.9169450 103.2793790 115.1622880   9.0310870 104.2956540
 117.2521000   9.4190580 104.6314510 117.5398810   9.1644880 103.7547520
 117.7644220   8.8667940 105.2220080 109.1910400   9.6311480 100.2292880
 109.0232440   8.9982160 100.9274770 108.3244910   9.8370880  99.8787070
 110.7973100   8.3244710  97.6743020 110.2720720   8.7052740  96.9704980
 110.7217680   8.9495480  98.3952730 113.3966070  10.2727090  96.5492270
 114.1284890   9.9886370  96.0016160 113.6559740  10.0340370  97.4391650
 112.5580860   6.3891820  96.5538600 111.9289740   6.8576920  97.1024430
 112.6728690   5.5441040  96.9884790 118.1448620   2.2176500  84.5849070
 117.3690720   1.7376940  84.8747640 118.7961550   1.5382150  84.4105230
 112.1614450   2.5296310  85.4624830 111.3299330   2.2745020  85.8621340
 112.7695430   2.6007080  86.1982750 112.1415710   6.5636400  85.6582850
 112.4443750   5.6734140  85.4793070 112.8859300   7.1206620  85.4305100
 118.3919360   8.9094700  82.9852190 117.7730800   9.3652200  82.4146630
 119.2471140   9.0646160  82.5841890 117.5857610   4.8933690  84.5919230
 117.5165890   3.9523630  84.4308360 118.3477470   4.9835100  85.1641800
 119.2582710   3.7933940  80.3784100 118.6399980   4.2583390  79.8146820
 119.7705960   4.4861420  80.7953610 114.1214470   3.3209810  87.0567700
 113.7883850   3.9478730  87.6988770 114.2981150   3.8471690  86.2769370
 113.3333570   5.2890610  88.8716880 113.9507570   5.9641690  88.5901330
 112.4726690   5.6978590  88.7804380 108.6265910   4.4790470  77.7523730
 108.2493890   4.9677570  77.0208630 108.8838980   5.1515750  78.3830260
 114.6973940   5.1587990  84.8928300 114.4002230   4.5533460  84.2136080
 115.6473760   5.1965300  84.7817660 113.7892370   4.8969680  91.5436100
 112.8920900   5.1209650  91.7909500 113.8145240   5.0204620  90.5947500
 112.6163590   1.7683000  90.1193470 112.4771360   2.6405800  90.4880870
 111.7344950   1.4255810  89.9741410 118.9392970   6.6858870  81.4258600
 119.3788880   7.4283200  81.0113990 118.8779860   6.9285440  82.3497560
 114.4143940   7.7104700  92.3278620 114.3859370   8.1147650  91.4607050
 114.2508910   6.7815060  92.1650220 108.5682240   3.5380550  86.0364380
 108.6462660   3.6729320  85.0920100 109.1823920   2.8296440  86.2292500
 109.8129870   5.2380740  82.4470560 109.4057950   5.3795330  81.5924160
 110.7042880   4.9540900  82.2441770 119.6308750   9.3872650  89.3537610
 120.1453420   9.2980660  90.1560040 118.7877830   9.7332350  89.6465520
 114.0851530   9.4526520  80.5593230 113.9094010   8.5362060  80.3461030
 113.2307270   9.8113810  80.7991030 108.6241760   4.5794720  88.5758840
 108.7872800   4.1100080  87.7578210 109.0894210   4.0718280  89.2407680
 110.1980740   3.9546150  90.7354650 109.8135530   3.3139820  91.3337610
 110.5092930   4.6582270  91.3049380 112.6659040   4.0492320  79.1314330
 111.8921300   3.5089940  78.9713050 113.3953670   3.5298930  78.7932090
 118.8065820   3.1166740  90.8109720 118.7403130   2.1962410  90.5567310
 118.1770960   3.2142180  91.5254360 112.7096440   3.7172700  82.7693140
 113.2275110   2.9140960  82.7150030 112.2580460   3.6551840  83.6109970
 117.5965940   4.9838980  78.0420440 117.9381640   5.7281210  77.5463760
 116.7678650   5.2970100  78.4045270 118.7382550   5.9387310  90.5613520
 118.7527090   5.0068270  90.3432430 118.0307650   6.0247070  91.2003290
 116.5656630   5.0652510  80.8136360 117.2527760   5.6121720  81.1943950
 115.7789050   5.6093240  80.8485970 115.8683840   2.0698540  80.4261720
 116.3246620   2.8803790  80.6521910 115.5172050   1.7521680  81.2580210
 118.1716450   7.5804880  87.6554020 118.8158670   7.7864260  88.3327440
 118.5345890   6.8193280  87.2024870 119.4448530   5.5837230  86.3731470
 120.0870760   4.8830390  86.4863640 119.9697880   6.3635670  86.1928360
 109.0720280   9.8952710  76.8715070 109.4317920  10.4942050  76.2172340
 108.9312620  10.4412600  77.6450100 109.0562140   8.1607570  91.3457470
 109.1653260   7.2202310  91.2052860 108.4042700   8.4262320  90.6971200
 117.0474730   6.4323460  92.7455590 116.7271600   5.7132700  93.2901280
 116.3733090   7.1078530  92.8191650 115.0888900   7.2783910  77.6888740
 115.0799000   8.0113600  77.0733250 114.1687260   7.0315490  77.7815700
 110.6895540   2.4998800  78.4335500 110.0823490   3.2397700  78.4430800
 111.1644890   2.5898160  77.6073700 118.0748500   7.3412150  76.3513930
 118.1760480   7.1376140  75.4215910 117.1750240   7.0870430  76.5561710
 116.7166610   9.8598470  81.0461600 116.9708110   9.8219860  80.1240970
 115.7679090   9.7331800  81.0389850 112.7000830   2.4609950  76.1824070
 113.4664100   2.3491310  76.7449500 112.7775520   1.7647920  75.5300840
 112.1962300  10.0430410  83.9691500 112.9324780   9.4945870  84.2400070
 112.5803220  10.9086420  83.8297490 109.0807780   6.1103980  79.8433010
 108.1547560   6.3525120  79.8338420 109.5464210   6.9378240  79.7217760
 111.2020580   9.2276480  93.1577080 112.0033310   9.5488530  93.5712480
 110.6872400   8.8672060  93.8796990 115.3064610   9.2160720  75.7917070
 116.0993220   9.5049550  75.3398860 114.7868960   8.7852890  75.1129550
 120.0385210   5.3356350  93.1052490 119.4323370   5.3587950  92.3648240
 119.7339320   4.6039390  93.6419740 115.8242010   4.4364130  75.6559420
 115.7192650   3.8216480  76.3820800 115.6566230   3.9130020  74.8722430
 115.9756330   3.1220930  91.6348650 115.2102000   3.6905930  91.5503320
 116.1572290   2.8297140  90.7416880 119.0644740   3.4984160  76.2601410
 118.5154840   3.9453460  76.9044150 119.6864000   2.9933410  76.7839080
 114.7319860   2.4575080  78.1566710 115.1536280   2.2914950  78.9998100
 114.8570700   1.6475310  77.6621850 116.5540570   2.8561570  88.6974810
 116.9728680   3.6994300  88.5251050 115.6349200   2.9933610  88.4681590
 114.4047990   9.1614580  89.8132540 113.8669080   9.8860640  89.4941240
 114.6581950   8.6844920  89.0229880 117.2610200  10.3965790  90.0719190
 117.1868900  11.3000930  90.3791560 116.3589040  10.0777690  90.0441260
 117.8095530   9.5624300  77.6945550 118.7046320   9.9009270  77.7164310
 117.8413160   8.8403710  77.0669830 111.4491690   4.9351350  75.9232550
 111.8866560   5.4781020  76.5790130 111.9339420   4.1098300  75.9328890
 108.6637490   7.7240380  83.3752810 108.9940500   6.8561440  83.1431450
 109.0928490   7.9298900  84.2057770 113.2599410   6.0549390  81.0354780
 112.9594950   5.9314360  81.9358690 113.1536900   5.1957980  80.6270510
 109.1527700   8.5910970  86.1134440 108.7158690   8.7711770  86.9458590
 109.7205380   9.3485590  85.9716160 111.4380140   6.0016460  92.1746810
 111.3949770   5.6309370  93.0561270 111.5691150   6.9394030  92.3148630
 115.1386170   7.5576050  87.7756530 114.8977530   7.8250610  86.8887050
 116.0788810   7.7281780  87.8307390 111.2768170   8.9478710  89.2944590
 110.6828490   8.8163410  90.0334630 111.2692010   8.1116850  88.8286690
 110.9080400   6.3137090  88.2452630 110.1814460   5.6942380  88.1778580
 110.9689550   6.7077700  87.3750710 114.5125500   8.5282090  85.0302040
 115.0290520   7.9169450  84.5050300 115.1622880   9.0310870  85.5213050
 117.2521000   9.4190580  85.8571020 117.5398810   9.1644880  84.9804030
 117.7644220   8.8667940  86.4476590 109.1910400   9.6311480  81.4549390
 109.0232440   8.9982160  82.1531280 108.3244910   9.8370880  81.1043580
 110.7973100   8.3244710  78.8999530 110.2720720   8.7052740  78.1961490
 110.7217680   8.9495480  79.6209240 117.3193360  10.3406680  93.2239220
 118.2460670  10.1050950  93.2675180 117.3043790  11.1678680  92.7425250
 113.3966070  10.2727090  77.7748780 114.1284890   9.9886370  77.2272670
 113.6559740  10.0340370  78.6648160 112.5580860   6.3891820  77.7795110
 111.9289740   6.8576920  78.3280940 112.6728690   5.5441040  78.2141300
 118.1448620   2.2176500  65.8105580 117.3690720   1.7376940  66.1004150
 118.7961550   1.5382150  65.6361740 112.1614450   2.5296310  66.6881340
 111.3299330   2.2745020  67.0877850 112.7695430   2.6007080  67.4239260
 112.1415710   6.5636400  66.8839360 112.4443750   5.6734140  66.7049580
 112.8859300   7.1206620  66.6561610 118.3919360   8.9094700  64.2108700
 117.7730800   9.3652200  63.6403140 119.2471140   9.0646160  63.8098400
 117.5857610   4.8933690  65.8175740 117.5165890   3.9523630  65.6564870
 118.3477470   4.9835100  66.3898310 119.2582710   3.7933940  61.6040610
 118.6399980   4.2583390  61.0403330 119.7705960   4.4861420  62.0210120
 114.1214470   3.3209810  68.2824210 113.7883850   3.9478730  68.9245280
 114.2981150   3.8471690  67.5025880 113.3333570   5.2890610  70.0973390
 113.9507570   5.9641690  69.8157840 112.4726690   5.6978590  70.0060890
 108.6265910   4.4790470  58.9780240 108.2493890   4.9677570  58.2465140
 108.8838980   5.1515750  59.6086770 114.6973940   5.1587990  66.1184810
 114.4002230   4.5533460  65.4392590 115.6473760   5.1965300  66.0074170
 113.7892370   4.8969680  72.7692610 112.8920900   5.1209650  73.0166010
 113.8145240   5.0204620  71.8204010 112.6163590   1.7683000  71.3449980
 112.4771360   2.6405800  71.7137380 111.7344950   1.4255810  71.1997920
 118.9392970   6.6858870  62.6515110 119.3788880   7.4283200  62.2370500
 118.8779860   6.9285440  63.5754070 114.4143940   7.7104700  73.5535130
 114.3859370   8.1147650  72.6863560 114.2508910   6.7815060  73.3906730
 108.5682240   3.5380550  67.2620890 108.6462660   3.6729320  66.3176610
 109.1823920   2.8296440  67.4549010 109.8129870   5.2380740  63.6727070
 109.4057950   5.3795330  62.8180670 110.7042880   4.9540900  63.4698280
 119.6308750   9.3872650  70.5794120 120.1453420   9.2980660  71.3816550
 118.7877830   9.7332350  70.8722030 114.0851530   9.4526520  61.7849740
 113.9094010   8.5362060  61.5717540 113.2307270   9.8113810  62.0247540
 108.6241760   4.5794720  69.8015350 108.7872800   4.1100080  68.9834720
 109.0894210   4.0718280  70.4664190 110.1980740   3.9546150  71.9611160
 109.8135530   3.3139820  72.5594120 110.5092930   4.6582270  72.5305890
 112.6659040   4.0492320  60.3570840 111.8921300   3.5089940  60.1969560
 113.3953670   3.5298930  60.0188600 118.8065820   3.1166740  72.0366230
 118.7403130   2.1962410  71.7823820 118.1770960   3.2142180  72.7510870
 112.7096440   3.7172700  63.9949650 113.2275110   2.9140960  63.9406540
 112.2580460   3.6551840  64.8366480 117.5965940   4.9838980  59.2676950
 117.9381640   5.7281210  58.7720270 116.7678650   5.2970100  59.6301780
 118.7382550   5.9387310  71.7870030 118.7527090   5.0068270  71.5688940
 118.0307650   6.0247070  72.4259800 116.5656630   5.0652510  62.0392870
 117.2527760   5.6121720  62.4200460 115.7789050   5.6093240  62.0742480
 115.8683840   2.0698540  61.6518230 116.3246620   2.8803790  61.8778420
 115.5172050   1.7521680  62.4836720 118.1716450   7.5804880  68.8810530
 118.8158670   7.7864260  69.5583950 118.5345890   6.8193280  68.4281380
 119.4448530   5.5837230  67.5987980 120.0870760   4.8830390  67.7120150
 119.9697880   6.3635670  67.4184870 109.0720280   9.8952710  58.0971580
 109.4317920  10.4942050  57.4428850 108.9312620  10.4412600  58.8706610
 109.0562140   8.1607570  72.5713980 109.1653260   7.2202310  72.4309370
 108.4042700   8.4262320  71.9227710 117.0474730   6.4323460  73.9712100
 116.7271600   5.7132700  74.5157790 116.3733090   7.1078530  74.0448160
 115.0888900   7.2783910  58.9145250 115.0799000   8.0113600  58.2989760
 114.1687260   7.0315490  59.0072210 110.6895540   2.4998800  59.6592010
 110.0823490   3.2397700  59.6687310 111.1644890   2.5898160  58.8330210
 118.0748500   7.3412150  57.5770440 118.1760480   7.1376140  56.6472420
 117.1750240   7.0870430  57.7818220 116.7166610   9.8598470  62.2718110
 116.9708110   9.8219860  61.3497480 115.7679090   9.7331800  62.2646360
 112.7000830   2.4609950  57.4080580 113.4664100   2.3491310  57.9706010
 112.7775520   1.7647920  56.7557350 112.1962300  10.0430410  65.1948010
 112.9324780   9.4945870  65.4656580 112.5803220  10.9086420  65.0554000
 109.0807780   6.1103980  61.0689520 108.1547560   6.3525120  61.0594930
 109.5464210   6.9378240  60.9474270 111.2020580   9.2276480  74.3833590
 112.0033310   9.5488530  74.7968990 110.6872400   8.8672060  75.1053500
 115.3064610   9.2160720  57.0173580 116.0993220   9.5049550  56.5655370
 114.7868960   8.7852890  56.3386060 120.0385210   5.3356350  74.3309000
 119.4323370   5.3587950  73.5904750 119.7339320   4.6039390  74.8676250
 115.8242010   4.4364130  56.8815930 115.7192650   3.8216480  57.6077310
 115.6566230   3.9130020  56.0978940 115.9756330   3.1220930  72.8605160
 115.2102000   3.6905930  72.7759830 116.1572290   2.8297140  71.9673390
 119.0644740   3.4984160  57.4857920 118.5154840   3.9453460  58.1300660
 119.6864000   2.9933410  58.0095590 114.7319860   2.4575080  59.3823220
 115.1536280   2.2914950  60.2254610 114.8570700   1.6475310  58.8878360
 116.5540570   2.8561570  69.9231320 116.9728680   3.6994300  69.7507560
 115.6349200   2.9933610  69.6938100 114.4047990   9.1614580  71.0389050
 113.8669080   9.8860640  70.7197750 114.6581950   8.6844920  70.2486390
 117.2610200  10.3965790  71.2975700 117.1868900  11.3000930  71.6048070
 116.3589040  10.0777690  71.2697770 117.8095530   9.5624300  58.9202060
 118.7046320   9.9009270  58.9420820 117.8413160   8.8403710  58.2926340
 111.4491690   4.9351350  57.1489060 111.8866560   5.4781020  57.8046640
 111.9339420   4.1098300  57.1585400 108.6637490   7.7240380  64.6009320
 108.9940500   6.8561440  64.3687960 109.0928490   7.9298900  65.4314280
 113.2599410   6.0549390  62.2611290 112.9594950   5.9314360  63.1615200
 113.1536900   5.1957980  61.8527020 109.1527700   8.5910970  67.3390950
 108.7158690   8.7711770  68.1715100 109.7205380   9.3485590  67.1972670
 111.4380140   6.0016460  73.4003320 111.3949770   5.6309370  74.2817780
 111.5691150   6.9394030  73.5405140 115.1386170   7.5576050  69.0013040
 114.8977530   7.8250610  68.1143560 116.0788810   7.7281780  69.0563900
 111.2768170   8.9478710  70.5201100 110.6828490   8.8163410  71.2591140
 111.2692010   8.1116850  70.0543200 110.9080400   6.3137090  69.4709140
 110.1814460   5.6942380  69.4035090 110.9689550   6.7077700  68.6007220
 114.5125500   8.5282090  66.2558550 115.0290520   7.9169450  65.7306810
 115.1622880   9.0310870  66.7469560 117.2521000   9.4190580  67.0827530
 117.5398810   9.1644880  66.2060540 117.7644220   8.8667940  67.6733100
 109.1910400   9.6311480  62.6805900 109.0232440   8.9982160  63.3787790
 108.3244910   9.8370880  62.3300090 110.7973100   8.3244710  60.1256040
 110.2720720   8.7052740  59.4218000 110.7217680   8.9495480  60.8465750
 117.3193360  10.3406680  74.4495730 118.2460670  10.1050950  74.4931690
 117.3043790  11.1678680  73.9681760 113.3966070  10.2727090  59.0005290
 114.1284890   9.9886370  58.4529180 113.6559740  10.0340370  59.8904670
 112.5580860   6.3891820  59.0051620 111.9289740   6.8576920  59.5537450
 112.6728690   5.5441040  59.4397810 118.1448620   2.2176500  47.0362090
 117.3690720   1.7376940  47.3260660 118.7961550   1.5382150  46.8618250
 112.1614450   2.5296310  47.9137850 111.3299330   2.2745020  48.3134360
 112.7695430   2.6007080  48.6495770 112.1415710   6.5636400  48.1095870
 112.4443750   5.6734140  47.9306090 112.8859300   7.1206620  47.8818120
 118.3919360   8.9094700  45.4365210 117.7730800   9.3652200  44.8659650
 119.2471140   9.0646160  45.0354910 117.5857610   4.8933690  47.0432250
 117.5165890   3.9523630  46.8821380 118.3477470   4.9835100  47.6154820
 119.2582710   3.7933940  42.8297120 118.6399980   4.2583390  42.2659840
 119.7705960   4.4861420  43.2466630 114.1214470   3.3209810  49.5080720
 113.7883850   3.9478730  50.1501790 114.2981150   3.8471690  48.7282390
 113.3333570   5.2890610  51.3229900 113.9507570   5.9641690  51.0414350
 112.4726690   5.6978590  51.2317400 108.6265910   4.4790470  40.2036750
 108.2493890   4.9677570  39.4721650 108.8838980   5.1515750  40.8343280
 114.6973940   5.1587990  47.3441320 114.4002230   4.5533460  46.6649100
 115.6473760   5.1965300  47.2330680 113.7892370   4.8969680  53.9949120
 112.8920900   5.1209650  54.2422520 113.8145240   5.0204620  53.0460520
 112.6163590   1.7683000  52.5706490 112.4771360   2.6405800  52.9393890
 111.7344950   1.4255810  52.4254430 118.9392970   6.6858870  43.8771620
 119.3788880   7.4283200  43.4627010 118.8779860   6.9285440  44.8010580
 114.4143940   7.7104700  54.7791640 114.3859370   8.1147650  53.9120070
 114.2508910   6.7815060  54.6163240 108.5682240   3.5380550  48.4877400
 108.6462660   3.6729320  47.5433120 109.1823920   2.8296440  48.6805520
 109.8129870   5.2380740  44.8983580 109.4057950   5.3795330  44.0437180
 110.7042880   4.9540900  44.6954790 119.6308750   9.3872650  51.8050630
 120.1453420   9.2980660  52.6073060 118.7877830   9.7332350  52.0978540
 114.0851530   9.4526520  43.0106250 113.9094010   8.5362060  42.7974050
 113.2307270   9.8113810  43.2504050 108.6241760   4.5794720  51.0271860
 108.7872800   4.1100080  50.2091230 109.0894210   4.0718280  51.6920700
 110.1980740   3.9546150  53.1867670 109.8135530   3.3139820  53.7850630
 110.5092930   4.6582270  53.7562400 112.6659040   4.0492320  41.5827350
 111.8921300   3.5089940  41.4226070 113.3953670   3.5298930  41.2445110
 118.8065820   3.1166740  53.2622740 118.7403130   2.1962410  53.0080330
 118.1770960   3.2142180  53.9767380 112.7096440   3.7172700  45.2206160
 113.2275110   2.9140960  45.1663050 112.2580460   3.6551840  46.0622990
 117.5965940   4.9838980  40.4933460 117.9381640   5.7281210  39.9976780
 116.7678650   5.2970100  40.8558290 118.7382550   5.9387310  53.0126540
 118.7527090   5.0068270  52.7945450 118.0307650   6.0247070  53.6516310
 116.5656630   5.0652510  43.2649380 117.2527760   5.6121720  43.6456970
 115.7789050   5.6093240  43.2998990 115.8683840   2.0698540  42.8774740
 116.3246620   2.8803790  43.1034930 115.5172050   1.7521680  43.7093230
 118.1716450   7.5804880  50.1067040 118.8158670   7.7864260  50.7840460
 118.5345890   6.8193280  49.6537890 119.4448530   5.5837230  48.8244490
 120.0870760   4.8830390  48.9376660 119.9697880   6.3635670  48.6441380
 109.0720280   9.8952710  39.3228090 109.4317920  10.4942050  38.6685360
 108.9312620  10.4412600  40.0963120 109.0562140   8.1607570  53.7970490
 109.1653260   7.2202310  53.6565880 108.4042700   8.4262320  53.1484220
 117.0474730   6.4323460  55.1968610 116.7271600   5.7132700  55.7414300
 116.3733090   7.1078530  55.2704670 115.0888900   7.2783910  40.1401760
 115.0799000   8.0113600  39.5246270 114.1687260   7.0315490  40.2328720
 110.6895540   2.4998800  40.8848520 110.0823490   3.2397700  40.8943820
 111.1644890   2.5898160  40.0586720 118.0748500   7.3412150  38.8026950
 118.1760480   7.1376140  37.8728930 117.1750240   7.0870430  39.0074730
 116.7166610   9.8598470  43.4974620 116.9708110   9.8219860  42.5753990
 115.7679090   9.7331800  43.4902870 112.7000830   2.4609950  38.6337090
 113.4664100   2.3491310  39.1962520 112.7775520   1.7647920  37.9813860
 112.1962300  10.0430410  46.4204520 112.9324780   9.4945870  46.6913090
 112.5803220  10.9086420  46.2810510 109.0807780   6.1103980  42.2946030
 108.1547560   6.3525120  42.2851440 109.5464210   6.9378240  42.1730780
 111.2020580   9.2276480  55.6090100 112.0033310   9.5488530  56.0225500
 110.6872400   8.8672060  56.3310010 115.3064610   9.2160720  38.2430090
 116.0993220   9.5049550  37.7911880 114.7868960   8.7852890  37.5642570
 120.0385210   5.3356350  55.5565510 119.4323370   5.3587950  54.8161260
 119.7339320   4.6039390  56.0932760 115.8242010   4.4364130  38.1072440
 115.7192650   3.8216480  38.8333820 115.6566230   3.9130020  37.3235450
 115.9756330   3.1220930  54.0861670 115.2102000   3.6905930  54.0016340
 116.1572290   2.8297140  53.1929900 119.0644740   3.4984160  38.7114430
 118.5154840   3.9453460  39.3557170 119.6864000   2.9933410  39.2352100
 114.7319860   2.4575080  40.6079730 115.1536280   2.2914950  41.4511120
 114.8570700   1.6475310  40.1134870 116.5540570   2.8561570  51.1487830
 116.9728680   3.6994300  50.9764070 115.6349200   2.9933610  50.9194610
 114.4047990   9.1614580  52.2645560 113.8669080   9.8860640  51.9454260
 114.6581950   8.6844920  51.4742900 117.2610200  10.3965790  52.5232210
 117.1868900  11.3000930  52.8304580 116.3589040  10.0777690  52.4954280
 117.8095530   9.5624300  40.1458570 118.7046320   9.9009270  40.1677330
 117.8413160   8.8403710  39.5182850 111.4491690   4.9351350  38.3745570
 111.8866560   5.4781020  39.0303150 111.9339420   4.1098300  38.3841910
 108.6637490   7.7240380  45.8265830 108.9940500   6.8561440  45.5944470
 109.0928490   7.9298900  46.6570790 113.2599410   6.0549390  43.4867800
 112.9594950   5.9314360  44.3871710 113.1536900   5.1957980  43.0783530
 109.1527700   8.5910970  48.5647460 108.7158690   8.7711770  49.3971610
 109.7205380   9.3485590  48.4229180 111.4380140   6.0016460  54.6259830
 111.3949770   5.6309370  55.5074290 111.5691150   6.9394030  54.7661650
 115.1386170   7.5576050  50.2269550 114.8977530   7.8250610  49.3400070
 116.0788810   7.7281780  50.2820410 111.2768170   8.9478710  51.7457610
 110.6828490   8.8163410  52.4847650 111.2692010   8.1116850  51.2799710
 110.9080400   6.3137090  50.6965650 110.1814460   5.6942380  50.6291600
 110.9689550   6.7077700  49.8263730 114.5125500   8.5282090  47.4815060
 115.0290520   7.9169450  46.9563320 115.1622880   9.0310870  47.9726070
 117.2521000   9.4190580  48.3084040 117.5398810   9.1644880  47.4317050
 117.7644220   8.8667940  48.8989610 109.1910400   9.6311480  43.9062410
 109.0232440   8.9982160  44.6044300 108.3244910   9.8370880  43.5556600
 110.7973100   8.3244710  41.3512550 110.2720720   8.7052740  40.6474510
 110.7217680   8.9495480  42.0722260 117.3193360  10.3406680  55.6752240
 118.2460670  10.1050950  55.7188200 117.3043790  11.1678680  55.1938270
 113.3966070  10.2727090  40.2261800 114.1284890   9.9886370  39.6785690
 113.6559740  10.0340370  41.1161180 112.5580860   6.3891820  40.2308130
 111.9289740   6.8576920  40.7793960 112.6728690   5.5441040  40.6654320
 118.1448620   2.2176500  28.2618600 117.3690720   1.7376940  28.5517170
 118.7961550   1.5382150  28.0874760 112.1614450   2.5296310  29.1394360
 111.3299330   2.2745020  29.5390870 112.7695430   2.6007080  29.8752280
 112.1415710   6.5636400  29.3352380 112.4443750   5.6734140  29.1562600
 112.8859300   7.1206620  29.1074630 118.3919360   8.9094700  26.6621720
 117.7730800   9.3652200  26.0916160 119.2471140   9.0646160  26.2611420
 117.5857610   4.8933690  28.2688760 117.5165890   3.9523630  28.1077890
 118.3477470   4.9835100  28.8411330 119.2582710   3.7933940  24.0553630
 118.6399980   4.2583390  23.4916350 119.7705960   4.4861420  24.4723140
 114.1214470   3.3209810  30.7337230 113.7883850   3.9478730  31.3758300
 114.2981150   3.8471690  29.9538900 113.3333570   5.2890610  32.5486410
 113.9507570   5.9641690  32.2670860 112.4726690   5.6978590  32.4573910
 108.6265910   4.4790470  21.4293260 108.2493890   4.9677570  20.6978160
 108.8838980   5.1515750  22.0599790 114.6973940   5.1587990  28.5697830
 114.4002230   4.5533460  27.8905610 115.6473760   5.1965300  28.4587190
 113.7892370   4.8969680  35.2205630 112.8920900   5.1209650  35.4679030
 113.8145240   5.0204620  34.2717030 112.6163590   1.7683000  33.7963000
 112.4771360   2.6405800  34.1650400 111.7344950   1.4255810  33.6510940
 118.9392970   6.6858870  25.1028130 119.3788880   7.4283200  24.6883520
 118.8779860   6.9285440  26.0267090 114.4143940   7.7104700  36.0048150
 114.3859370   8.1147650  35.1376580 114.2508910   6.7815060  35.8419750
 108.5682240   3.5380550  29.7133910 108.6462660   3.6729320  28.7689630
 109.1823920   2.8296440  29.9062030 109.8129870   5.2380740  26.1240090
 109.4057950   5.3795330  25.2693690 110.7042880   4.9540900  25.9211300
 119.6308750   9.3872650  33.0307140 120.1453420   9.2980660  33.8329570
 118.7877830   9.7332350  33.3235050 114.0851530   9.4526520  24.2362760
 113.9094010   8.5362060  24.0230560 113.2307270   9.8113810  24.4760560
 108.6241760   4.5794720  32.2528370 108.7872800   4.1100080  31.4347740
 109.0894210   4.0718280  32.9177210 110.1980740   3.9546150  34.4124180
 109.8135530   3.3139820  35.0107140 110.5092930   4.6582270  34.9818910
 112.6659040   4.0492320  22.8083860 111.8921300   3.5089940  22.6482580
 113.3953670   3.5298930  22.4701620 118.8065820   3.1166740  34.4879250
 118.7403130   2.1962410  34.2336840 118.1770960   3.2142180  35.2023890
 112.7096440   3.7172700  26.4462670 113.2275110   2.9140960  26.3919560
 112.2580460   3.6551840  27.2879500 117.5965940   4.9838980  21.7189970
 117.9381640   5.7281210  21.2233290 116.7678650   5.2970100  22.0814800
 118.7382550   5.9387310  34.2383050 118.7527090   5.0068270  34.0201960
 118.0307650   6.0247070  34.8772820 116.5656630   5.0652510  24.4905890
 117.2527760   5.6121720  24.8713480 115.7789050   5.6093240  24.5255500
 115.8683840   2.0698540  24.1031250 116.3246620   2.8803790  24.3291440
 115.5172050   1.7521680  24.9349740 118.1716450   7.5804880  31.3323550
 118.8158670   7.7864260  32.0096970 118.5345890   6.8193280  30.8794400
 119.4448530   5.5837230  30.0501000 120.0870760   4.8830390  30.1633170
 119.9697880   6.3635670  29.8697890 109.0720280   9.8952710  20.5484600
 109.4317920  10.4942050  19.8941870 108.9312620  10.4412600  21.3219630
 109.0562140   8.1607570  35.0227000 109.1653260   7.2202310  34.8822390
 108.4042700   8.4262320  34.3740730 117.0474730   6.4323460  36.4225120
 116.7271600   5.7132700  36.9670810 116.3733090   7.1078530  36.4961180
 115.0888900   7.2783910  21.3658270 115.0799000   8.0113600  20.7502780
 114.1687260   7.0315490  21.4585230 110.6895540   2.4998800  22.1105030
 110.0823490   3.2397700  22.1200330 111.1644890   2.5898160  21.2843230
 118.0748500   7.3412150  20.0283460 118.1760480   7.1376140  19.0985440
 117.1750240   7.0870430  20.2331240 116.7166610   9.8598470  24.7231130
 116.9708110   9.8219860  23.8010500 115.7679090   9.7331800  24.7159380
 112.7000830   2.4609950  19.8593600 113.4664100   2.3491310  20.4219030
 112.7775520   1.7647920  19.2070370 112.1962300  10.0430410  27.6461030
 112.9324780   9.4945870  27.9169600 112.5803220  10.9086420  27.5067020
 109.0807780   6.1103980  23.5202540 108.1547560   6.3525120  23.5107950
 109.5464210   6.9378240  23.3987290 111.2020580   9.2276480  36.8346610
 112.0033310   9.5488530  37.2482010 110.6872400   8.8672060  37.5566520
 115.3064610   9.2160720  19.4686600 116.0993220   9.5049550  19.0168390
 114.7868960   8.7852890  18.7899080 120.0385210   5.3356350  36.7822020
 119.4323370   5.3587950  36.0417770 119.7339320   4.6039390  37.3189270
 115.8242010   4.4364130  19.3328950 115.7192650   3.8216480  20.0590330
 115.6566230   3.9130020  18.5491960 115.9756330   3.1220930  35.3118180
 115.2102000   3.6905930  35.2272850 116.1572290   2.8297140  34.4186410
 119.0644740   3.4984160  19.9370940 118.5154840   3.9453460  20.5813680
 119.6864000   2.9933410  20.4608610 114.7319860   2.4575080  21.8336240
 115.1536280   2.2914950  22.6767630 114.8570700   1.6475310  21.3391380
 116.5540570   2.8561570  32.3744340 116.9728680   3.6994300  32.2020580
 115.6349200   2.9933610  32.1451120 114.4047990   9.1614580  33.4902070
 113.8669080   9.8860640  33.1710770 114.6581950   8.6844920  32.6999410
 117.2610200  10.3965790  33.7488720 117.1868900  11.3000930  34.0561090
 116.3589040  10.0777690  33.7210790 117.8095530   9.5624300  21.3715080
 118.7046320   9.9009270  21.3933840 117.8413160   8.8403710  20.7439360
 111.4491690   4.9351350  19.6002080 111.8866560   5.4781020  20.2559660
 111.9339420   4.1098300  19.6098420 108.6637490   7.7240380  27.0522340
 108.9940500   6.8561440  26.8200980 109.0928490   7.9298900  27.8827300
 113.2599410   6.0549390  24.7124310 112.9594950   5.9314360  25.6128220
 113.1536900   5.1957980  24.3040040 109.1527700   8.5910970  29.7903970
 108.7158690   8.7711770  30.6228120 109.7205380   9.3485590  29.6485690
 111.4380140   6.0016460  35.8516340 111.3949770   5.6309370  36.7330800
 111.5691150   6.9394030  35.9918160 115.1386170   7.5576050  31.4526060
 114.8977530   7.8250610  30.5656580 116.0788810   7.7281780  31.5076920
 111.2768170   8.9478710  32.9714120 110.6828490   8.8163410  33.7104160
 111.2692010   8.1116850  32.5056220 110.9080400   6.3137090  31.9222160
 110.1814460   5.6942380  31.8548110 110.9689550   6.7077700  31.0520240
 114.5125500   8.5282090  28.7071570 115.0290520   7.9169450  28.1819830
 115.1622880   9.0310870  29.1982580 117.2521000   9.4190580  29.5340550
 117.5398810   9.1644880  28.6573560 117.7644220   8.8667940  30.1246120
 109.1910400   9.6311480  25.1318920 109.0232440   8.9982160  25.8300810
 108.3244910   9.8370880  24.7813110 110.7973100   8.3244710  22.5769060
 110.2720720   8.7052740  21.8731020 110.7217680   8.9495480  23.2978770
 117.3193360  10.3406680  36.9008750 118.2460670  10.1050950  36.9444710
 117.3043790  11.1678680  36.4194780 113.3966070  10.2727090  21.4518310
 114.1284890   9.9886370  20.9042200 113.6559740  10.0340370  22.3417690
 112.5580860   6.3891820  21.4564640 111.9289740   6.8576920  22.0050470
 112.6728690   5.5441040  21.8910830 118.1448620   2.2176500   9.4875110
 117.3690720   1.7376940   9.7773680 118.7961550   1.5382150   9.3131270
 112.1614450   2.5296310  10.3650870 111.3299330   2.2745020  10.7647380
 112.7695430   2.6007080  11.1008790 112.1415710   6.5636400  10.5608890
 112.4443750   5.6734140  10.3819110 112.8859300   7.1206620  10.3331140
 118.3919360   8.9094700   7.8878230 117.7730800   9.3652200   7.3172670
 119.2471140   9.0646160   7.4867930 117.5857610   4.8933690   9.4945270
 117.5165890   3.9523630   9.3334400 118.3477470   4.9835100  10.0667840
 119.2582710   3.7933940   5.2810140 118.6399980   4.2583390   4.7172860
 119.7705960   4.4861420   5.6979650 114.1214470   3.3209810  11.9593740
 113.7883850   3.9478730  12.6014810 114.2981150   3.8471690  11.1795410
 113.3333570   5.2890610  13.7742920 113.9507570   5.9641690  13.4927370
 112.4726690   5.6978590  13.6830420 108.6265910   4.4790470   2.6549770
 108.2493890   4.9677570   1.9234670 108.8838980   5.1515750   3.2856300
 114.6973940   5.1587990   9.7954340 114.4002230   4.5533460   9.1162120
 115.6473760   5.1965300   9.6843700 113.7892370   4.8969680  16.4462140
 112.8920900   5.1209650  16.6935540 113.8145240   5.0204620  15.4973540
 112.6163590   1.7683000  15.0219510 112.4771360   2.6405800  15.3906910
 111.7344950   1.4255810  14.8767450 118.9392970   6.6858870   6.3284640
 119.3788880   7.4283200   5.9140030 118.8779860   6.9285440   7.2523600
 114.4143940   7.7104700  17.2304660 114.3859370   8.1147650  16.3633090
 114.2508910   6.7815060  17.0676260 108.5682240   3.5380550  10.9390420
 108.6462660   3.6729320   9.9946140 109.1823920   2.8296440  11.1318540
 109.8129870   5.2380740   7.3496600 109.4057950   5.3795330   6.4950200
 110.7042880   4.9540900   7.1467810 119.6308750   9.3872650  14.2563650
 120.1453420   9.2980660  15.0586080 118.7877830   9.7332350  14.5491560
 114.0851530   9.4526520   5.4619270 113.9094010   8.5362060   5.2487070
 113.2307270   9.8113810   5.7017070 108.6241760   4.5794720  13.4784880
 108.7872800   4.1100080  12.6604250 109.0894210   4.0718280  14.1433720
 110.1980740   3.9546150  15.6380690 109.8135530   3.3139820  16.2363650
 110.5092930   4.6582270  16.2075420 112.6659040   4.0492320   4.0340370
 111.8921300   3.5089940   3.8739090 113.3953670   3.5298930   3.6958130
 118.8065820   3.1166740  15.7135760 118.7403130   2.1962410  15.4593350
 118.1770960   3.2142180  16.4280400 112.7096440   3.7172700   7.6719180
 113.2275110   2.9140960   7.6176070 112.2580460   3.6551840   8.5136010
 117.5965940   4.9838980   2.9446480 117.9381640   5.7281210   2.4489800
 116.7678650   5.2970100   3.3071310 118.7382550   5.9387310  15.4639560
 118.7527090   5.0068270  15.2458470 118.0307650   6.0247070  16.1029330
 116.5656630   5.0652510   5.7162400 117.2527760   5.6121720   6.0969990
 115.7789050   5.6093240   5.7512010 115.8683840   2.0698540   5.3287760
 116.3246620   2.8803790   5.5547950 115.5172050   1.7521680   6.1606250
 118.1716450   7.5804880  12.5580060 118.8158670   7.7864260  13.2353480
 118.5345890   6.8193280  12.1050910 119.4448530   5.5837230  11.2757510
 120.0870760   4.8830390  11.3889680 119.9697880   6.3635670  11.0954400
 109.0562140   8.1607570  16.2483510 109.1653260   7.2202310  16.1078900
 108.4042700   8.4262320  15.5997240 117.0474730   6.4323460  17.6481630
 116.7271600   5.7132700  18.1927320 116.3733090   7.1078530  17.7217690
 115.0888900   7.2783910   2.5914780 115.0799000   8.0113600   1.9759290
 114.1687260   7.0315490   2.6841740 110.6895540   2.4998800   3.3361540
 110.0823490   3.2397700   3.3456840 111.1644890   2.5898160   2.5099740
 116.7166610   9.8598470   5.9487640 116.9708110   9.8219860   5.0267010
 115.7679090   9.7331800   5.9415890 112.1962300  10.0430410   8.8717540
 112.9324780   9.4945870   9.1426110 112.5803220  10.9086420   8.7323530
 109.0807780   6.1103980   4.7459050 108.1547560   6.3525120   4.7364460
 109.5464210   6.9378240   4.6243800 111.2020580   9.2276480  18.0603120
 112.0033310   9.5488530  18.4738520 110.6872400   8.8672060  18.7823030
 120.0385210   5.3356350  18.0078530 119.4323370   5.3587950  17.2674280
 119.7339320   4.6039390  18.5445780 115.9756330   3.1220930  16.5374690
 115.2102000   3.6905930  16.4529360 116.1572290   2.8297140  15.6442920
 114.7319860   2.4575080   3.0592750 115.1536280   2.2914950   3.9024140
 114.8570700   1.6475310   2.5647890 116.5540570   2.8561570  13.6000850
 116.9728680   3.6994300  13.4277090 115.6349200   2.9933610  13.3707630
 114.4047990   9.1614580  14.7158580 113.8669080   9.8860640  14.3967280
 114.6581950   8.6844920  13.9255920 117.2610200  10.3965790  14.9745230
 117.1868900  11.3000930  15.2817600 116.3589040  10.0777690  14.9467300
 117.8095530   9.5624300   2.5971590 118.7046320   9.9009270   2.6190350
 117.8413160   8.8403710   1.9695870 108.6637490   7.7240380   8.2778850
 108.9940500   6.8561440   8.0457490 109.0928490   7.9298900   9.1083810
 113.2599410   6.0549390   5.9380820 112.9594950   5.9314360   6.8384730
 113.1536900   5.1957980   5.5296550 109.1527700   8.5910970  11.0160480
 108.7158690   8.7711770  11.8484630 109.7205380   9.3485590  10.8742200
 111.4380140   6.0016460  17.0772850 111.3949770   5.6309370  17.9587310
 111.5691150   6.9394030  17.2174670 115.1386170   7.5576050  12.6782570
 114.8977530   7.8250610  11.7913090 116.0788810   7.7281780  12.7333430
 111.2768170   8.9478710  14.1970630 110.6828490   8.8163410  14.9360670
 111.2692010   8.1116850  13.7312730 110.9080400   6.3137090  13.1478670
 110.1814460   5.6942380  13.0804620 110.9689550   6.7077700  12.2776750
 114.5125500   8.5282090   9.9328080 115.0290520   7.9169450   9.4076340
 115.1622880   9.0310870  10.4239090 117.2521000   9.4190580  10.7597060
 117.5398810   9.1644880   9.8830070 117.7644220   8.8667940  11.3502630
 109.1910400   9.6311480   6.3575430 109.0232440   8.9982160   7.0557320
 108.3244910   9.8370880   6.0069620 110.7973100   8.3244710   3.8025570
 110.2720720   8.7052740   3.0987530 110.7217680   8.9495480   4.5235280
 117.3193360  10.3406680  18.1265260 118.2460670  10.1050950  18.1701220
 117.3043790  11.1678680  17.6451290 113.3966070  10.2727090   2.6774820
 114.1284890   9.9886370   2.1298710 113.6559740  10.0340370   3.5674200
 112.5580860   6.3891820   2.6821150 111.9289740   6.8576920   3.2306980
 112.6728690   5.5441040   3.1167340 101.2387090 113.0858420 101.4783290
 101.1581140 112.1713030 101.2075000 100.8251510 113.5825490 100.7723000
  91.7962910 110.1359140  98.0210710  90.9079610 110.4775110  97.9190590
  92.0804100 109.9359460  97.1291540  89.7595920 112.7364790 103.9050410
  90.3312030 111.9686990 103.9054050  89.7597460 113.0353550 102.9957020
  91.0020790 108.1449150 105.6919340  90.8223630 107.2474900 105.9722100
  90.6000870 108.6921020 106.3666290  99.8419290 110.3465010 103.5931650
 100.2184110 109.4736890 103.4805320  99.7438800 110.6823710 102.7022090
  93.9724300 108.7190640  99.0549090  94.0791050 109.6194370  99.3617850
  93.0616660 108.6708610  98.7643740 103.6243410 107.8415450 100.5259990
 104.4453030 107.3512020 100.5685470 103.6577490 108.4313110 101.2791830
  91.6207460 110.6409650 104.3001680  92.3017570 110.9048020 104.9189080
  91.3055510 109.8010520 104.6339690  95.8132030 111.6877010 103.3874270
  96.3210250 112.1857980 104.0279290  96.3445270 110.9112210 103.2113630
 107.9142960 109.8582200 107.0903620 107.2095130 110.2463910 106.5718730
 108.1800880 110.5532490 107.6924550  94.0968130 106.3275570 107.6537690
  94.0986570 106.8447960 106.8483590  93.2672440 105.8505750 107.6307620
 103.8604890 109.7815830 103.2987530 103.1560460 110.0700720 103.8790640
 104.2217050 110.5915940 102.9387090  93.7783460 108.0385530 105.6608140
  94.1200270 108.8827580 105.3662010  92.8399270 108.1869270 105.7773480
 106.9291810 109.2270620 103.6896740 105.9816720 109.2609600 103.8212170
 107.2541800 110.0409570 104.0746100  97.4611350 105.5267800 101.9852730
  97.7686330 104.9714690 101.2688230  96.5312050 105.6612260 101.8025720
  99.8361190 109.8633630  95.7180010  98.8964860 110.0247590  95.8032470
 100.1544450 110.5819310  95.1716000 103.3215960 111.3321470 106.6413910
 102.9087140 112.1575180 106.8953900 102.5891910 110.7466510 106.4490270
  94.1677370 110.8924580 105.2831620  94.7191960 111.0019920 104.5084870
  94.6820880 111.2662180 105.9986850 105.6371240 105.6466550  94.5461890
 105.3243900 105.7393380  95.4460960 106.3983710 106.2247580  94.4959320
  92.1553380 113.0126350  99.0039230  92.0350980 113.7388440  98.3920500
  91.8454270 112.2429260  98.5267140 106.8472530 110.3838050 110.5236030
 106.2316800 110.8917720 109.9951490 106.5268950 109.4836380 110.4661970
  94.6217040 106.3561420 102.3862900  94.1785190 107.1370960 102.0547420
  95.1802030 106.6791310 103.0933840  98.9086850 109.2229940 107.9898220
  98.4466220 109.4312960 108.8018160  98.5064960 108.4089290 107.6868890
 103.9091360 110.4438890 109.1194880 103.0584950 110.1444640 109.4403950
 103.7493150 110.6880900 108.2078700  97.7375860 105.9772120  97.2668730
  97.1130040 105.9731990  97.9922040  97.6505980 105.1103080  96.8704700
  96.6592940 106.9008750 104.2452500  96.9565270 107.8071580 104.1644520
  97.2078500 106.4127530 103.6312070  94.4131260 111.4794990 100.1144150
  94.1872180 111.2632160 101.0190770  93.6323790 111.9123450  99.7690120
 101.6429020 111.4858360  98.7134800 101.0437910 112.2094160  98.5298420
 102.1908630 111.4235140  97.9311250  96.8530470 112.3780570 110.7804420
  96.7574070 111.4375300 110.6304820  97.6962450 112.5995640 110.3852490
 100.2493890 110.1221900 100.7438080 100.6423460 110.4394100  99.9306770
 100.6110740 109.2433780 100.8582600  91.9841010 108.7894240 108.9338200
  91.5904400 109.6369450 109.1410980  91.2959410 108.1520610 109.1246840
  89.2858060 106.7122700 102.9668280  88.9971110 107.2825560 103.6793260
  90.0303820 106.2327150 103.3299510  89.4728290 110.6542820  94.1771000
  89.3902960 111.5973580  94.3185990  89.1211350 110.5117730  93.2983350
 100.8349030 112.7127650 104.8388860 100.1030150 113.2214460 105.1878960
 100.4373370 111.8957630 104.5377640  97.2726420 109.3881850 103.2441350
  97.2762480 108.9471800 102.3945890  98.1677540 109.7099180 103.3513170
  93.1228800 109.2708340 102.2035560  92.7828850 109.7483570 102.9602610
  92.3606120 108.8173460 101.8436660  97.3346570 110.3893930  96.2348110
  97.4559390 110.3480410  97.1833930  96.9495080 111.2518080  96.0794840
 101.2974940 108.1661330 104.2511800 101.3147680 108.6169980 105.0953650
 101.0490520 107.2666970 104.4645240  96.3468070 112.6995070  95.6331410
  95.7784970 112.2513320  95.0067320  97.0557070 113.0587850  95.0996560
 104.7245690 105.5793510 110.0898180 105.0491460 104.8483170 110.6156160
 104.7602200 105.2607150 109.1879170  90.4374880 108.1927320 101.1200230
  90.1521800 107.8282990 101.9578850  90.3753740 107.4607780 100.5063370
  95.3633760 112.4892270 107.3090970  95.0590830 113.3684250 107.5341330
  96.3180220 112.5492060 107.3448410 100.1113470 107.0856580  97.8413600
  99.2978080 106.5869750  97.7658910  99.9175420 107.9254830  97.4249950
 102.8261860 111.4576230  96.1375760 103.7141480 111.7693460  95.9627100
 102.7966950 110.5848480  95.7456340 105.0976130 112.7688070  95.6055620
 105.0139850 113.2002290  94.7552060 105.8170320 113.2286420  96.0382440
  92.9952130 105.0597130  99.6727730  92.8666760 105.0515030 100.6212650
  92.1714150 105.3980220  99.3218740  89.9946060 106.8188250 109.1334430
  89.2804580 107.0185170 109.7387040  90.4141100 106.0427820 109.5049230
 101.4884840 109.3110560 106.8835880 101.8565660 108.4905770 107.2115450
 100.6283040 109.3712450 107.2991530 104.8546870 108.2667500  97.6923440
 104.2260030 108.3713170  96.9781670 104.3598790 108.4864280  98.4817320
  96.8230900 110.5453450  99.1081320  96.1147050 111.0139790  99.5494930
  97.1075380 109.8875460  99.7426510  98.4486830 111.9650150 107.1073850
  98.9472080 112.4395970 107.7725700  98.5909780 111.0413670 107.3143880
 100.8546330 107.2704110 100.5477110 100.7314110 107.2890240  99.5986620
 101.8030890 107.3183050 100.6675510  95.0265920 108.8538530  96.4832030
  95.8756450 109.2908680  96.4172220  94.6597190 109.1658790  97.3104090
 105.6553690 108.1818110 107.9502240 105.1527290 108.9223510 108.2896050
 106.4710350 108.5702110 107.6339030 103.9475700 113.4251290 101.3963600
 103.0065840 113.4401520 101.5711290 104.2619770 112.6387250 101.8423900
  92.6204100 112.5395960  95.6400450  92.7007690 111.5923470  95.7517850
  93.5123850 112.8702840  95.7461110  94.1203790 111.0832570 109.7381180
  93.5900250 110.5923520 109.1104520  94.7891860 111.5116770 109.2039110
  94.6076090 108.0494940 109.8178470  94.5132960 107.4315690 109.0929340
  94.0273480 108.7761230 109.5908380  97.3737530 106.6068180 106.8505860
  96.9254830 106.6292440 106.0051410  96.7402730 106.2087200 107.4476160
 100.1160980 113.2338690 108.8556140 100.2357190 112.6379830 109.5950980
 100.9754980 113.2708380 108.4357440  94.8535270 111.1769250  93.8768360
  94.6524330 110.3136610  94.2381700  94.6827320 111.0902610  92.9389960
  96.8829750 109.7760040 110.1131960  97.4729440 109.4675890 110.8009780
  96.0649990 109.3039790 110.2691860 101.7023180 109.3925850 110.3464980
 101.0138700 108.7307390 110.2814970 102.4229200 108.9464120 110.7913440
 102.3323580 105.9877480  96.4055240 102.6125870 105.1445380  96.7614660
 101.5589310 106.2200590  96.9193990  93.6518070 108.2769870  93.8646240
  93.9543970 108.2837300  92.9565390  94.3912660 107.9267730  94.3613900
  96.8703000 107.2204490  94.8502440  96.5225000 106.5428480  94.2704890
  97.0715770 106.7594000  95.6645830  90.2108640 113.7492140 101.2466810
  89.5557480 113.4803780 100.6026510  91.0486590 113.6396620 100.7968790
 103.1599080 108.5433430  95.4685300 103.5783960 108.3564410  94.6281960
 102.8535140 107.6912480  95.7788230 106.6588810 113.4557570  99.1661100
 106.2832410 112.6885500  98.7342390 105.9291930 113.8380270  99.6536030
 106.0488430 112.6029090 108.8000620 105.8174520 112.3741840 107.8998570
 106.3092980 113.5228640 108.7545510  90.8000570 111.0453800 109.6928570
  89.9056620 111.0120560 110.0322280  91.3398120 111.2440590 110.4579820
  89.4246720 110.9591070  97.1892140  88.5210800 111.2221270  97.0143800
  89.9087340 111.2302240  96.4092100 105.9339770 111.6815060 102.4668340
 106.4577250 111.1877710 101.8358510 106.5199190 111.8165420 103.2115910
 106.1129490 111.7654930 105.9887890 105.1632200 111.7318470 106.1032880
 106.2942500 112.6755040 105.7537660  91.9673930 110.0156610  95.0986520
  92.6765630 109.5939830  94.6133800  91.2513870 110.0831840  94.4669870
  91.6148090 106.0695940  94.1389170  92.3376220 106.6104880  94.4570390
  91.8872610 105.7959360  93.2630710 105.4239740 110.9388410  98.4060750
 105.9198860 110.7059280  99.1909630 105.2255810 110.1000250  97.9898390
  91.3040280 105.3202130 104.0411790  91.9516470 104.7699510 103.6006950
  91.7242120 105.5745280 104.8627600 106.8526900 109.5749360 100.9398430
 106.7426180 109.4205400 101.8780700 107.6134490 109.0470300 100.6973840
 105.1992620 105.5143490 107.3981430 105.8364840 106.1277630 107.7640620
 105.3467510 105.5504150 106.4530660 107.7417170 107.4057280  94.1804570
 108.6666480 107.2738460  93.9722860 107.7192960 107.4850100  95.1341020
 107.8155660 108.1767940  96.8061280 107.0207160 108.1113060  97.3354190
 108.0198940 109.1118580  96.7946630  91.0572280 105.4757800 106.7837110
  90.7087100 105.9321620 107.5495290  90.7259980 104.5814930 106.8659540
 101.2071660 106.3239740 109.9448820 101.8212070 106.6419030 109.2829900
 101.7521220 105.8388330 110.5644680  91.7292920 105.0034000 110.0587880
  92.2775910 104.8222050 109.2953990  91.7948230 104.2128110 110.5944190
 101.9479700 104.8871880 106.2718110 101.0739540 105.2206990 106.0691040
 101.8390450 104.4145060 107.0969980 102.8551680 107.0942750 107.6559830
 102.5265040 106.2794510 107.2761560 103.8033980 107.0512560 107.5325520
  99.6954520 105.8041720 105.2111020  98.9126310 106.2787220 105.4907780
  99.4017450 104.8996550 105.1024200 104.2475590 106.5064820 103.2560110
 104.6883680 106.4509920 102.4081710 103.9783180 107.4222830 103.3270290
 106.1114160 106.1380060 101.2668930 106.0502560 105.1941280 101.1199950
 106.8906190 106.2460150 101.8122390  91.0394930 106.1089200  97.7324740
  91.7974290 106.2218080  97.1588770  90.5772100 106.9458400  97.6868170
  97.5808740 108.2228470 100.7227050  96.7683250 107.8485360 100.3822930
  98.0850380 107.4673550 101.0248240 102.0833720 104.8870920 101.9610120
 102.6863090 105.4591130 102.4358640 101.3426710 105.4510360 101.7384020
 105.2268320 105.2892480  97.2350400 105.4218950 106.1875930  97.5017830
 104.4398190 105.0579560  97.7283350  93.4120080 106.6353250  96.2726710
  93.9412840 105.8483050  96.1434660  94.0448400 107.3144440  96.5062240
  95.6057920 106.3728390  99.3272100  94.9760660 105.6715700  99.4942230
  95.0663060 107.1332520  99.1105260 101.2387090 113.0858420  82.7039800
 101.1581140 112.1713030  82.4331510 100.8251510 113.5825490  81.9979510
  91.7962910 110.1359140  79.2467220  90.9079610 110.4775110  79.1447100
  92.0804100 109.9359460  78.3548050  89.7595920 112.7364790  85.1306920
  90.3312030 111.9686990  85.1310560  89.7597460 113.0353550  84.2213530
  91.0020790 108.1449150  86.9175850  90.8223630 107.2474900  87.1978610
  90.6000870 108.6921020  87.5922800  99.8419290 110.3465010  84.8188160
 100.2184110 109.4736890  84.7061830  99.7438800 110.6823710  83.9278600
  93.9724300 108.7190640  80.2805600  94.0791050 109.6194370  80.5874360
  93.0616660 108.6708610  79.9900250 103.6243410 107.8415450  81.7516500
 104.4453030 107.3512020  81.7941980 103.6577490 108.4313110  82.5048340
  91.6207460 110.6409650  85.5258190  92.3017570 110.9048020  86.1445590
  91.3055510 109.8010520  85.8596200  95.8132030 111.6877010  84.6130780
  96.3210250 112.1857980  85.2535800  96.3445270 110.9112210  84.4370140
 107.9142960 109.8582200  88.3160130 107.2095130 110.2463910  87.7975240
 108.1800880 110.5532490  88.9181060  94.0968130 106.3275570  88.8794200
  94.0986570 106.8447960  88.0740100  93.2672440 105.8505750  88.8564130
 103.8604890 109.7815830  84.5244040 103.1560460 110.0700720  85.1047150
 104.2217050 110.5915940  84.1643600  93.7783460 108.0385530  86.8864650
  94.1200270 108.8827580  86.5918520  92.8399270 108.1869270  87.0029990
 106.9291810 109.2270620  84.9153250 105.9816720 109.2609600  85.0468680
 107.2541800 110.0409570  85.3002610  97.4611350 105.5267800  83.2109240
  97.7686330 104.9714690  82.4944740  96.5312050 105.6612260  83.0282230
  99.8361190 109.8633630  76.9436520  98.8964860 110.0247590  77.0288980
 100.1544450 110.5819310  76.3972510 103.3215960 111.3321470  87.8670420
 102.9087140 112.1575180  88.1210410 102.5891910 110.7466510  87.6746780
  94.1677370 110.8924580  86.5088130  94.7191960 111.0019920  85.7341380
  94.6820880 111.2662180  87.2243360 105.6371240 105.6466550  75.7718400
 105.3243900 105.7393380  76.6717470 106.3983710 106.2247580  75.7215830
  92.1553380 113.0126350  80.2295740  92.0350980 113.7388440  79.6177010
  91.8454270 112.2429260  79.7523650 106.8472530 110.3838050  91.7492540
 106.2316800 110.8917720  91.2208000 106.5268950 109.4836380  91.6918480
  94.6217040 106.3561420  83.6119410  94.1785190 107.1370960  83.2803930
  95.1802030 106.6791310  84.3190350  98.9086850 109.2229940  89.2154730
  98.4466220 109.4312960  90.0274670  98.5064960 108.4089290  88.9125400
 103.9091360 110.4438890  90.3451390 103.0584950 110.1444640  90.6660460
 103.7493150 110.6880900  89.4335210 101.0041070 111.9440640  92.4450180
 101.3294480 111.1104390  92.1052410 101.7921400 112.4669160  92.5928510
  97.7375860 105.9772120  78.4925240  97.1130040 105.9731990  79.2178550
  97.6505980 105.1103080  78.0961210  96.6592940 106.9008750  85.4709010
  96.9565270 107.8071580  85.3901030  97.2078500 106.4127530  84.8568580
  94.4131260 111.4794990  81.3400660  94.1872180 111.2632160  82.2447280
  93.6323790 111.9123450  80.9946630 101.6429020 111.4858360  79.9391310
 101.0437910 112.2094160  79.7554930 102.1908630 111.4235140  79.1567760
  96.8530470 112.3780570  92.0060930  96.7574070 111.4375300  91.8561330
  97.6962450 112.5995640  91.6109000 100.2493890 110.1221900  81.9694590
 100.6423460 110.4394100  81.1563280 100.6110740 109.2433780  82.0839110
  91.9841010 108.7894240  90.1594710  91.5904400 109.6369450  90.3667490
  91.2959410 108.1520610  90.3503350  98.5586060 108.8729210  93.2291450
  97.8684380 108.6801410  93.8637540  99.3018360 109.1563850  93.7615750
  89.2858060 106.7122700  84.1924790  88.9971110 107.2825560  84.9049770
  90.0303820 106.2327150  84.5556020  89.4728290 110.6542820  75.4027510
  89.3902960 111.5973580  75.5442500  89.1211350 110.5117730  74.5239860
 100.8349030 112.7127650  86.0645370 100.1030150 113.2214460  86.4135470
 100.4373370 111.8957630  85.7634150  97.2726420 109.3881850  84.4697860
  97.2762480 108.9471800  83.6202400  98.1677540 109.7099180  84.5769680
  93.1228800 109.2708340  83.4292070  92.7828850 109.7483570  84.1859120
  92.3606120 108.8173460  83.0693170  97.3346570 110.3893930  77.4604620
  97.4559390 110.3480410  78.4090440  96.9495080 111.2518080  77.3051350
 101.2974940 108.1661330  85.4768310 101.3147680 108.6169980  86.3210160
 101.0490520 107.2666970  85.6901750  96.3468070 112.6995070  76.8587920
  95.7784970 112.2513320  76.2323830  97.0557070 113.0587850  76.3253070
 104.7245690 105.5793510  91.3154690 105.0491460 104.8483170  91.8412670
 104.7602200 105.2607150  90.4135680  90.4374880 108.1927320  82.3456740
  90.1521800 107.8282990  83.1835360  90.3753740 107.4607780  81.7319880
  95.3633760 112.4892270  88.5347480  95.0590830 113.3684250  88.7597840
  96.3180220 112.5492060  88.5704920 100.1113470 107.0856580  79.0670110
  99.2978080 106.5869750  78.9915420  99.9175420 107.9254830  78.6506460
 102.8261860 111.4576230  77.3632270 103.7141480 111.7693460  77.1883610
 102.7966950 110.5848480  76.9712850 105.0976130 112.7688070  76.8312130
 105.0139850 113.2002290  75.9808570 105.8170320 113.2286420  77.2638950
  92.9952130 105.0597130  80.8984240  92.8666760 105.0515030  81.8469160
  92.1714150 105.3980220  80.5475250  89.9946060 106.8188250  90.3590940
  89.2804580 107.0185170  90.9643550  90.4141100 106.0427820  90.7305740
 101.4884840 109.3110560  88.1092390 101.8565660 108.4905770  88.4371960
 100.6283040 109.3712450  88.5248040 104.8546870 108.2667500  78.9179950
 104.2260030 108.3713170  78.2038180 104.3598790 108.4864280  79.7073830
  96.8230900 110.5453450  80.3337830  96.1147050 111.0139790  80.7751440
  97.1075380 109.8875460  80.9683020  98.4486830 111.9650150  88.3330360
  98.9472080 112.4395970  88.9982210  98.5909780 111.0413670  88.5400390
 100.8546330 107.2704110  81.7733620 100.7314110 107.2890240  80.8243130
 101.8030890 107.3183050  81.8932020  95.0265920 108.8538530  77.7088540
  95.8756450 109.2908680  77.6428730  94.6597190 109.1658790  78.5360600
 105.6553690 108.1818110  89.1758750 105.1527290 108.9223510  89.5152560
 106.4710350 108.5702110  88.8595540 103.9475700 113.4251290  82.6220110
 103.0065840 113.4401520  82.7967800 104.2619770 112.6387250  83.0680410
  92.6204100 112.5395960  76.8656960  92.7007690 111.5923470  76.9774360
  93.5123850 112.8702840  76.9717620  92.1797980 112.5040470  92.9963200
  92.2203320 112.2054340  93.9048430  93.0343480 112.9048080  92.8370720
  94.1203790 111.0832570  90.9637690  93.5900250 110.5923520  90.3361030
  94.7891860 111.5116770  90.4295620 103.4904020 112.8898190  92.7318030
 104.0724790 112.1350510  92.6438510 103.6665790 113.4205630  91.9549510
  94.6076090 108.0494940  91.0434980  94.5132960 107.4315690  90.3185850
  94.0273480 108.7761230  90.8164890  97.3737530 106.6068180  88.0762370
  96.9254830 106.6292440  87.2307920  96.7402730 106.2087200  88.6732670
 100.1160980 113.2338690  90.0812650 100.2357190 112.6379830  90.8207490
 100.9754980 113.2708380  89.6613950  94.8535270 111.1769250  75.1024870
  94.6524330 110.3136610  75.4638210  94.6827320 111.0902610  74.1646470
  96.8829750 109.7760040  91.3388470  97.4729440 109.4675890  92.0266290
  96.0649990 109.3039790  91.4948370 101.7023180 109.3925850  91.5721490
 101.0138700 108.7307390  91.5071480 102.4229200 108.9464120  92.0169950
 102.3323580 105.9877480  77.6311750 102.6125870 105.1445380  77.9871170
 101.5589310 106.2200590  78.1450500  93.6518070 108.2769870  75.0902750
  93.9543970 108.2837300  74.1821900  94.3912660 107.9267730  75.5870410
  96.8703000 107.2204490  76.0758950  96.5225000 106.5428480  75.4961400
  97.0715770 106.7594000  76.8902340  90.2108640 113.7492140  82.4723320
  89.5557480 113.4803780  81.8283020  91.0486590 113.6396620  82.0225300
 103.1599080 108.5433430  76.6941810 103.5783960 108.3564410  75.8538470
 102.8535140 107.6912480  77.0044740 106.6588810 113.4557570  80.3917610
 106.2832410 112.6885500  79.9598900 105.9291930 113.8380270  80.8792540
 106.0488430 112.6029090  90.0257130 105.8174520 112.3741840  89.1255080
 106.3092980 113.5228640  89.9802020  90.8000570 111.0453800  90.9185080
  89.9056620 111.0120560  91.2578790  91.3398120 111.2440590  91.6836330
 104.4876500 107.8285520  92.8036830 105.3646680 107.8368920  93.1870830
 104.4997340 107.0916360  92.1929180  89.4246720 110.9591070  78.4148650
  88.5210800 111.2221270  78.2400310  89.9087340 111.2302240  77.6348610
 105.9339770 111.6815060  83.6924850 106.4577250 111.1877710  83.0615020
 106.5199190 111.8165420  84.4372420 106.1129490 111.7654930  87.2144400
 105.1632200 111.7318470  87.3289390 106.2942500 112.6755040  86.9794170
  91.9673930 110.0156610  76.3243030  92.6765630 109.5939830  75.8390310
  91.2513870 110.0831840  75.6926380  91.6148090 106.0695940  75.3645680
  92.3376220 106.6104880  75.6826900  91.8872610 105.7959360  74.4887220
 105.4239740 110.9388410  79.6317260 105.9198860 110.7059280  80.4166140
 105.2255810 110.1000250  79.2154900  91.3040280 105.3202130  85.2668300
  91.9516470 104.7699510  84.8263460  91.7242120 105.5745280  86.0884110
 106.8526900 109.5749360  82.1654940 106.7426180 109.4205400  83.1037210
 107.6134490 109.0470300  81.9230350 105.1992620 105.5143490  88.6237940
 105.8364840 106.1277630  88.9897130 105.3467510 105.5504150  87.6787170
 107.7417170 107.4057280  75.4061080 108.6666480 107.2738460  75.1979370
 107.7192960 107.4850100  76.3597530 107.8155660 108.1767940  78.0317790
 107.0207160 108.1113060  78.5610700 108.0198940 109.1118580  78.0203140
  91.0572280 105.4757800  88.0093620  90.7087100 105.9321620  88.7751800
  90.7259980 104.5814930  88.0916050  98.5697100 106.6669680  91.5313040
  98.5085990 107.2591510  92.2808450  99.5097480 106.5595640  91.3863300
 101.2071660 106.3239740  91.1705330 101.8212070 106.6419030  90.5086410
 101.7521220 105.8388330  91.7901190  91.7292920 105.0034000  91.2844390
  92.2775910 104.8222050  90.5210500  91.7948230 104.2128110  91.8200700
 101.9479700 104.8871880  87.4974620 101.0739540 105.2206990  87.2947550
 101.8390450 104.4145060  88.3226490 102.8551680 107.0942750  88.8816340
 102.5265040 106.2794510  88.5018070 103.8033980 107.0512560  88.7582030
  99.6954520 105.8041720  86.4367530  98.9126310 106.2787220  86.7164290
  99.4017450 104.8996550  86.3280710 104.2475590 106.5064820  84.4816620
 104.6883680 106.4509920  83.6338220 103.9783180 107.4222830  84.5526800
 106.1114160 106.1380060  82.4925440 106.0502560 105.1941280  82.3456460
 106.8906190 106.2460150  83.0378900  91.0394930 106.1089200  78.9581250
  91.7974290 106.2218080  78.3845280  90.5772100 106.9458400  78.9124680
  97.5808740 108.2228470  81.9483560  96.7683250 107.8485360  81.6079440
  98.0850380 107.4673550  82.2504750 102.0833720 104.8870920  83.1866630
 102.6863090 105.4591130  83.6615150 101.3426710 105.4510360  82.9640530
 105.2268320 105.2892480  78.4606910 105.4218950 106.1875930  78.7274340
 104.4398190 105.0579560  78.9539860  93.4120080 106.6353250  77.4983220
  93.9412840 105.8483050  77.3691170  94.0448400 107.3144440  77.7318750
  95.6057920 106.3728390  80.5528610  94.9760660 105.6715700  80.7198740
  95.0663060 107.1332520  80.3361770  95.7313480 105.6512370  92.9881100
  95.4497750 106.1545970  92.2241920  96.1133180 104.8534120  92.6223230
 102.3328940 105.0665950  93.5661570 102.2194390 105.3860560  94.4613090
 103.1498680 105.4678460  93.2698850 101.2387090 113.0858420  63.9296310
 101.1581140 112.1713030  63.6588020 100.8251510 113.5825490  63.2236020
  91.7962910 110.1359140  60.4723730  90.9079610 110.4775110  60.3703610
  92.0804100 109.9359460  59.5804560  89.7595920 112.7364790  66.3563430
  90.3312030 111.9686990  66.3567070  89.7597460 113.0353550  65.4470040
  91.0020790 108.1449150  68.1432360  90.8223630 107.2474900  68.4235120
  90.6000870 108.6921020  68.8179310  99.8419290 110.3465010  66.0444670
 100.2184110 109.4736890  65.9318340  99.7438800 110.6823710  65.1535110
  93.9724300 108.7190640  61.5062110  94.0791050 109.6194370  61.8130870
  93.0616660 108.6708610  61.2156760 103.6243410 107.8415450  62.9773010
 104.4453030 107.3512020  63.0198490 103.6577490 108.4313110  63.7304850
  91.6207460 110.6409650  66.7514700  92.3017570 110.9048020  67.3702100
  91.3055510 109.8010520  67.0852710  95.8132030 111.6877010  65.8387290
  96.3210250 112.1857980  66.4792310  96.3445270 110.9112210  65.6626650
 107.9142960 109.8582200  69.5416640 107.2095130 110.2463910  69.0231750
 108.1800880 110.5532490  70.1437570  94.0968130 106.3275570  70.1050710
  94.0986570 106.8447960  69.2996610  93.2672440 105.8505750  70.0820640
 103.8604890 109.7815830  65.7500550 103.1560460 110.0700720  66.3303660
 104.2217050 110.5915940  65.3900110  93.7783460 108.0385530  68.1121160
  94.1200270 108.8827580  67.8175030  92.8399270 108.1869270  68.2286500
 106.9291810 109.2270620  66.1409760 105.9816720 109.2609600  66.2725190
 107.2541800 110.0409570  66.5259120  97.4611350 105.5267800  64.4365750
  97.7686330 104.9714690  63.7201250  96.5312050 105.6612260  64.2538740
  99.8361190 109.8633630  58.1693030  98.8964860 110.0247590  58.2545490
 100.1544450 110.5819310  57.6229020 103.3215960 111.3321470  69.0926930
 102.9087140 112.1575180  69.3466920 102.5891910 110.7466510  68.9003290
  94.1677370 110.8924580  67.7344640  94.7191960 111.0019920  66.9597890
  94.6820880 111.2662180  68.4499870 105.6371240 105.6466550  56.9974910
 105.3243900 105.7393380  57.8973980 106.3983710 106.2247580  56.9472340
  92.1553380 113.0126350  61.4552250  92.0350980 113.7388440  60.8433520
  91.8454270 112.2429260  60.9780160 106.8472530 110.3838050  72.9749050
 106.2316800 110.8917720  72.4464510 106.5268950 109.4836380  72.9174990
  94.6217040 106.3561420  64.8375920  94.1785190 107.1370960  64.5060440
  95.1802030 106.6791310  65.5446860  98.9086850 109.2229940  70.4411240
  98.4466220 109.4312960  71.2531180  98.5064960 108.4089290  70.1381910
 103.9091360 110.4438890  71.5707900 103.0584950 110.1444640  71.8916970
 103.7493150 110.6880900  70.6591720 101.0041070 111.9440640  73.6706690
 101.3294480 111.1104390  73.3308920 101.7921400 112.4669160  73.8185020
  97.7375860 105.9772120  59.7181750  97.1130040 105.9731990  60.4435060
  97.6505980 105.1103080  59.3217720  96.6592940 106.9008750  66.6965520
  96.9565270 107.8071580  66.6157540  97.2078500 106.4127530  66.0825090
  94.4131260 111.4794990  62.5657170  94.1872180 111.2632160  63.4703790
  93.6323790 111.9123450  62.2203140 101.6429020 111.4858360  61.1647820
 101.0437910 112.2094160  60.9811440 102.1908630 111.4235140  60.3824270
  96.8530470 112.3780570  73.2317440  96.7574070 111.4375300  73.0817840
  97.6962450 112.5995640  72.8365510 100.2493890 110.1221900  63.1951100
 100.6423460 110.4394100  62.3819790 100.6110740 109.2433780  63.3095620
  91.9841010 108.7894240  71.3851220  91.5904400 109.6369450  71.5924000
  91.2959410 108.1520610  71.5759860  98.5586060 108.8729210  74.4547960
  97.8684380 108.6801410  75.0894050  99.3018360 109.1563850  74.9872260
  89.2858060 106.7122700  65.4181300  88.9971110 107.2825560  66.1306280
  90.0303820 106.2327150  65.7812530  89.4728290 110.6542820  56.6284020
  89.3902960 111.5973580  56.7699010  89.1211350 110.5117730  55.7496370
 100.8349030 112.7127650  67.2901880 100.1030150 113.2214460  67.6391980
 100.4373370 111.8957630  66.9890660  97.2726420 109.3881850  65.6954370
  97.2762480 108.9471800  64.8458910  98.1677540 109.7099180  65.8026190
  93.1228800 109.2708340  64.6548580  92.7828850 109.7483570  65.4115630
  92.3606120 108.8173460  64.2949680  97.3346570 110.3893930  58.6861130
  97.4559390 110.3480410  59.6346950  96.9495080 111.2518080  58.5307860
 101.2974940 108.1661330  66.7024820 101.3147680 108.6169980  67.5466670
 101.0490520 107.2666970  66.9158260  96.3468070 112.6995070  58.0844430
  95.7784970 112.2513320  57.4580340  97.0557070 113.0587850  57.5509580
 104.7245690 105.5793510  72.5411200 105.0491460 104.8483170  73.0669180
 104.7602200 105.2607150  71.6392190  90.4374880 108.1927320  63.5713250
  90.1521800 107.8282990  64.4091870  90.3753740 107.4607780  62.9576390
  95.3633760 112.4892270  69.7603990  95.0590830 113.3684250  69.9854350
  96.3180220 112.5492060  69.7961430 100.1113470 107.0856580  60.2926620
  99.2978080 106.5869750  60.2171930  99.9175420 107.9254830  59.8762970
 102.8261860 111.4576230  58.5888780 103.7141480 111.7693460  58.4140120
 102.7966950 110.5848480  58.1969360 105.0976130 112.7688070  58.0568640
 105.0139850 113.2002290  57.2065080 105.8170320 113.2286420  58.4895460
  92.9952130 105.0597130  62.1240750  92.8666760 105.0515030  63.0725670
  92.1714150 105.3980220  61.7731760  89.9946060 106.8188250  71.5847450
  89.2804580 107.0185170  72.1900060  90.4141100 106.0427820  71.9562250
 101.4884840 109.3110560  69.3348900 101.8565660 108.4905770  69.6628470
 100.6283040 109.3712450  69.7504550 104.8546870 108.2667500  60.1436460
 104.2260030 108.3713170  59.4294690 104.3598790 108.4864280  60.9330340
  96.8230900 110.5453450  61.5594340  96.1147050 111.0139790  62.0007950
  97.1075380 109.8875460  62.1939530  98.4486830 111.9650150  69.5586870
  98.9472080 112.4395970  70.2238720  98.5909780 111.0413670  69.7656900
 100.8546330 107.2704110  62.9990130 100.7314110 107.2890240  62.0499640
 101.8030890 107.3183050  63.1188530  95.0265920 108.8538530  58.9345050
  95.8756450 109.2908680  58.8685240  94.6597190 109.1658790  59.7617110
 105.6553690 108.1818110  70.4015260 105.1527290 108.9223510  70.7409070
 106.4710350 108.5702110  70.0852050 103.9475700 113.4251290  63.8476620
 103.0065840 113.4401520  64.0224310 104.2619770 112.6387250  64.2936920
  92.6204100 112.5395960  58.0913470  92.7007690 111.5923470  58.2030870
  93.5123850 112.8702840  58.1974130  92.1797980 112.5040470  74.2219710
  92.2203320 112.2054340  75.1304940  93.0343480 112.9048080  74.0627230
  94.1203790 111.0832570  72.1894200  93.5900250 110.5923520  71.5617540
  94.7891860 111.5116770  71.6552130 103.4904020 112.8898190  73.9574540
 104.0724790 112.1350510  73.8695020 103.6665790 113.4205630  73.1806020
  94.6076090 108.0494940  72.2691490  94.5132960 107.4315690  71.5442360
  94.0273480 108.7761230  72.0421400  97.3737530 106.6068180  69.3018880
  96.9254830 106.6292440  68.4564430  96.7402730 106.2087200  69.8989180
 100.1160980 113.2338690  71.3069160 100.2357190 112.6379830  72.0464000
 100.9754980 113.2708380  70.8870460  94.8535270 111.1769250  56.3281380
  94.6524330 110.3136610  56.6894720  94.6827320 111.0902610  55.3902980
  96.8829750 109.7760040  72.5644980  97.4729440 109.4675890  73.2522800
  96.0649990 109.3039790  72.7204880 101.7023180 109.3925850  72.7978000
 101.0138700 108.7307390  72.7327990 102.4229200 108.9464120  73.2426460
 102.3323580 105.9877480  58.8568260 102.6125870 105.1445380  59.2127680
 101.5589310 106.2200590  59.3707010  93.6518070 108.2769870  56.3159260
  93.9543970 108.2837300  55.4078410  94.3912660 107.9267730  56.8126920
  96.8703000 107.2204490  57.3015460  96.5225000 106.5428480  56.7217910
  97.0715770 106.7594000  58.1158850  90.2108640 113.7492140  63.6979830
  89.5557480 113.4803780  63.0539530  91.0486590 113.6396620  63.2481810
 103.1599080 108.5433430  57.9198320 103.5783960 108.3564410  57.0794980
 102.8535140 107.6912480  58.2301250 106.6588810 113.4557570  61.6174120
 106.2832410 112.6885500  61.1855410 105.9291930 113.8380270  62.1049050
 106.0488430 112.6029090  71.2513640 105.8174520 112.3741840  70.3511590
 106.3092980 113.5228640  71.2058530  90.8000570 111.0453800  72.1441590
  89.9056620 111.0120560  72.4835300  91.3398120 111.2440590  72.9092840
 104.4876500 107.8285520  74.0293340 105.3646680 107.8368920  74.4127340
 104.4997340 107.0916360  73.4185690  89.4246720 110.9591070  59.6405160
  88.5210800 111.2221270  59.4656820  89.9087340 111.2302240  58.8605120
 105.9339770 111.6815060  64.9181360 106.4577250 111.1877710  64.2871530
 106.5199190 111.8165420  65.6628930 106.1129490 111.7654930  68.4400910
 105.1632200 111.7318470  68.5545900 106.2942500 112.6755040  68.2050680
  91.9673930 110.0156610  57.5499540  92.6765630 109.5939830  57.0646820
  91.2513870 110.0831840  56.9182890  91.6148090 106.0695940  56.5902190
  92.3376220 106.6104880  56.9083410  91.8872610 105.7959360  55.7143730
 105.4239740 110.9388410  60.8573770 105.9198860 110.7059280  61.6422650
 105.2255810 110.1000250  60.4411410  91.3040280 105.3202130  66.4924810
  91.9516470 104.7699510  66.0519970  91.7242120 105.5745280  67.3140620
 106.8526900 109.5749360  63.3911450 106.7426180 109.4205400  64.3293720
 107.6134490 109.0470300  63.1486860 105.1992620 105.5143490  69.8494450
 105.8364840 106.1277630  70.2153640 105.3467510 105.5504150  68.9043680
 107.7417170 107.4057280  56.6317590 108.6666480 107.2738460  56.4235880
 107.7192960 107.4850100  57.5854040 107.8155660 108.1767940  59.2574300
 107.0207160 108.1113060  59.7867210 108.0198940 109.1118580  59.2459650
  91.0572280 105.4757800  69.2350130  90.7087100 105.9321620  70.0008310
  90.7259980 104.5814930  69.3172560  98.5697100 106.6669680  72.7569550
  98.5085990 107.2591510  73.5064960  99.5097480 106.5595640  72.6119810
 101.2071660 106.3239740  72.3961840 101.8212070 106.6419030  71.7342920
 101.7521220 105.8388330  73.0157700  91.7292920 105.0034000  72.5100900
  92.2775910 104.8222050  71.7467010  91.7948230 104.2128110  73.0457210
 101.9479700 104.8871880  68.7231130 101.0739540 105.2206990  68.5204060
 101.8390450 104.4145060  69.5483000 102.8551680 107.0942750  70.1072850
 102.5265040 106.2794510  69.7274580 103.8033980 107.0512560  69.9838540
  99.6954520 105.8041720  67.6624040  98.9126310 106.2787220  67.9420800
  99.4017450 104.8996550  67.5537220 104.2475590 106.5064820  65.7073130
 104.6883680 106.4509920  64.8594730 103.9783180 107.4222830  65.7783310
 106.1114160 106.1380060  63.7181950 106.0502560 105.1941280  63.5712970
 106.8906190 106.2460150  64.2635410  91.0394930 106.1089200  60.1837760
  91.7974290 106.2218080  59.6101790  90.5772100 106.9458400  60.1381190
  97.5808740 108.2228470  63.1740070  96.7683250 107.8485360  62.8335950
  98.0850380 107.4673550  63.4761260 102.0833720 104.8870920  64.4123140
 102.6863090 105.4591130  64.8871660 101.3426710 105.4510360  64.1897040
 105.2268320 105.2892480  59.6863420 105.4218950 106.1875930  59.9530850
 104.4398190 105.0579560  60.1796370  93.4120080 106.6353250  58.7239730
  93.9412840 105.8483050  58.5947680  94.0448400 107.3144440  58.9575260
  95.6057920 106.3728390  61.7785120  94.9760660 105.6715700  61.9455250
  95.0663060 107.1332520  61.5618280  95.7313480 105.6512370  74.2137610
  95.4497750 106.1545970  73.4498430  96.1133180 104.8534120  73.8479740
 102.3328940 105.0665950  74.7918080 102.2194390 105.3860560  75.6869600
 103.1498680 105.4678460  74.4955360 101.2387090 113.0858420  45.1552820
 101.1581140 112.1713030  44.8844530 100.8251510 113.5825490  44.4492530
  91.7962910 110.1359140  41.6980240  90.9079610 110.4775110  41.5960120
  92.0804100 109.9359460  40.8061070  89.7595920 112.7364790  47.5819940
  90.3312030 111.9686990  47.5823580  89.7597460 113.0353550  46.6726550
  91.0020790 108.1449150  49.3688870  90.8223630 107.2474900  49.6491630
  90.6000870 108.6921020  50.0435820  99.8419290 110.3465010  47.2701180
 100.2184110 109.4736890  47.1574850  99.7438800 110.6823710  46.3791620
  93.9724300 108.7190640  42.7318620  94.0791050 109.6194370  43.0387380
  93.0616660 108.6708610  42.4413270 103.6243410 107.8415450  44.2029520
 104.4453030 107.3512020  44.2455000 103.6577490 108.4313110  44.9561360
  91.6207460 110.6409650  47.9771210  92.3017570 110.9048020  48.5958610
  91.3055510 109.8010520  48.3109220  95.8132030 111.6877010  47.0643800
  96.3210250 112.1857980  47.7048820  96.3445270 110.9112210  46.8883160
 107.9142960 109.8582200  50.7673150 107.2095130 110.2463910  50.2488260
 108.1800880 110.5532490  51.3694080  94.0968130 106.3275570  51.3307220
  94.0986570 106.8447960  50.5253120  93.2672440 105.8505750  51.3077150
 103.8604890 109.7815830  46.9757060 103.1560460 110.0700720  47.5560170
 104.2217050 110.5915940  46.6156620  93.7783460 108.0385530  49.3377670
  94.1200270 108.8827580  49.0431540  92.8399270 108.1869270  49.4543010
 106.9291810 109.2270620  47.3666270 105.9816720 109.2609600  47.4981700
 107.2541800 110.0409570  47.7515630  97.4611350 105.5267800  45.6622260
  97.7686330 104.9714690  44.9457760  96.5312050 105.6612260  45.4795250
  99.8361190 109.8633630  39.3949540  98.8964860 110.0247590  39.4802000
 100.1544450 110.5819310  38.8485530 103.3215960 111.3321470  50.3183440
 102.9087140 112.1575180  50.5723430 102.5891910 110.7466510  50.1259800
  94.1677370 110.8924580  48.9601150  94.7191960 111.0019920  48.1854400
  94.6820880 111.2662180  49.6756380 105.6371240 105.6466550  38.2231420
 105.3243900 105.7393380  39.1230490 106.3983710 106.2247580  38.1728850
  92.1553380 113.0126350  42.6808760  92.0350980 113.7388440  42.0690030
  91.8454270 112.2429260  42.2036670 106.8472530 110.3838050  54.2005560
 106.2316800 110.8917720  53.6721020 106.5268950 109.4836380  54.1431500
  94.6217040 106.3561420  46.0632430  94.1785190 107.1370960  45.7316950
  95.1802030 106.6791310  46.7703370  98.9086850 109.2229940  51.6667750
  98.4466220 109.4312960  52.4787690  98.5064960 108.4089290  51.3638420
 103.9091360 110.4438890  52.7964410 103.0584950 110.1444640  53.1173480
 103.7493150 110.6880900  51.8848230 101.0041070 111.9440640  54.8963200
 101.3294480 111.1104390  54.5565430 101.7921400 112.4669160  55.0441530
  97.7375860 105.9772120  40.9438260  97.1130040 105.9731990  41.6691570
  97.6505980 105.1103080  40.5474230  96.6592940 106.9008750  47.9222030
  96.9565270 107.8071580  47.8414050  97.2078500 106.4127530  47.3081600
  94.4131260 111.4794990  43.7913680  94.1872180 111.2632160  44.6960300
  93.6323790 111.9123450  43.4459650 101.6429020 111.4858360  42.3904330
 101.0437910 112.2094160  42.2067950 102.1908630 111.4235140  41.6080780
  96.8530470 112.3780570  54.4573950  96.7574070 111.4375300  54.3074350
  97.6962450 112.5995640  54.0622020 100.2493890 110.1221900  44.4207610
 100.6423460 110.4394100  43.6076300 100.6110740 109.2433780  44.5352130
  91.9841010 108.7894240  52.6107730  91.5904400 109.6369450  52.8180510
  91.2959410 108.1520610  52.8016370  98.5586060 108.8729210  55.6804470
  97.8684380 108.6801410  56.3150560  99.3018360 109.1563850  56.2128770
  89.2858060 106.7122700  46.6437810  88.9971110 107.2825560  47.3562790
  90.0303820 106.2327150  47.0069040  89.4728290 110.6542820  37.8540530
  89.3902960 111.5973580  37.9955520  89.1211350 110.5117730  36.9752880
 100.8349030 112.7127650  48.5158390 100.1030150 113.2214460  48.8648490
 100.4373370 111.8957630  48.2147170  97.2726420 109.3881850  46.9210880
  97.2762480 108.9471800  46.0715420  98.1677540 109.7099180  47.0282700
  93.1228800 109.2708340  45.8805090  92.7828850 109.7483570  46.6372140
  92.3606120 108.8173460  45.5206190  97.3346570 110.3893930  39.9117640
  97.4559390 110.3480410  40.8603460  96.9495080 111.2518080  39.7564370
 101.2974940 108.1661330  47.9281330 101.3147680 108.6169980  48.7723180
 101.0490520 107.2666970  48.1414770  96.3468070 112.6995070  39.3100940
  95.7784970 112.2513320  38.6836850  97.0557070 113.0587850  38.7766090
 104.7245690 105.5793510  53.7667710 105.0491460 104.8483170  54.2925690
 104.7602200 105.2607150  52.8648700  90.4374880 108.1927320  44.7969760
  90.1521800 107.8282990  45.6348380  90.3753740 107.4607780  44.1832900
  95.3633760 112.4892270  50.9860500  95.0590830 113.3684250  51.2110860
  96.3180220 112.5492060  51.0217940 100.1113470 107.0856580  41.5183130
  99.2978080 106.5869750  41.4428440  99.9175420 107.9254830  41.1019480
 102.8261860 111.4576230  39.8145290 103.7141480 111.7693460  39.6396630
 102.7966950 110.5848480  39.4225870 105.0976130 112.7688070  39.2825150
 105.0139850 113.2002290  38.4321590 105.8170320 113.2286420  39.7151970
  92.9952130 105.0597130  43.3497260  92.8666760 105.0515030  44.2982180
  92.1714150 105.3980220  42.9988270  89.9946060 106.8188250  52.8103960
  89.2804580 107.0185170  53.4156570  90.4141100 106.0427820  53.1818760
 101.4884840 109.3110560  50.5605410 101.8565660 108.4905770  50.8884980
 100.6283040 109.3712450  50.9761060 104.8546870 108.2667500  41.3692970
 104.2260030 108.3713170  40.6551200 104.3598790 108.4864280  42.1586850
  96.8230900 110.5453450  42.7850850  96.1147050 111.0139790  43.2264460
  97.1075380 109.8875460  43.4196040  98.4486830 111.9650150  50.7843380
  98.9472080 112.4395970  51.4495230  98.5909780 111.0413670  50.9913410
 100.8546330 107.2704110  44.2246640 100.7314110 107.2890240  43.2756150
 101.8030890 107.3183050  44.3445040  95.0265920 108.8538530  40.1601560
  95.8756450 109.2908680  40.0941750  94.6597190 109.1658790  40.9873620
 105.6553690 108.1818110  51.6271770 105.1527290 108.9223510  51.9665580
 106.4710350 108.5702110  51.3108560 103.9475700 113.4251290  45.0733130
 103.0065840 113.4401520  45.2480820 104.2619770 112.6387250  45.5193430
  92.6204100 112.5395960  39.3169980  92.7007690 111.5923470  39.4287380
  93.5123850 112.8702840  39.4230640  92.1797980 112.5040470  55.4476220
  92.2203320 112.2054340  56.3561450  93.0343480 112.9048080  55.2883740
  94.1203790 111.0832570  53.4150710  93.5900250 110.5923520  52.7874050
  94.7891860 111.5116770  52.8808640 103.4904020 112.8898190  55.1831050
 104.0724790 112.1350510  55.0951530 103.6665790 113.4205630  54.4062530
  94.6076090 108.0494940  53.4948000  94.5132960 107.4315690  52.7698870
  94.0273480 108.7761230  53.2677910  97.3737530 106.6068180  50.5275390
  96.9254830 106.6292440  49.6820940  96.7402730 106.2087200  51.1245690
 100.1160980 113.2338690  52.5325670 100.2357190 112.6379830  53.2720510
 100.9754980 113.2708380  52.1126970  94.8535270 111.1769250  37.5537890
  94.6524330 110.3136610  37.9151230  94.6827320 111.0902610  36.6159490
  96.8829750 109.7760040  53.7901490  97.4729440 109.4675890  54.4779310
  96.0649990 109.3039790  53.9461390 101.7023180 109.3925850  54.0234510
 101.0138700 108.7307390  53.9584500 102.4229200 108.9464120  54.4682970
 102.3323580 105.9877480  40.0824770 102.6125870 105.1445380  40.4384190
 101.5589310 106.2200590  40.5963520  93.6518070 108.2769870  37.5415770
  93.9543970 108.2837300  36.6334920  94.3912660 107.9267730  38.0383430
  96.8703000 107.2204490  38.5271970  96.5225000 106.5428480  37.9474420
  97.0715770 106.7594000  39.3415360  90.2108640 113.7492140  44.9236340
  89.5557480 113.4803780  44.2796040  91.0486590 113.6396620  44.4738320
 103.1599080 108.5433430  39.1454830 103.5783960 108.3564410  38.3051490
 102.8535140 107.6912480  39.4557760 106.6588810 113.4557570  42.8430630
 106.2832410 112.6885500  42.4111920 105.9291930 113.8380270  43.3305560
 106.0488430 112.6029090  52.4770150 105.8174520 112.3741840  51.5768100
 106.3092980 113.5228640  52.4315040  90.8000570 111.0453800  53.3698100
  89.9056620 111.0120560  53.7091810  91.3398120 111.2440590  54.1349350
 104.4876500 107.8285520  55.2549850 105.3646680 107.8368920  55.6383850
 104.4997340 107.0916360  54.6442200  89.4246720 110.9591070  40.8661670
  88.5210800 111.2221270  40.6913330  89.9087340 111.2302240  40.0861630
 105.9339770 111.6815060  46.1437870 106.4577250 111.1877710  45.5128040
 106.5199190 111.8165420  46.8885440 106.1129490 111.7654930  49.6657420
 105.1632200 111.7318470  49.7802410 106.2942500 112.6755040  49.4307190
  91.9673930 110.0156610  38.7756050  92.6765630 109.5939830  38.2903330
  91.2513870 110.0831840  38.1439400  91.6148090 106.0695940  37.8158700
  92.3376220 106.6104880  38.1339920  91.8872610 105.7959360  36.9400240
 105.4239740 110.9388410  42.0830280 105.9198860 110.7059280  42.8679160
 105.2255810 110.1000250  41.6667920  91.3040280 105.3202130  47.7181320
  91.9516470 104.7699510  47.2776480  91.7242120 105.5745280  48.5397130
 106.8526900 109.5749360  44.6167960 106.7426180 109.4205400  45.5550230
 107.6134490 109.0470300  44.3743370 105.1992620 105.5143490  51.0750960
 105.8364840 106.1277630  51.4410150 105.3467510 105.5504150  50.1300190
 107.7417170 107.4057280  37.8574100 108.6666480 107.2738460  37.6492390
 107.7192960 107.4850100  38.8110550 107.8155660 108.1767940  40.4830810
 107.0207160 108.1113060  41.0123720 108.0198940 109.1118580  40.4716160
  91.0572280 105.4757800  50.4606640  90.7087100 105.9321620  51.2264820
  90.7259980 104.5814930  50.5429070  98.5697100 106.6669680  53.9826060
  98.5085990 107.2591510  54.7321470  99.5097480 106.5595640  53.8376320
 101.2071660 106.3239740  53.6218350 101.8212070 106.6419030  52.9599430
 101.7521220 105.8388330  54.2414210  91.7292920 105.0034000  53.7357410
  92.2775910 104.8222050  52.9723520  91.7948230 104.2128110  54.2713720
 101.9479700 104.8871880  49.9487640 101.0739540 105.2206990  49.7460570
 101.8390450 104.4145060  50.7739510 102.8551680 107.0942750  51.3329360
 102.5265040 106.2794510  50.9531090 103.8033980 107.0512560  51.2095050
  99.6954520 105.8041720  48.8880550  98.9126310 106.2787220  49.1677310
  99.4017450 104.8996550  48.7793730 104.2475590 106.5064820  46.9329640
 104.6883680 106.4509920  46.0851240 103.9783180 107.4222830  47.0039820
 106.1114160 106.1380060  44.9438460 106.0502560 105.1941280  44.7969480
 106.8906190 106.2460150  45.4891920  91.0394930 106.1089200  41.4094270
  91.7974290 106.2218080  40.8358300  90.5772100 106.9458400  41.3637700
  97.5808740 108.2228470  44.3996580  96.7683250 107.8485360  44.0592460
  98.0850380 107.4673550  44.7017770 102.0833720 104.8870920  45.6379650
 102.6863090 105.4591130  46.1128170 101.3426710 105.4510360  45.4153550
 105.2268320 105.2892480  40.9119930 105.4218950 106.1875930  41.1787360
 104.4398190 105.0579560  41.4052880  93.4120080 106.6353250  39.9496240
  93.9412840 105.8483050  39.8204190  94.0448400 107.3144440  40.1831770
  95.6057920 106.3728390  43.0041630  94.9760660 105.6715700  43.1711760
  95.0663060 107.1332520  42.7874790  95.7313480 105.6512370  55.4394120
  95.4497750 106.1545970  54.6754940  96.1133180 104.8534120  55.0736250
 102.3328940 105.0665950  56.0174590 102.2194390 105.3860560  56.9126110
 103.1498680 105.4678460  55.7211870 101.2387090 113.0858420  26.3809330
 101.1581140 112.1713030  26.1101040 100.8251510 113.5825490  25.6749040
  91.7962910 110.1359140  22.9236750  90.9079610 110.4775110  22.8216630
  92.0804100 109.9359460  22.0317580  89.7595920 112.7364790  28.8076450
  90.3312030 111.9686990  28.8080090  89.7597460 113.0353550  27.8983060
  91.0020790 108.1449150  30.5945380  90.8223630 107.2474900  30.8748140
  90.6000870 108.6921020  31.2692330  99.8419290 110.3465010  28.4957690
 100.2184110 109.4736890  28.3831360  99.7438800 110.6823710  27.6048130
  93.9724300 108.7190640  23.9575130  94.0791050 109.6194370  24.2643890
  93.0616660 108.6708610  23.6669780 103.6243410 107.8415450  25.4286030
 104.4453030 107.3512020  25.4711510 103.6577490 108.4313110  26.1817870
  91.6207460 110.6409650  29.2027720  92.3017570 110.9048020  29.8215120
  91.3055510 109.8010520  29.5365730  95.8132030 111.6877010  28.2900310
  96.3210250 112.1857980  28.9305330  96.3445270 110.9112210  28.1139670
 107.9142960 109.8582200  31.9929660 107.2095130 110.2463910  31.4744770
 108.1800880 110.5532490  32.5950590  94.0968130 106.3275570  32.5563730
  94.0986570 106.8447960  31.7509630  93.2672440 105.8505750  32.5333660
 103.8604890 109.7815830  28.2013570 103.1560460 110.0700720  28.7816680
 104.2217050 110.5915940  27.8413130  93.7783460 108.0385530  30.5634180
  94.1200270 108.8827580  30.2688050  92.8399270 108.1869270  30.6799520
 106.9291810 109.2270620  28.5922780 105.9816720 109.2609600  28.7238210
 107.2541800 110.0409570  28.9772140  97.4611350 105.5267800  26.8878770
  97.7686330 104.9714690  26.1714270  96.5312050 105.6612260  26.7051760
  99.8361190 109.8633630  20.6206050  98.8964860 110.0247590  20.7058510
 100.1544450 110.5819310  20.0742040 103.3215960 111.3321470  31.5439950
 102.9087140 112.1575180  31.7979940 102.5891910 110.7466510  31.3516310
  94.1677370 110.8924580  30.1857660  94.7191960 111.0019920  29.4110910
  94.6820880 111.2662180  30.9012890 105.6371240 105.6466550  19.4487930
 105.3243900 105.7393380  20.3487000 106.3983710 106.2247580  19.3985360
  92.1553380 113.0126350  23.9065270  92.0350980 113.7388440  23.2946540
  91.8454270 112.2429260  23.4293180 106.8472530 110.3838050  35.4262070
 106.2316800 110.8917720  34.8977530 106.5268950 109.4836380  35.3688010
  94.6217040 106.3561420  27.2888940  94.1785190 107.1370960  26.9573460
  95.1802030 106.6791310  27.9959880  98.9086850 109.2229940  32.8924260
  98.4466220 109.4312960  33.7044200  98.5064960 108.4089290  32.5894930
 103.9091360 110.4438890  34.0220920 103.0584950 110.1444640  34.3429990
 103.7493150 110.6880900  33.1104740 101.0041070 111.9440640  36.1219710
 101.3294480 111.1104390  35.7821940 101.7921400 112.4669160  36.2698040
  97.7375860 105.9772120  22.1694770  97.1130040 105.9731990  22.8948080
  97.6505980 105.1103080  21.7730740  96.6592940 106.9008750  29.1478540
  96.9565270 107.8071580  29.0670560  97.2078500 106.4127530  28.5338110
  94.4131260 111.4794990  25.0170190  94.1872180 111.2632160  25.9216810
  93.6323790 111.9123450  24.6716160 101.6429020 111.4858360  23.6160840
 101.0437910 112.2094160  23.4324460 102.1908630 111.4235140  22.8337290
  96.8530470 112.3780570  35.6830460  96.7574070 111.4375300  35.5330860
  97.6962450 112.5995640  35.2878530 100.2493890 110.1221900  25.6464120
 100.6423460 110.4394100  24.8332810 100.6110740 109.2433780  25.7608640
  91.9841010 108.7894240  33.8364240  91.5904400 109.6369450  34.0437020
  91.2959410 108.1520610  34.0272880  98.5586060 108.8729210  36.9060980
  97.8684380 108.6801410  37.5407070  99.3018360 109.1563850  37.4385280
  89.2858060 106.7122700  27.8694320  88.9971110 107.2825560  28.5819300
  90.0303820 106.2327150  28.2325550  89.4728290 110.6542820  19.0797040
  89.3902960 111.5973580  19.2212030  89.1211350 110.5117730  18.2009390
 100.8349030 112.7127650  29.7414900 100.1030150 113.2214460  30.0905000
 100.4373370 111.8957630  29.4403680  97.2726420 109.3881850  28.1467390
  97.2762480 108.9471800  27.2971930  98.1677540 109.7099180  28.2539210
  93.1228800 109.2708340  27.1061600  92.7828850 109.7483570  27.8628650
  92.3606120 108.8173460  26.7462700  97.3346570 110.3893930  21.1374150
  97.4559390 110.3480410  22.0859970  96.9495080 111.2518080  20.9820880
 101.2974940 108.1661330  29.1537840 101.3147680 108.6169980  29.9979690
 101.0490520 107.2666970  29.3671280  96.3468070 112.6995070  20.5357450
  95.7784970 112.2513320  19.9093360  97.0557070 113.0587850  20.0022600
 104.7245690 105.5793510  34.9924220 105.0491460 104.8483170  35.5182200
 104.7602200 105.2607150  34.0905210  90.4374880 108.1927320  26.0226270
  90.1521800 107.8282990  26.8604890  90.3753740 107.4607780  25.4089410
  95.3633760 112.4892270  32.2117010  95.0590830 113.3684250  32.4367370
  96.3180220 112.5492060  32.2474450 100.1113470 107.0856580  22.7439640
  99.2978080 106.5869750  22.6684950  99.9175420 107.9254830  22.3275990
 102.8261860 111.4576230  21.0401800 103.7141480 111.7693460  20.8653140
 102.7966950 110.5848480  20.6482380 105.0976130 112.7688070  20.5081660
 105.0139850 113.2002290  19.6578100 105.8170320 113.2286420  20.9408480
  92.9952130 105.0597130  24.5753770  92.8666760 105.0515030  25.5238690
  92.1714150 105.3980220  24.2244780  89.9946060 106.8188250  34.0360470
  89.2804580 107.0185170  34.6413080  90.4141100 106.0427820  34.4075270
 101.4884840 109.3110560  31.7861920 101.8565660 108.4905770  32.1141490
 100.6283040 109.3712450  32.2017570 104.8546870 108.2667500  22.5949480
 104.2260030 108.3713170  21.8807710 104.3598790 108.4864280  23.3843360
  96.8230900 110.5453450  24.0107360  96.1147050 111.0139790  24.4520970
  97.1075380 109.8875460  24.6452550  98.4486830 111.9650150  32.0099890
  98.9472080 112.4395970  32.6751740  98.5909780 111.0413670  32.2169920
 100.8546330 107.2704110  25.4503150 100.7314110 107.2890240  24.5012660
 101.8030890 107.3183050  25.5701550  95.0265920 108.8538530  21.3858070
  95.8756450 109.2908680  21.3198260  94.6597190 109.1658790  22.2130130
 105.6553690 108.1818110  32.8528280 105.1527290 108.9223510  33.1922090
 106.4710350 108.5702110  32.5365070 103.9475700 113.4251290  26.2989640
 103.0065840 113.4401520  26.4737330 104.2619770 112.6387250  26.7449940
  92.6204100 112.5395960  20.5426490  92.7007690 111.5923470  20.6543890
  93.5123850 112.8702840  20.6487150  92.1797980 112.5040470  36.6732730
  92.2203320 112.2054340  37.5817960  93.0343480 112.9048080  36.5140250
  94.1203790 111.0832570  34.6407220  93.5900250 110.5923520  34.0130560
  94.7891860 111.5116770  34.1065150 103.4904020 112.8898190  36.4087560
 104.0724790 112.1350510  36.3208040 103.6665790 113.4205630  35.6319040
  94.6076090 108.0494940  34.7204510  94.5132960 107.4315690  33.9955380
  94.0273480 108.7761230  34.4934420  97.3737530 106.6068180  31.7531900
  96.9254830 106.6292440  30.9077450  96.7402730 106.2087200  32.3502200
 100.1160980 113.2338690  33.7582180 100.2357190 112.6379830  34.4977020
 100.9754980 113.2708380  33.3383480  94.8535270 111.1769250  18.7794400
  94.6524330 110.3136610  19.1407740  94.6827320 111.0902610  17.8416000
  96.8829750 109.7760040  35.0158000  97.4729440 109.4675890  35.7035820
  96.0649990 109.3039790  35.1717900 101.7023180 109.3925850  35.2491020
 101.0138700 108.7307390  35.1841010 102.4229200 108.9464120  35.6939480
 102.3323580 105.9877480  21.3081280 102.6125870 105.1445380  21.6640700
 101.5589310 106.2200590  21.8220030  93.6518070 108.2769870  18.7672280
  93.9543970 108.2837300  17.8591430  94.3912660 107.9267730  19.2639940
  96.8703000 107.2204490  19.7528480  96.5225000 106.5428480  19.1730930
  97.0715770 106.7594000  20.5671870  90.2108640 113.7492140  26.1492850
  89.5557480 113.4803780  25.5052550  91.0486590 113.6396620  25.6994830
 103.1599080 108.5433430  20.3711340 103.5783960 108.3564410  19.5308000
 102.8535140 107.6912480  20.6814270 106.6588810 113.4557570  24.0687140
 106.2832410 112.6885500  23.6368430 105.9291930 113.8380270  24.5562070
 106.0488430 112.6029090  33.7026660 105.8174520 112.3741840  32.8024610
 106.3092980 113.5228640  33.6571550  90.8000570 111.0453800  34.5954610
  89.9056620 111.0120560  34.9348320  91.3398120 111.2440590  35.3605860
 104.4876500 107.8285520  36.4806360 105.3646680 107.8368920  36.8640360
 104.4997340 107.0916360  35.8698710  89.4246720 110.9591070  22.0918180
  88.5210800 111.2221270  21.9169840  89.9087340 111.2302240  21.3118140
 105.9339770 111.6815060  27.3694380 106.4577250 111.1877710  26.7384550
 106.5199190 111.8165420  28.1141950 106.1129490 111.7654930  30.8913930
 105.1632200 111.7318470  31.0058920 106.2942500 112.6755040  30.6563700
  91.9673930 110.0156610  20.0012560  92.6765630 109.5939830  19.5159840
  91.2513870 110.0831840  19.3695910  91.6148090 106.0695940  19.0415210
  92.3376220 106.6104880  19.3596430  91.8872610 105.7959360  18.1656750
 105.4239740 110.9388410  23.3086790 105.9198860 110.7059280  24.0935670
 105.2255810 110.1000250  22.8924430  91.3040280 105.3202130  28.9437830
  91.9516470 104.7699510  28.5032990  91.7242120 105.5745280  29.7653640
 106.8526900 109.5749360  25.8424470 106.7426180 109.4205400  26.7806740
 107.6134490 109.0470300  25.5999880 105.1992620 105.5143490  32.3007470
 105.8364840 106.1277630  32.6666660 105.3467510 105.5504150  31.3556700
 107.7417170 107.4057280  19.0830610 108.6666480 107.2738460  18.8748900
 107.7192960 107.4850100  20.0367060 107.8155660 108.1767940  21.7087320
 107.0207160 108.1113060  22.2380230 108.0198940 109.1118580  21.6972670
  91.0572280 105.4757800  31.6863150  90.7087100 105.9321620  32.4521330
  90.7259980 104.5814930  31.7685580  98.5697100 106.6669680  35.2082570
  98.5085990 107.2591510  35.9577980  99.5097480 106.5595640  35.0632830
 101.2071660 106.3239740  34.8474860 101.8212070 106.6419030  34.1855940
 101.7521220 105.8388330  35.4670720  91.7292920 105.0034000  34.9613920
  92.2775910 104.8222050  34.1980030  91.7948230 104.2128110  35.4970230
 101.9479700 104.8871880  31.1744150 101.0739540 105.2206990  30.9717080
 101.8390450 104.4145060  31.9996020 102.8551680 107.0942750  32.5585870
 102.5265040 106.2794510  32.1787600 103.8033980 107.0512560  32.4351560
  99.6954520 105.8041720  30.1137060  98.9126310 106.2787220  30.3933820
  99.4017450 104.8996550  30.0050240 104.2475590 106.5064820  28.1586150
 104.6883680 106.4509920  27.3107750 103.9783180 107.4222830  28.2296330
 106.1114160 106.1380060  26.1694970 106.0502560 105.1941280  26.0225990
 106.8906190 106.2460150  26.7148430  91.0394930 106.1089200  22.6350780
  91.7974290 106.2218080  22.0614810  90.5772100 106.9458400  22.5894210
  97.5808740 108.2228470  25.6253090  96.7683250 107.8485360  25.2848970
  98.0850380 107.4673550  25.9274280 102.0833720 104.8870920  26.8636160
 102.6863090 105.4591130  27.3384680 101.3426710 105.4510360  26.6410060
 105.2268320 105.2892480  22.1376440 105.4218950 106.1875930  22.4043870
 104.4398190 105.0579560  22.6309390  93.4120080 106.6353250  21.1752750
  93.9412840 105.8483050  21.0460700  94.0448400 107.3144440  21.4088280
  95.6057920 106.3728390  24.2298140  94.9760660 105.6715700  24.3968270
  95.0663060 107.1332520  24.0131300  95.7313480 105.6512370  36.6650630
  95.4497750 106.1545970  35.9011450  96.1133180 104.8534120  36.2992760
 102.3328940 105.0665950  37.2431100 102.2194390 105.3860560  38.1382620
 103.1498680 105.4678460  36.9468380 101.2387090 113.0858420   7.6065840
 101.1581140 112.1713030   7.3357550 100.8251510 113.5825490   6.9005550
  91.7962910 110.1359140   4.1493260  90.9079610 110.4775110   4.0473140
  92.0804100 109.9359460   3.2574090  89.7595920 112.7364790  10.0332960
  90.3312030 111.9686990  10.0336600  89.7597460 113.0353550   9.1239570
  91.0020790 108.1449150  11.8201890  90.8223630 107.2474900  12.1004650
  90.6000870 108.6921020  12.4948840  99.8419290 110.3465010   9.7214200
 100.2184110 109.4736890   9.6087870  99.7438800 110.6823710   8.8304640
  93.9724300 108.7190640   5.1831640  94.0791050 109.6194370   5.4900400
  93.0616660 108.6708610   4.8926290 103.6243410 107.8415450   6.6542540
 104.4453030 107.3512020   6.6968020 103.6577490 108.4313110   7.4074380
  91.6207460 110.6409650  10.4284230  92.3017570 110.9048020  11.0471630
  91.3055510 109.8010520  10.7622240  95.8132030 111.6877010   9.5156820
  96.3210250 112.1857980  10.1561840  96.3445270 110.9112210   9.3396180
 107.9142960 109.8582200  13.2186170 107.2095130 110.2463910  12.7001280
 108.1800880 110.5532490  13.8207100  94.0968130 106.3275570  13.7820240
  94.0986570 106.8447960  12.9766140  93.2672440 105.8505750  13.7590170
 103.8604890 109.7815830   9.4270080 103.1560460 110.0700720  10.0073190
 104.2217050 110.5915940   9.0669640  93.7783460 108.0385530  11.7890690
  94.1200270 108.8827580  11.4944560  92.8399270 108.1869270  11.9056030
 106.9291810 109.2270620   9.8179290 105.9816720 109.2609600   9.9494720
 107.2541800 110.0409570  10.2028650  97.4611350 105.5267800   8.1135280
  97.7686330 104.9714690   7.3970780  96.5312050 105.6612260   7.9308270
  99.8361190 109.8633630   1.8462560  98.8964860 110.0247590   1.9315020
 100.1544450 110.5819310   1.2998550 103.3215960 111.3321470  12.7696460
 102.9087140 112.1575180  13.0236450 102.5891910 110.7466510  12.5772820
  94.1677370 110.8924580  11.4114170  94.7191960 111.0019920  10.6367420
  94.6820880 111.2662180  12.1269400  92.1553380 113.0126350   5.1321780
  92.0350980 113.7388440   4.5203050  91.8454270 112.2429260   4.6549690
 106.8472530 110.3838050  16.6518580 106.2316800 110.8917720  16.1234040
 106.5268950 109.4836380  16.5944520  94.6217040 106.3561420   8.5145450
  94.1785190 107.1370960   8.1829970  95.1802030 106.6791310   9.2216390
  98.9086850 109.2229940  14.1180770  98.4466220 109.4312960  14.9300710
  98.5064960 108.4089290  13.8151440 103.9091360 110.4438890  15.2477430
 103.0584950 110.1444640  15.5686500 103.7493150 110.6880900  14.3361250
 101.0041070 111.9440640  17.3476220 101.3294480 111.1104390  17.0078450
 101.7921400 112.4669160  17.4954550  97.7375860 105.9772120   3.3951280
  97.1130040 105.9731990   4.1204590  97.6505980 105.1103080   2.9987250
  96.6592940 106.9008750  10.3735050  96.9565270 107.8071580  10.2927070
  97.2078500 106.4127530   9.7594620  94.4131260 111.4794990   6.2426700
  94.1872180 111.2632160   7.1473320  93.6323790 111.9123450   5.8972670
 101.6429020 111.4858360   4.8417350 101.0437910 112.2094160   4.6580970
 102.1908630 111.4235140   4.0593800  96.8530470 112.3780570  16.9086970
  96.7574070 111.4375300  16.7587370  97.6962450 112.5995640  16.5135040
 100.2493890 110.1221900   6.8720630 100.6423460 110.4394100   6.0589320
 100.6110740 109.2433780   6.9865150  91.9841010 108.7894240  15.0620750
  91.5904400 109.6369450  15.2693530  91.2959410 108.1520610  15.2529390
  98.5586060 108.8729210  18.1317490  97.8684380 108.6801410  18.7663580
  99.3018360 109.1563850  18.6641790  89.2858060 106.7122700   9.0950830
  88.9971110 107.2825560   9.8075810  90.0303820 106.2327150   9.4582060
 100.8349030 112.7127650  10.9671410 100.1030150 113.2214460  11.3161510
 100.4373370 111.8957630  10.6660190  97.2726420 109.3881850   9.3723900
  97.2762480 108.9471800   8.5228440  98.1677540 109.7099180   9.4795720
  93.1228800 109.2708340   8.3318110  92.7828850 109.7483570   9.0885160
  92.3606120 108.8173460   7.9719210  97.3346570 110.3893930   2.3630660
  97.4559390 110.3480410   3.3116480  96.9495080 111.2518080   2.2077390
 101.2974940 108.1661330  10.3794350 101.3147680 108.6169980  11.2236200
 101.0490520 107.2666970  10.5927790 104.7245690 105.5793510  16.2180730
 105.0491460 104.8483170  16.7438710 104.7602200 105.2607150  15.3161720
  90.4374880 108.1927320   7.2482780  90.1521800 107.8282990   8.0861400
  90.3753740 107.4607780   6.6345920  95.3633760 112.4892270  13.4373520
  95.0590830 113.3684250  13.6623880  96.3180220 112.5492060  13.4730960
 100.1113470 107.0856580   3.9696150  99.2978080 106.5869750   3.8941460
  99.9175420 107.9254830   3.5532500 102.8261860 111.4576230   2.2658310
 103.7141480 111.7693460   2.0909650 102.7966950 110.5848480   1.8738890
  92.9952130 105.0597130   5.8010280  92.8666760 105.0515030   6.7495200
  92.1714150 105.3980220   5.4501290  89.9946060 106.8188250  15.2616980
  89.2804580 107.0185170  15.8669590  90.4141100 106.0427820  15.6331780
 101.4884840 109.3110560  13.0118430 101.8565660 108.4905770  13.3398000
 100.6283040 109.3712450  13.4274080 104.8546870 108.2667500   3.8205990
 104.2260030 108.3713170   3.1064220 104.3598790 108.4864280   4.6099870
  96.8230900 110.5453450   5.2363870  96.1147050 111.0139790   5.6777480
  97.1075380 109.8875460   5.8709060  98.4486830 111.9650150  13.2356400
  98.9472080 112.4395970  13.9008250  98.5909780 111.0413670  13.4426430
 100.8546330 107.2704110   6.6759660 100.7314110 107.2890240   5.7269170
 101.8030890 107.3183050   6.7958060  95.0265920 108.8538530   2.6114580
  95.8756450 109.2908680   2.5454770  94.6597190 109.1658790   3.4386640
 105.6553690 108.1818110  14.0784790 105.1527290 108.9223510  14.4178600
 106.4710350 108.5702110  13.7621580 103.9475700 113.4251290   7.5246150
 103.0065840 113.4401520   7.6993840 104.2619770 112.6387250   7.9706450
  92.6204100 112.5395960   1.7683000  92.7007690 111.5923470   1.8800400
  93.5123850 112.8702840   1.8743660  92.1797980 112.5040470  17.8989240
  92.2203320 112.2054340  18.8074470  93.0343480 112.9048080  17.7396760
  94.1203790 111.0832570  15.8663730  93.5900250 110.5923520  15.2387070
  94.7891860 111.5116770  15.3321660 103.4904020 112.8898190  17.6344070
 104.0724790 112.1350510  17.5464550 103.6665790 113.4205630  16.8575550
  94.6076090 108.0494940  15.9461020  94.5132960 107.4315690  15.2211890
  94.0273480 108.7761230  15.7190930  97.3737530 106.6068180  12.9788410
  96.9254830 106.6292440  12.1333960  96.7402730 106.2087200  13.5758710
 100.1160980 113.2338690  14.9838690 100.2357190 112.6379830  15.7233530
 100.9754980 113.2708380  14.5639990  96.8829750 109.7760040  16.2414510
  97.4729440 109.4675890  16.9292330  96.0649990 109.3039790  16.3974410
 101.7023180 109.3925850  16.4747530 101.0138700 108.7307390  16.4097520
 102.4229200 108.9464120  16.9195990 102.3323580 105.9877480   2.5337790
 102.6125870 105.1445380   2.8897210 101.5589310 106.2200590   3.0476540
  90.2108640 113.7492140   7.3749360  89.5557480 113.4803780   6.7309060
  91.0486590 113.6396620   6.9251340 106.6588810 113.4557570   5.2943650
 106.2832410 112.6885500   4.8624940 105.9291930 113.8380270   5.7818580
 106.0488430 112.6029090  14.9283170 105.8174520 112.3741840  14.0281120
 106.3092980 113.5228640  14.8828060  90.8000570 111.0453800  15.8211120
  89.9056620 111.0120560  16.1604830  91.3398120 111.2440590  16.5862370
 104.4876500 107.8285520  17.7062870 105.3646680 107.8368920  18.0896870
 104.4997340 107.0916360  17.0955220  89.4246720 110.9591070   3.3174690
  88.5210800 111.2221270   3.1426350  89.9087340 111.2302240   2.5374650
 105.9339770 111.6815060   8.5950890 106.4577250 111.1877710   7.9641060
 106.5199190 111.8165420   9.3398460 106.1129490 111.7654930  12.1170440
 105.1632200 111.7318470  12.2315430 106.2942500 112.6755040  11.8820210
 105.4239740 110.9388410   4.5343300 105.9198860 110.7059280   5.3192180
 105.2255810 110.1000250   4.1180940  91.3040280 105.3202130  10.1694340
  91.9516470 104.7699510   9.7289500  91.7242120 105.5745280  10.9910150
 106.8526900 109.5749360   7.0680980 106.7426180 109.4205400   8.0063250
 107.6134490 109.0470300   6.8256390 105.1992620 105.5143490  13.5263980
 105.8364840 106.1277630  13.8923170 105.3467510 105.5504150  12.5813210
 107.8155660 108.1767940   2.9343830 107.0207160 108.1113060   3.4636740
 108.0198940 109.1118580   2.9229180  91.0572280 105.4757800  12.9119660
  90.7087100 105.9321620  13.6777840  90.7259980 104.5814930  12.9942090
  98.5697100 106.6669680  16.4339080  98.5085990 107.2591510  17.1834490
  99.5097480 106.5595640  16.2889340 101.2071660 106.3239740  16.0731370
 101.8212070 106.6419030  15.4112450 101.7521220 105.8388330  16.6927230
  91.7292920 105.0034000  16.1870430  92.2775910 104.8222050  15.4236540
  91.7948230 104.2128110  16.7226740 101.9479700 104.8871880  12.4000660
 101.0739540 105.2206990  12.1973590 101.8390450 104.4145060  13.2252530
 102.8551680 107.0942750  13.7842380 102.5265040 106.2794510  13.4044110
 103.8033980 107.0512560  13.6608070  99.6954520 105.8041720  11.3393570
  98.9126310 106.2787220  11.6190330  99.4017450 104.8996550  11.2306750
 104.2475590 106.5064820   9.3842660 104.6883680 106.4509920   8.5364260
 103.9783180 107.4222830   9.4552840 106.1114160 106.1380060   7.3951480
 106.0502560 105.1941280   7.2482500 106.8906190 106.2460150   7.9404940
  91.0394930 106.1089200   3.8607290  91.7974290 106.2218080   3.2871320
  90.5772100 106.9458400   3.8150720  97.5808740 108.2228470   6.8509600
  96.7683250 107.8485360   6.5105480  98.0850380 107.4673550   7.1530790
 102.0833720 104.8870920   8.0892670 102.6863090 105.4591130   8.5641190
 101.3426710 105.4510360   7.8666570 105.2268320 105.2892480   3.3632950
 105.4218950 106.1875930   3.6300380 104.4398190 105.0579560   3.8565900
  93.4120080 106.6353250   2.4009260  93.9412840 105.8483050   2.2717210
  94.0448400 107.3144440   2.6344790  95.6057920 106.3728390   5.4554650
  94.9760660 105.6715700   5.6224780  95.0663060 107.1332520   5.2387810
  95.7313480 105.6512370  17.8907140  95.4497750 106.1545970  17.1267960
  96.1133180 104.8534120  17.5249270 102.3328940 105.0665950  18.4687610
 102.2194390 105.3860560  19.3639130 103.1498680 105.4678460  18.1724890
 101.2387090  94.3114930 101.4783290 101.1581140  93.3969540 101.2075000
 100.8251510  94.8082000 100.7723000  99.3705130  96.0893950 103.3592560
  98.5947230  95.6094390 103.6491130 100.0218060  95.4099600 103.1848720
  93.3870960  96.4013760 104.2368320  92.5555840  96.1462470 104.6364830
  93.9951940  96.4724530 104.9726240 103.3912560 100.4954140 102.1391690
 102.9294090  99.7241380 102.4678860 104.2038110 100.5220210 102.6444140
  93.3672220 100.4353850 104.4326340  93.6700260  99.5451590 104.2536560
  94.1115810 100.9924070 104.2048590  91.7962910  91.3615650  98.0210710
  90.9079610  91.7031620  97.9190590  92.0804100  91.1615970  97.1291540
  89.7595920  93.9621300 103.9050410  90.3312030  93.1943500 103.9054050
  89.7597460  94.2610060 102.9957020  99.6175870 102.7812150 101.7595680
  98.9987310 103.2369650 101.1890120 100.4727650 102.9363610 101.3585380
  98.8114120  98.7651140 103.3662720  98.7422400  97.8241080 103.2051850
  99.5733980  98.8552550 103.9385290  91.0020790  89.3705660 105.6919340
  90.8223630  88.4731410 105.9722100  90.6000870  89.9177530 106.3666290
  99.8419290  91.5721520 103.5931650 100.2184110  90.6993400 103.4805320
  99.7438800  91.9080220 102.7022090  93.9724300  89.9447150  99.0549090
  94.0791050  90.8450880  99.3617850  93.0616660  89.8965120  98.7643740
 103.6243410  89.0671960 100.5259990 104.4453030  88.5768530 100.5685470
 103.6577490  89.6569620 101.2791830  91.6207460  91.8666160 104.3001680
  92.3017570  92.1304530 104.9189080  91.3055510  91.0267030 104.6339690
  95.8132030  92.9133520 103.3874270  96.3210250  93.4114490 104.0279290
  96.3445270  92.1368720 103.2113630 107.9142960  91.0838710 107.0903620
 107.2095130  91.4720420 106.5718730 108.1800880  91.7789000 107.6924550
  94.0968130  87.5532080 107.6537690  94.0986570  88.0704470 106.8483590
  93.2672440  87.0762260 107.6307620 100.4839220  97.6651390  99.1527590
  99.8656490  98.1300840  98.5890310 100.9962470  98.3578870  99.5697100
  95.3470980  97.1927260 105.8311190  95.0140360  97.8196180 106.4732260
  95.5237660  97.7189140 105.0512860 103.8604890  91.0072340 103.2987530
 103.1560460  91.2957230 103.8790640 104.2217050  91.8172450 102.9387090
  93.7783460  89.2642040 105.6608140  94.1200270  90.1084090 105.3662010
  92.8399270  89.4125780 105.7773480  94.5590080  99.1608060 107.6460370
  95.1764080  99.8359140 107.3644820  93.6983200  99.5696040 107.5547870
  89.8522420  98.3507920  96.5267220  89.4750400  98.8395020  95.7952120
  90.1095490  99.0233200  97.1573750 105.4767670 100.6247470 105.5615010
 104.7931190 101.2946580 105.5531680 106.0161960 100.8228120 104.7959870
 106.9291810  90.4527130 103.6896740 105.9816720  90.4866110 103.8212170
 107.2541800  91.2666080 104.0746100  97.4611350  86.7524310 101.9852730
  97.7686330  86.1971200 101.2688230  96.5312050  86.8868770 101.8025720
 103.0126410 102.4691600 104.2760190 103.0253570 102.0653890 103.4082450
 102.4601630 103.2438890 104.1721620 104.3071830  99.1907820  99.3650360
 104.1968160  98.2482150  99.4899780 104.3040080  99.5523460 100.2513120
 102.4111850  97.3721440 105.6042800 102.8280640  97.1581550 104.7696260
 103.1351670  97.6294230 106.1751420  99.8492110  94.8173140  98.7212850
  98.9221390  94.7510520  98.9501320 100.0016930  95.7553270  98.6068090
  99.8361190  91.0890140  95.7180010  98.8964860  91.2504100  95.8032470
 100.1544450  91.8075820  95.1716000 106.3573950  95.7708660 105.6959040
 105.5292580  95.8401750 105.2209170 106.9524430  96.3562970 105.2274870
 103.8789400  96.3793440  99.2248100 103.2601820  96.0412990  98.5774400
 103.8613850  95.7353200  99.9327290 103.3215960  92.5577980 106.6413910
 102.9087140  93.3831690 106.8953900 102.5891910  91.9723020 106.4490270
  95.4548750  95.3437880 101.5032580  95.0505750  94.6315130 101.0078480
  95.5411870  94.9991120 102.3920620  95.9230450  99.0305440 103.6671790
  95.6258740  98.4250910 102.9879570  96.8730270  99.0682750 103.5561150
  94.1677370  92.1181090 105.2831620  94.7191960  92.2276430 104.5084870
  94.6820880  92.4918690 105.9986850 104.0116060 102.6037310 107.3294890
 103.5346620 103.4109500 107.1367500 103.3277850 101.9515640 107.4821100
  95.0148880  98.7687130 110.3179590  94.1177410  98.9927100 110.5652990
  95.0401750  98.8922070 109.3690990 102.0554100  95.6180250  96.2320850
 102.4947380  94.7802680  96.0858670 102.7682520  96.2509650  96.3184990
  93.8420100  95.6400450 108.8936960  93.7027870  96.5123250 109.2624360
  92.9601460  95.2973260 108.7484900 100.1649480 100.5576320 100.2002090
 100.6045390 101.3000650  99.7857480 100.1036370 100.8002890 101.1241050
 105.6371240  86.8723060  94.5461890 105.3243900  86.9649890  95.4460960
 106.3983710  87.4504090  94.4959320  92.1553380  94.2382860  99.0039230
  92.0350980  94.9644950  98.3920500  91.8454270  93.4685770  98.5267140
  89.7938750  97.4098000 104.8107870  89.8719170  97.5446770 103.8663590
  90.4080430  96.7013890 105.0035990  91.0386380  99.1098190 101.2214050
  90.6314460  99.2512780 100.3667650  91.9299390  98.8258350 101.0185260
 106.9948520  99.5562100 109.5586290 107.1211580  99.3173980 108.6403470
 107.0369900  98.7246640 110.0308370 100.8565260 103.2590100 108.1281100
 101.3709930 103.1698110 108.9303530 100.0134340 103.6049800 108.4209010
 102.8319660 103.5445440  97.5565100 102.6720800 103.2548380  98.4546930
 102.6666370 102.7685570  97.0210330  95.3108040 103.3243970  99.3336720
  95.1350520 102.4079510  99.1204520  94.4563780 103.6831260  99.5734520
 102.5345790 101.0533000  96.1163100 101.8410950 101.0510290  95.4565380
 103.2768650 100.6292320  95.6857270 102.0995720 102.6795710 100.1911590
 102.5552670 101.8985090 100.5050210 102.4388240 103.3902530 100.7352770
 106.8472530  91.6094560 110.5236030 106.2316800  92.1174230 109.9951490
 106.5268950  90.7092890 110.4661970  89.8498270  98.4512170 107.3502330
  90.0129310  97.9817530 106.5321700  90.3150720  97.9435730 108.0151170
  94.6217040  87.5817930 102.3862900  94.1785190  88.3627470 102.0547420
  95.1802030  87.9047820 103.0933840  98.9086850  90.4486450 107.9898220
  98.4466220  90.6569470 108.8018160  98.5064960  89.6345800 107.6868890
 103.9091360  91.6695400 109.1194880 103.0584950  91.3701150 109.4403950
 103.7493150  91.9137410 108.2078700  97.7375860  87.2028630  97.2668730
  97.1130040  87.1988500  97.9922040  97.6505980  86.3359590  96.8704700
  96.6592940  88.1265260 104.2452500  96.9565270  89.0328090 104.1644520
  97.2078500  87.6384040 103.6312070  94.4131260  92.7051500 100.1144150
  94.1872180  92.4888670 101.0190770  93.6323790  93.1379960  99.7690120
 101.6429020  92.7114870  98.7134800 101.0437910  93.4350670  98.5298420
 102.1908630  92.6491650  97.9311250  96.8530470  93.6037080 110.7804420
  96.7574070  92.6631810 110.6304820  97.6962450  93.8252150 110.3852490
 100.2493890  91.3478410 100.7438080 100.6423460  91.6650610  99.9306770
 100.6110740  90.4690290 100.8582600  91.9841010  90.0150750 108.9338200
  91.5904400  90.8625960 109.1410980  91.2959410  89.3777120 109.1246840
  89.2858060  87.9379210 102.9668280  88.9971110  88.5082070 103.6793260
  90.0303820  87.4583660 103.3299510  89.4728290  91.8799330  94.1771000
  89.3902960  92.8230090  94.3185990  89.1211350  91.7374240  93.2983350
 100.8349030  93.9384160 104.8388860 100.1030150  94.4470970 105.1878960
 100.4373370  93.1214140 104.5377640  97.2726420  90.6138360 103.2441350
  97.2762480  90.1728310 102.3945890  98.1677540  90.9355690 103.3513170
  93.1228800  90.4964850 102.2035560  92.7828850  90.9740080 102.9602610
  92.3606120  90.0429970 101.8436660  97.3346570  91.6150440  96.2348110
  97.4559390  91.5736920  97.1833930  96.9495080  92.4774590  96.0794840
 101.2974940  89.3917840 104.2511800 101.3147680  89.8426490 105.0953650
 101.0490520  88.4923480 104.4645240  96.3468070  93.9251580  95.6331410
  95.7784970  93.4769830  95.0067320  97.0557070  94.2844360  95.0996560
 104.7245690  86.8050020 110.0898180 105.0491460  86.0739680 110.6156160
 104.7602200  86.4863660 109.1879170  91.4237250  97.8263600 109.5098140
  91.0392040  97.1857270 110.1081100  91.7349440  98.5299720 110.0792870
  97.5734390  94.6740140 104.9906760  97.9404520  94.1998710 105.7368100
  97.3839450  95.5481710 105.3315100  90.4374880  89.4183830 101.1200230
  90.1521800  89.0539500 101.9578850  90.3753740  88.6864290 100.5063370
  95.3633760  93.7148780 107.3090970  95.0590830  94.5940760 107.5341330
  96.3180220  93.7748570 107.3448410  93.8915550  97.9209770  97.9057820
  93.1177810  97.3807390  97.7456540  94.6210180  97.4016380  97.5675580
 104.6503530  96.9175130 103.6984210 105.3702650  97.4130420 103.3080320
 104.4485350  96.2393020 103.0538080 100.1113470  88.3113090  97.8413600
  99.2978080  87.8126260  97.7658910  99.9175420  89.1511340  97.4249950
 100.0322330  96.9884190 109.5853210  99.9659640  96.0679860 109.3310800
  99.4027470  97.0859630 110.2997850 102.8261860  92.6832740  96.1375760
 103.7141480  92.9949970  95.9627100 102.7966950  91.8104990  95.7456340
  93.9352950  97.5890150 101.5436630  94.4531620  96.7858410 101.4893520
  93.4836970  97.5269290 102.3853460  98.8222450  98.8556430  96.8163930
  99.1638150  99.5998660  96.3207250  97.9935160  99.1687550  97.1788760
  91.4197490  94.5551520 108.4562330  91.0612430  95.2205370 109.0435670
  91.1252050  93.7235070 108.8274950  99.9639060  99.8104760 109.3357010
  99.9783600  98.8785720 109.1175920  99.2564160  99.8964520 109.9746780
 105.0976130  93.9944580  95.6055620 105.0139850  94.4258800  94.7552060
 105.8170320  94.4542930  96.0382440 106.1750270  96.4512100 108.6825590
 105.4498460  97.0440880 108.4854980 106.7025730  96.4435640 107.8838960
 106.1263380 100.8486840  98.3337750 105.4839540 100.1942460  98.6081470
 105.7394040 101.2541930  97.5578420 101.7049860  98.1772270 102.1809440
 102.0573680  97.5800400 101.5210810 100.8212190  97.8516500 102.3517690
  97.7913140  98.9369960  99.5879850  98.4784270  99.4839170  99.9687440
  97.0045560  99.4810690  99.6229460  89.9305540  94.5542780  95.0796930
  90.8000390  94.8367580  95.3632850  89.4395860  95.3678650  94.9645740
  97.0940350  95.9415990  99.2005210  97.5503130  96.7521240  99.4265400
  96.7428560  95.6239130 100.0323700  99.3972960 101.4522330 106.4297510
 100.0415180 101.6581710 107.1070930  99.7602400 100.6910730 105.9768360
  92.9952130  86.2853640  99.6727730  92.8666760  86.2771540 100.6212650
  92.1714150  86.6236730  99.3218740 100.6705040  99.4554680 105.1474960
 101.3127270  98.7547840 105.2607130 101.1954390 100.2353120 104.9671850
 104.5160760  99.7403300  94.8714100 104.2898340  99.0233740  95.4638740
 104.1256960  99.4915740  94.0335850 102.4442660 100.2549580 108.3511020
 102.7798900 100.8416270 109.0288940 101.5243000 100.1242290 108.5808810
  90.2976790 103.7670160  95.6458560  90.6574430 104.3659500  94.9915830
  90.1569130 104.3130050  96.4193590  89.9946060  88.0444760 109.1334430
  89.2804580  88.2441680 109.7387040  90.4141100  87.2684330 109.5049230
 104.0977010  97.6575240  96.5328260 103.8098710  98.1187930  97.3206140
 104.8929180  97.1973010  96.8012480  90.2818650 102.0325020 110.1200960
  90.3909770 101.0919760 109.9796350  89.6299210 102.2979770 109.4714690
  96.3145410 101.1501360  96.4632230  96.3055510 101.8831050  95.8476740
  95.3943770 100.9032940  96.5559190  91.9152050  96.3716250  97.2078990
  91.3080000  97.1115150  97.2174290  92.3901400  96.4615610  96.3817190
 101.4884840  90.5367070 106.8835880 101.8565660  89.7162280 107.2115450
 100.6283040  90.5968960 107.2991530 104.8546870  89.4924010  97.6923440
 104.2260030  89.5969680  96.9781670 104.3598790  89.7120790  98.4817320
  99.3005010 101.2129600  95.1257420  99.4016990 101.0093590  94.1959400
  98.4006750 100.9587880  95.3305200  96.8230900  91.7709960  99.1081320
  96.1147050  92.2396300  99.5494930  97.1075380  91.1131970  99.7426510
  98.4486830  93.1906660 107.1073850  98.9472080  93.6652480 107.7725700
  98.5909780  92.2670180 107.3143880 100.8546330  88.4960620 100.5477110
 100.7314110  88.5146750  99.5986620 101.8030890  88.5439560 100.6675510
  97.9423120 103.7315920  99.8205090  98.1964620 103.6937310  98.8984460
  96.9935600 103.6049250  99.8133340  95.0265920  90.0795040  96.4832030
  95.8756450  90.5165190  96.4172220  94.6597190  90.3915300  97.3104090
 105.6553690  89.4074620 107.9502240 105.1527290  90.1480020 108.2896050
 106.4710350  89.7958620 107.6339030 103.9475700  94.6507800 101.3963600
 103.0065840  94.6658030 101.5711290 104.2619770  93.8643760 101.8423900
  93.9257340  96.3327400  94.9567560  94.6920610  96.2208760  95.5192990
  94.0032030  95.6365370  94.3044330  92.6204100  93.7652470  95.6400450
  92.7007690  92.8179980  95.7517850  93.5123850  94.0959350  95.7461110
 105.9501280 101.8216650 103.0717860 106.0748700 102.6447820 103.5441670
 106.8166840 101.6107380 102.7242010  93.4218810 103.9147860 102.7434990
  94.1581290 103.3663320 103.0143560  93.8059730 104.7803870 102.6040980
  90.3064290  99.9821430  98.6176500  89.3804070 100.2242570  98.6081910
  90.7720720 100.8095690  98.4961250  96.5321120 103.0878170  94.5660560
  97.3249730 103.3767000  94.1142350  96.0125470 102.6570340  93.8873040
 105.5851290 102.3148300  95.9897300 105.2992800 101.9013440  95.1751480
 105.3870840 103.2436010  95.8697820  97.0498520  98.3081580  94.4302910
  96.9449160  97.6933930  95.1564290  96.8822740  97.7847470  93.6465920
  97.2012840  96.9938380 110.4092140  96.4358510  97.5623380 110.3246810
  97.3828800  96.7014590 109.5160370 100.2901250  97.3701610  95.0344900
  99.7411350  97.8170910  95.6787640 100.9120510  96.8650860  95.5582570
 104.3436190  98.7243710 110.9667160 105.0845660  99.0619470 110.4634620
 103.5808870  98.8935770 110.4136930  95.9576370  96.3292530  96.9310200
  96.3792790  96.1632400  97.7741590  96.0827210  95.5192760  96.4365340
  94.1203790  92.3089080 109.7381180  93.5900250  91.8180030 109.1104520
  94.7891860  92.7373280 109.2039110  98.4704010  95.3530140  94.1787300
  98.9909670  94.6379160  93.8128450  99.1172410  95.9916010  94.4787810
 103.0181850  96.7758540 109.5022370 103.4322870  96.9303620 110.3512790
 102.0832850  96.9013760 109.6648150  94.6076090  89.2751450 109.8178470
  94.5132960  88.6572200 109.0929340  94.0273480  90.0017740 109.5908380
  97.3737530  87.8324690 106.8505860  96.9254830  87.8548950 106.0051410
  96.7402730  87.4343710 107.4476160  97.7797080  96.7279020 107.4718300
  98.1985190  97.5711750 107.2994540  96.8605710  96.8651060 107.2425080
 100.1160980  94.4595200 108.8556140 100.2357190  93.8636340 109.5950980
 100.9754980  94.4964890 108.4357440 102.4548880  95.0132390 107.4318650
 101.9284100  95.5375010 106.8283790 102.7980220  95.6459780 108.0628380
  94.8535270  92.4025760  93.8768360  94.6524330  91.5393120  94.2381700
  94.6827320  92.3159120  92.9389960  95.6304500 103.0332030 108.5876030
  95.0925590 103.7578090 108.2684730  95.8838460 102.5562370 107.7973370
  96.8829750  91.0016550 110.1131960  97.4729440  90.6932400 110.8009780
  96.0649990  90.5296300 110.2691860 101.7023180  90.6182360 110.3464980
 101.0138700  89.9563900 110.2814970 102.4229200  90.1720630 110.7913440
 102.3323580  87.2133990  96.4055240 102.6125870  86.3701890  96.7614660
 101.5589310  87.4457100  96.9193990  93.6518070  89.5026380  93.8646240
  93.9543970  89.5093810  92.9565390  94.3912660  89.1524240  94.3613900
  98.4866710 104.2683240 108.8462680  98.4125410 105.1718380 109.1535050
  97.5845550 103.9495140 108.8184750  96.8703000  88.4461000  94.8502440
  96.5225000  87.7684990  94.2704890  97.0715770  87.9850510  95.6645830
  99.0352040 103.4341750  96.4689040  99.9302830 103.7726720  96.4907800
  99.0669670 102.7121160  95.8413320  92.6748200  98.8068800  94.6976040
  93.1123070  99.3498470  95.3533620  93.1595930  97.9815750  94.7072380
  89.8894000 101.5957830 102.1496300  90.2197010 100.7278890 101.9174940
  90.3185000 101.8016350 102.9801260  94.4855920  99.9266840  99.8098270
  94.1851460  99.8031810 100.7102180  94.3793410  99.0675430  99.4014000
  90.3784210 102.4628420 104.8877930  89.9415200 102.6429220 105.7202080
  90.9461890 103.2203040 104.7459650 106.0146390 101.9645420 109.1755240
 105.4148380 102.0237980 108.4319160 106.1440290 101.0250400 109.3052090
 107.2547840  99.7063240  94.5124950 106.4240800  99.7739890  94.9832180
 107.4319670 100.5967360  94.2091810 106.7104300  96.4510720  97.0159150
 107.4723210  97.0207370  97.1218840 106.7258670  95.8837920  97.7867460
  90.2108640  94.9748650 101.2466810  89.5557480  94.7060290 100.6026510
  91.0486590  94.8653130 100.7968790 107.7164270  97.3060820 101.8601080
 108.0873100  96.5228140 101.4537050 108.3566200  97.9949920 101.6818380
 104.6998030  98.6897400 107.2731400 103.8857870  99.1194560 107.5357190
 105.1072230  99.3015810 106.6600450 106.7623470  96.7445090  94.1731670
 107.0372310  97.6523970  94.0450890 106.5734210  96.6807620  95.1093660
 103.1599080  89.7689940  95.4685300 103.5783960  89.5820920  94.6281960
 102.8535140  88.9168990  95.7788230 106.6588810  94.6814080  99.1661100
 106.2832410  93.9142010  98.7342390 105.9291930  95.0636780  99.6536030
  91.2484570  95.3601220 105.7870150  91.6157610  95.2728620 106.6666170
  90.6795390  94.5967770 105.6877010 106.0488430  93.8285600 108.8000620
 105.8174520  93.5998350 107.8998570 106.3092980  94.7485150 108.7545510
  90.8000570  92.2710310 109.6928570  89.9056620  92.2377070 110.0322280
  91.3398120  92.4697100 110.4579820  89.4246720  92.1847580  97.1892140
  88.5210800  92.4477780  97.0143800  89.9087340  92.4558750  96.4092100
 105.9339770  92.9071570 102.4668340 106.4577250  92.4134220 101.8358510
 106.5199190  93.0421930 103.2115910 106.1129490  92.9911440 105.9887890
 105.1632200  92.9574980 106.1032880 106.2942500  93.9011550 105.7537660
  91.9673930  91.2413120  95.0986520  92.6765630  90.8196340  94.6133800
  91.2513870  91.3088350  94.4669870  91.6148090  87.2952450  94.1389170
  92.3376220  87.8361390  94.4570390  91.8872610  87.0215870  93.2630710
 105.4239740  92.1644920  98.4060750 105.9198860  91.9315790  99.1909630
 105.2255810  91.3256760  97.9898390  91.3040280  86.5458640 104.0411790
  91.9516470  85.9956020 103.6006950  91.7242120  86.8001790 104.8627600
 106.8526900  90.8005870 100.9398430 106.7426180  90.6461910 101.8780700
 107.6134490  90.2726810 100.6973840 105.1992620  86.7400000 107.3981430
 105.8364840  87.3534140 107.7640620 105.3467510  86.7760660 106.4530660
 107.7417170  88.6313790  94.1804570 108.6666480  88.4994970  93.9722860
 107.7192960  88.7106610  95.1341020 107.8155660  89.4024450  96.8061280
 107.0207160  89.3369570  97.3354190 108.0198940  90.3375090  96.7946630
 104.7574080 103.4416000 100.7999670 105.3533150 103.1200570 100.1234090
 105.0152230 102.9687820 101.5912940  91.0572280  86.7014310 106.7837110
  90.7087100  87.1578130 107.5495290  90.7259980  85.8071440 106.8659540
  96.3642680 101.4293500 106.5500020  96.1234040 101.6968060 105.6630540
  97.3045320 101.5999230 106.6050880 101.2071660  87.5496250 109.9448820
 101.8212070  87.8675540 109.2829900 101.7521220  87.0644840 110.5644680
 107.6246840 103.4487880 107.3510660 107.1305120 103.8456750 106.6337790
 107.0160130 102.8237090 107.7447940  91.7292920  86.2290510 110.0587880
  92.2775910  86.0478560 109.2953990  91.7948230  85.4384620 110.5944190
  92.5024680 102.8196160 108.0688080  91.9085000 102.6880860 108.8078120
  92.4948520 101.9834300 107.6030180 101.9479700  86.1128390 106.2718110
 101.0739540  86.4463500 106.0691040 101.8390450  85.6401570 107.0969980
 102.8551680  88.3199260 107.6559830 102.5265040  87.5051020 107.2761560
 103.8033980  88.2769070 107.5325520 105.3086290 104.0911300 104.6297400
 104.8489260 104.8427110 104.2555420 104.6798750 103.3717770 104.5712200
  92.1336910 100.1854540 107.0196120  91.4070970  99.5659830 106.9522070
  92.1946060 100.5795150 106.1494200  95.7382010 102.3999540 103.8045530
  96.2547030 101.7886900 103.2793790  96.3879390 102.9028320 104.2956540
  98.4777510 103.2908030 104.6314510  98.7655320 103.0362330 103.7547520
  98.9900730 102.7385390 105.2220080  99.6954520  87.0298230 105.2111020
  98.9126310  87.5043730 105.4907780  99.4017450  86.1253060 105.1024200
 104.2475590  87.7321330 103.2560110 104.6883680  87.6766430 102.4081710
 103.9783180  88.6479340 103.3270290 106.1114160  87.3636570 101.2668930
 106.0502560  86.4197790 101.1199950 106.8906190  87.4716660 101.8122390
  90.4166910 103.5028930 100.2292880  90.2488950 102.8699610 100.9274770
  89.5501420 103.7088330  99.8787070  91.0394930  87.3345710  97.7324740
  91.7974290  87.4474590  97.1588770  90.5772100  88.1714910  97.6868170
  97.5808740  89.4484980 100.7227050  96.7683250  89.0741870 100.3822930
  98.0850380  88.6930060 101.0248240 102.0833720  86.1127430 101.9610120
 102.6863090  86.6847640 102.4358640 101.3426710  86.6766870 101.7384020
 105.2268320  86.5148990  97.2350400 105.4218950  87.4132440  97.5017830
 104.4398190  86.2836070  97.7283350  92.0229610 102.1962160  97.6743020
  91.4977230 102.5770190  96.9704980  91.9474190 102.8212930  98.3952730
  93.4120080  87.8609760  96.2726710  93.9412840  87.0739560  96.1434660
  94.0448400  88.5400950  96.5062240  95.6057920  87.5984900  99.3272100
  94.9760660  86.8972210  99.4942230  95.0663060  88.3589030  99.1105260
 106.7794930 103.7549700  98.9956960 106.9547120 103.0687440  98.3517880
 106.0816500 104.2796750  98.6033630  94.6222580 104.1444540  96.5492270
  95.3541400 103.8603820  96.0016160  94.8816250 103.9057820  97.4391650
  93.7837370 100.2609270  96.5538600  93.1546250 100.7294370  97.1024430
  93.8985200  99.4158490  96.9884790 101.2387090  94.3114930  82.7039800
 101.1581140  93.3969540  82.4331510 100.8251510  94.8082000  81.9979510
  99.3705130  96.0893950  84.5849070  98.5947230  95.6094390  84.8747640
 100.0218060  95.4099600  84.4105230  93.3870960  96.4013760  85.4624830
  92.5555840  96.1462470  85.8621340  93.9951940  96.4724530  86.1982750
 103.3912560 100.4954140  83.3648200 102.9294090  99.7241380  83.6935370
 104.2038110 100.5220210  83.8700650  93.3672220 100.4353850  85.6582850
  93.6700260  99.5451590  85.4793070  94.1115810 100.9924070  85.4305100
  91.7962910  91.3615650  79.2467220  90.9079610  91.7031620  79.1447100
  92.0804100  91.1615970  78.3548050  89.7595920  93.9621300  85.1306920
  90.3312030  93.1943500  85.1310560  89.7597460  94.2610060  84.2213530
  99.6175870 102.7812150  82.9852190  98.9987310 103.2369650  82.4146630
 100.4727650 102.9363610  82.5841890  98.8114120  98.7651140  84.5919230
  98.7422400  97.8241080  84.4308360  99.5733980  98.8552550  85.1641800
  91.0020790  89.3705660  86.9175850  90.8223630  88.4731410  87.1978610
  90.6000870  89.9177530  87.5922800  99.8419290  91.5721520  84.8188160
 100.2184110  90.6993400  84.7061830  99.7438800  91.9080220  83.9278600
  93.9724300  89.9447150  80.2805600  94.0791050  90.8450880  80.5874360
  93.0616660  89.8965120  79.9900250 103.6243410  89.0671960  81.7516500
 104.4453030  88.5768530  81.7941980 103.6577490  89.6569620  82.5048340
  91.6207460  91.8666160  85.5258190  92.3017570  92.1304530  86.1445590
  91.3055510  91.0267030  85.8596200  95.8132030  92.9133520  84.6130780
  96.3210250  93.4114490  85.2535800  96.3445270  92.1368720  84.4370140
 107.9142960  91.0838710  88.3160130 107.2095130  91.4720420  87.7975240
 108.1800880  91.7789000  88.9181060  94.0968130  87.5532080  88.8794200
  94.0986570  88.0704470  88.0740100  93.2672440  87.0762260  88.8564130
 100.4839220  97.6651390  80.3784100  99.8656490  98.1300840  79.8146820
 100.9962470  98.3578870  80.7953610  95.3470980  97.1927260  87.0567700
  95.0140360  97.8196180  87.6988770  95.5237660  97.7189140  86.2769370
 103.8604890  91.0072340  84.5244040 103.1560460  91.2957230  85.1047150
 104.2217050  91.8172450  84.1643600  93.7783460  89.2642040  86.8864650
  94.1200270  90.1084090  86.5918520  92.8399270  89.4125780  87.0029990
  94.5590080  99.1608060  88.8716880  95.1764080  99.8359140  88.5901330
  93.6983200  99.5696040  88.7804380  89.8522420  98.3507920  77.7523730
  89.4750400  98.8395020  77.0208630  90.1095490  99.0233200  78.3830260
 105.4767670 100.6247470  86.7871520 104.7931190 101.2946580  86.7788190
 106.0161960 100.8228120  86.0216380 106.9291810  90.4527130  84.9153250
 105.9816720  90.4866110  85.0468680 107.2541800  91.2666080  85.3002610
  97.4611350  86.7524310  83.2109240  97.7686330  86.1971200  82.4944740
  96.5312050  86.8868770  83.0282230 103.0126410 102.4691600  85.5016700
 103.0253570 102.0653890  84.6338960 102.4601630 103.2438890  85.3978130
 104.3071830  99.1907820  80.5906870 104.1968160  98.2482150  80.7156290
 104.3040080  99.5523460  81.4769630 102.4111850  97.3721440  86.8299310
 102.8280640  97.1581550  85.9952770 103.1351670  97.6294230  87.4007930
  99.8492110  94.8173140  79.9469360  98.9221390  94.7510520  80.1757830
 100.0016930  95.7553270  79.8324600  99.8361190  91.0890140  76.9436520
  98.8964860  91.2504100  77.0288980 100.1544450  91.8075820  76.3972510
 106.3573950  95.7708660  86.9215550 105.5292580  95.8401750  86.4465680
 106.9524430  96.3562970  86.4531380 103.8789400  96.3793440  80.4504610
 103.2601820  96.0412990  79.8030910 103.8613850  95.7353200  81.1583800
 103.3215960  92.5577980  87.8670420 102.9087140  93.3831690  88.1210410
 102.5891910  91.9723020  87.6746780  95.4548750  95.3437880  82.7289090
  95.0505750  94.6315130  82.2334990  95.5411870  94.9991120  83.6177130
  95.9230450  99.0305440  84.8928300  95.6258740  98.4250910  84.2136080
  96.8730270  99.0682750  84.7817660  94.1677370  92.1181090  86.5088130
  94.7191960  92.2276430  85.7341380  94.6820880  92.4918690  87.2243360
 104.0116060 102.6037310  88.5551400 103.5346620 103.4109500  88.3624010
 103.3277850 101.9515640  88.7077610  95.0148880  98.7687130  91.5436100
  94.1177410  98.9927100  91.7909500  95.0401750  98.8922070  90.5947500
 102.0554100  95.6180250  77.4577360 102.4947380  94.7802680  77.3115180
 102.7682520  96.2509650  77.5441500  93.8420100  95.6400450  90.1193470
  93.7027870  96.5123250  90.4880870  92.9601460  95.2973260  89.9741410
 100.1649480 100.5576320  81.4258600 100.6045390 101.3000650  81.0113990
 100.1036370 100.8002890  82.3497560  95.6400450 101.5822150  92.3278620
  95.6115880 101.9865100  91.4607050  95.4765420 100.6532510  92.1650220
 105.6371240  86.8723060  75.7718400 105.3243900  86.9649890  76.6717470
 106.3983710  87.4504090  75.7215830  92.1553380  94.2382860  80.2295740
  92.0350980  94.9644950  79.6177010  91.8454270  93.4685770  79.7523650
 107.5915270 102.3649250  93.6242790 108.0674990 102.8432140  94.3031870
 108.2122430 102.2966740  92.8988290  89.7938750  97.4098000  86.0364380
  89.8719170  97.5446770  85.0920100  90.4080430  96.7013890  86.2292500
  91.0386380  99.1098190  82.4470560  90.6314460  99.2512780  81.5924160
  91.9299390  98.8258350  82.2441770 106.9948520  99.5562100  90.7842800
 107.1211580  99.3173980  89.8659980 107.0369900  98.7246640  91.2564880
 100.8565260 103.2590100  89.3537610 101.3709930 103.1698110  90.1560040
 100.0134340 103.6049800  89.6465520 102.8319660 103.5445440  78.7821610
 102.6720800 103.2548380  79.6803440 102.6666370 102.7685570  78.2466840
  95.3108040 103.3243970  80.5593230  95.1350520 102.4079510  80.3461030
  94.4563780 103.6831260  80.7991030 102.5345790 101.0533000  77.3419610
 101.8410950 101.0510290  76.6821890 103.2768650 100.6292320  76.9113780
 102.0995720 102.6795710  81.4168100 102.5552670 101.8985090  81.7306720
 102.4388240 103.3902530  81.9609280 106.8472530  91.6094560  91.7492540
 106.2316800  92.1174230  91.2208000 106.5268950  90.7092890  91.6918480
  89.8498270  98.4512170  88.5758840  90.0129310  97.9817530  87.7578210
  90.3150720  97.9435730  89.2407680  94.6217040  87.5817930  83.6119410
  94.1785190  88.3627470  83.2803930  95.1802030  87.9047820  84.3190350
  98.9086850  90.4486450  89.2154730  98.4466220  90.6569470  90.0274670
  98.5064960  89.6345800  88.9125400 103.9091360  91.6695400  90.3451390
 103.0584950  91.3701150  90.6660460 103.7493150  91.9137410  89.4335210
 101.0041070  93.1697150  92.4450180 101.3294480  92.3360900  92.1052410
 101.7921400  93.6925670  92.5928510  97.7375860  87.2028630  78.4925240
  97.1130040  87.1988500  79.2178550  97.6505980  86.3359590  78.0961210
  96.6592940  88.1265260  85.4709010  96.9565270  89.0328090  85.3901030
  97.2078500  87.6384040  84.8568580  94.4131260  92.7051500  81.3400660
  94.1872180  92.4888670  82.2447280  93.6323790  93.1379960  80.9946630
 101.6429020  92.7114870  79.9391310 101.0437910  93.4350670  79.7554930
 102.1908630  92.6491650  79.1567760  96.8530470  93.6037080  92.0060930
  96.7574070  92.6631810  91.8561330  97.6962450  93.8252150  91.6109000
 100.2493890  91.3478410  81.9694590 100.6423460  91.6650610  81.1563280
 100.6110740  90.4690290  82.0839110  91.9841010  90.0150750  90.1594710
  91.5904400  90.8625960  90.3667490  91.2959410  89.3777120  90.3503350
  98.5586060  90.0985720  93.2291450  97.8684380  89.9057920  93.8637540
  99.3018360  90.3820360  93.7615750  89.2858060  87.9379210  84.1924790
  88.9971110  88.5082070  84.9049770  90.0303820  87.4583660  84.5556020
  89.4728290  91.8799330  75.4027510  89.3902960  92.8230090  75.5442500
  89.1211350  91.7374240  74.5239860 100.8349030  93.9384160  86.0645370
 100.1030150  94.4470970  86.4135470 100.4373370  93.1214140  85.7634150
  97.2726420  90.6138360  84.4697860  97.2762480  90.1728310  83.6202400
  98.1677540  90.9355690  84.5769680  93.1228800  90.4964850  83.4292070
  92.7828850  90.9740080  84.1859120  92.3606120  90.0429970  83.0693170
  97.3346570  91.6150440  77.4604620  97.4559390  91.5736920  78.4090440
  96.9495080  92.4774590  77.3051350 101.2974940  89.3917840  85.4768310
 101.3147680  89.8426490  86.3210160 101.0490520  88.4923480  85.6901750
  96.3468070  93.9251580  76.8587920  95.7784970  93.4769830  76.2323830
  97.0557070  94.2844360  76.3253070 104.7245690  86.8050020  91.3154690
 105.0491460  86.0739680  91.8412670 104.7602200  86.4863660  90.4135680
  91.4237250  97.8263600  90.7354650  91.0392040  97.1857270  91.3337610
  91.7349440  98.5299720  91.3049380  97.5734390  94.6740140  86.2163270
  97.9404520  94.1998710  86.9624610  97.3839450  95.5481710  86.5571610
  90.4374880  89.4183830  82.3456740  90.1521800  89.0539500  83.1835360
  90.3753740  88.6864290  81.7319880  95.3633760  93.7148780  88.5347480
  95.0590830  94.5940760  88.7597840  96.3180220  93.7748570  88.5704920
  93.8915550  97.9209770  79.1314330  93.1177810  97.3807390  78.9713050
  94.6210180  97.4016380  78.7932090 104.6503530  96.9175130  84.9240720
 105.3702650  97.4130420  84.5336830 104.4485350  96.2393020  84.2794590
 100.1113470  88.3113090  79.0670110  99.2978080  87.8126260  78.9915420
  99.9175420  89.1511340  78.6506460 100.0322330  96.9884190  90.8109720
  99.9659640  96.0679860  90.5567310  99.4027470  97.0859630  91.5254360
 102.8261860  92.6832740  77.3632270 103.7141480  92.9949970  77.1883610
 102.7966950  91.8104990  76.9712850  93.9352950  97.5890150  82.7693140
  94.4531620  96.7858410  82.7150030  93.4836970  97.5269290  83.6109970
  98.8222450  98.8556430  78.0420440  99.1638150  99.5998660  77.5463760
  97.9935160  99.1687550  78.4045270  91.4197490  94.5551520  89.6818840
  91.0612430  95.2205370  90.2692180  91.1252050  93.7235070  90.0531460
  94.6210610  95.0135760  92.5658390  94.3210750  95.1592940  91.6686210
  95.3921850  94.4541050  92.4731780  99.9639060  99.8104760  90.5613520
  99.9783600  98.8785720  90.3432430  99.2564160  99.8964520  91.2003290
 105.0976130  93.9944580  76.8312130 105.0139850  94.4258800  75.9808570
 105.8170320  94.4542930  77.2638950 106.1750270  96.4512100  89.9082100
 105.4498460  97.0440880  89.7111490 106.7025730  96.4435640  89.1095470
 106.1263380 100.8486840  79.5594260 105.4839540 100.1942460  79.8337980
 105.7394040 101.2541930  78.7834930 101.7049860  98.1772270  83.4065950
 102.0573680  97.5800400  82.7467320 100.8212190  97.8516500  83.5774200
  97.7913140  98.9369960  80.8136360  98.4784270  99.4839170  81.1943950
  97.0045560  99.4810690  80.8485970  89.9305540  94.5542780  76.3053440
  90.8000390  94.8367580  76.5889360  89.4395860  95.3678650  76.1902250
  97.0940350  95.9415990  80.4261720  97.5503130  96.7521240  80.6521910
  96.7428560  95.6239130  81.2580210  99.3972960 101.4522330  87.6554020
 100.0415180 101.6581710  88.3327440  99.7602400 100.6910730  87.2024870
  92.9952130  86.2853640  80.8984240  92.8666760  86.2771540  81.8469160
  92.1714150  86.6236730  80.5475250 100.6705040  99.4554680  86.3731470
 101.3127270  98.7547840  86.4863640 101.1954390 100.2353120  86.1928360
 104.5160760  99.7403300  76.0970610 104.2898340  99.0233740  76.6895250
 104.1256960  99.4915740  75.2592360 102.4442660 100.2549580  89.5767530
 102.7798900 100.8416270  90.2545450 101.5243000 100.1242290  89.8065320
  90.2976790 103.7670160  76.8715070  90.6574430 104.3659500  76.2172340
  90.1569130 104.3130050  77.6450100  89.9946060  88.0444760  90.3590940
  89.2804580  88.2441680  90.9643550  90.4141100  87.2684330  90.7305740
 104.0977010  97.6575240  77.7584770 103.8098710  98.1187930  78.5462650
 104.8929180  97.1973010  78.0268990  90.2818650 102.0325020  91.3457470
  90.3909770 101.0919760  91.2052860  89.6299210 102.2979770  90.6971200
  98.2731240 100.3040910  92.7455590  97.9528110  99.5850150  93.2901280
  97.5989600 100.9795980  92.8191650  96.3145410 101.1501360  77.6888740
  96.3055510 101.8831050  77.0733250  95.3943770 100.9032940  77.7815700
  91.9152050  96.3716250  78.4335500  91.3080000  97.1115150  78.4430800
  92.3901400  96.4615610  77.6073700 101.4884840  90.5367070  88.1092390
 101.8565660  89.7162280  88.4371960 100.6283040  90.5968960  88.5248040
 104.8546870  89.4924010  78.9179950 104.2260030  89.5969680  78.2038180
 104.3598790  89.7120790  79.7073830  99.3005010 101.2129600  76.3513930
  99.4016990 101.0093590  75.4215910  98.4006750 100.9587880  76.5561710
  96.8230900  91.7709960  80.3337830  96.1147050  92.2396300  80.7751440
  97.1075380  91.1131970  80.9683020  98.4486830  93.1906660  88.3330360
  98.9472080  93.6652480  88.9982210  98.5909780  92.2670180  88.5400390
 100.8546330  88.4960620  81.7733620 100.7314110  88.5146750  80.8243130
 101.8030890  88.5439560  81.8932020  97.9423120 103.7315920  81.0461600
  98.1964620 103.6937310  80.1240970  96.9935600 103.6049250  81.0389850
  95.0265920  90.0795040  77.7088540  95.8756450  90.5165190  77.6428730
  94.6597190  90.3915300  78.5360600 105.6553690  89.4074620  89.1758750
 105.1527290  90.1480020  89.5152560 106.4710350  89.7958620  88.8595540
 103.9475700  94.6507800  82.6220110 103.0065840  94.6658030  82.7967800
 104.2619770  93.8643760  83.0680410  93.9257340  96.3327400  76.1824070
  94.6920610  96.2208760  76.7449500  94.0032030  95.6365370  75.5300840
  92.6204100  93.7652470  76.8656960  92.7007690  92.8179980  76.9774360
  93.5123850  94.0959350  76.9717620 105.9501280 101.8216650  84.2974370
 106.0748700 102.6447820  84.7698180 106.8166840 101.6107380  83.9498520
  93.4218810 103.9147860  83.9691500  94.1581290 103.3663320  84.2400070
  93.8059730 104.7803870  83.8297490  90.3064290  99.9821430  79.8433010
  89.3804070 100.2242570  79.8338420  90.7720720 100.8095690  79.7217760
  92.4277090 103.0993930  93.1577080  93.2289820 103.4205980  93.5712480
  91.9128910 102.7389510  93.8796990  96.5321120 103.0878170  75.7917070
  97.3249730 103.3767000  75.3398860  96.0125470 102.6570340  75.1129550
 101.2641720  99.2073800  93.1052490 100.6579880  99.2305400  92.3648240
 100.9595830  98.4756840  93.6419740 102.6942090 102.9354090  91.7161900
 103.6463840 102.8512110  91.6662140 102.5470310 103.5995800  92.3895690
 105.5851290 102.3148300  77.2153810 105.2992800 101.9013440  76.4007990
 105.3870840 103.2436010  77.0954330  90.1474900  95.5867390  92.1013130
  90.6513920  95.0074670  92.6729360  89.4082320  95.8707620  92.6389500
  97.0498520  98.3081580  75.6559420  96.9449160  97.6933930  76.3820800
  96.8822740  97.7847470  74.8722430  97.2012840  96.9938380  91.6348650
  96.4358510  97.5623380  91.5503320  97.3828800  96.7014590  90.7416880
 100.2901250  97.3701610  76.2601410  99.7411350  97.8170910  76.9044150
 100.9120510  96.8650860  76.7839080 104.3436190  98.7243710  92.1923670
 105.0845660  99.0619470  91.6891130 103.5808870  98.8935770  91.6393440
  92.1797980  93.7296980  92.9963200  92.2203320  93.4310850  93.9048430
  93.0343480  94.1304590  92.8370720  95.9576370  96.3292530  78.1566710
  96.3792790  96.1632400  78.9998100  96.0827210  95.5192760  77.6621850
  94.1203790  92.3089080  90.9637690  93.5900250  91.8180030  90.3361030
  94.7891860  92.7373280  90.4295620  98.4704010  95.3530140  75.4043810
  98.9909670  94.6379160  75.0384960  99.1172410  95.9916010  75.7044320
 103.0181850  96.7758540  90.7278880 103.4322870  96.9303620  91.5769300
 102.0832850  96.9013760  90.8904660 103.4904020  94.1154700  92.7318030
 104.0724790  93.3607020  92.6438510 103.6665790  94.6462140  91.9549510
  94.6076090  89.2751450  91.0434980  94.5132960  88.6572200  90.3185850
  94.0273480  90.0017740  90.8164890  97.3737530  87.8324690  88.0762370
  96.9254830  87.8548950  87.2307920  96.7402730  87.4343710  88.6732670
  97.7797080  96.7279020  88.6974810  98.1985190  97.5711750  88.5251050
  96.8605710  96.8651060  88.4681590 100.1160980  94.4595200  90.0812650
 100.2357190  93.8636340  90.8207490 100.9754980  94.4964890  89.6613950
 102.4548880  95.0132390  88.6575160 101.9284100  95.5375010  88.0540300
 102.7980220  95.6459780  89.2884890  94.8535270  92.4025760  75.1024870
  94.6524330  91.5393120  75.4638210  94.6827320  92.3159120  74.1646470
  95.6304500 103.0332030  89.8132540  95.0925590 103.7578090  89.4941240
  95.8838460 102.5562370  89.0229880  96.8829750  91.0016550  91.3388470
  97.4729440  90.6932400  92.0266290  96.0649990  90.5296300  91.4948370
 101.7023180  90.6182360  91.5721490 101.0138700  89.9563900  91.5071480
 102.4229200  90.1720630  92.0169950 102.3323580  87.2133990  77.6311750
 102.6125870  86.3701890  77.9871170 101.5589310  87.4457100  78.1450500
  93.6518070  89.5026380  75.0902750  93.9543970  89.5093810  74.1821900
  94.3912660  89.1524240  75.5870410  98.4866710 104.2683240  90.0719190
  98.4125410 105.1718380  90.3791560  97.5845550 103.9495140  90.0441260
  96.8703000  88.4461000  76.0758950  96.5225000  87.7684990  75.4961400
  97.0715770  87.9850510  76.8902340  99.0352040 103.4341750  77.6945550
  99.9302830 103.7726720  77.7164310  99.0669670 102.7121160  77.0669830
  92.6748200  98.8068800  75.9232550  93.1123070  99.3498470  76.5790130
  93.1595930  97.9815750  75.9328890  89.8894000 101.5957830  83.3752810
  90.2197010 100.7278890  83.1431450  90.3185000 101.8016350  84.2057770
  94.4855920  99.9266840  81.0354780  94.1851460  99.8031810  81.9358690
  94.3793410  99.0675430  80.6270510  90.3784210 102.4628420  86.1134440
  89.9415200 102.6429220  86.9458590  90.9461890 103.2203040  85.9716160
 106.0146390 101.9645420  90.4011750 105.4148380 102.0237980  89.6575670
 106.1440290 101.0250400  90.5308600 107.2547840  99.7063240  75.7381460
 106.4240800  99.7739890  76.2088690 107.4319670 100.5967360  75.4348320
 106.7104300  96.4510720  78.2415660 107.4723210  97.0207370  78.3475350
 106.7258670  95.8837920  79.0123970  90.2108640  94.9748650  82.4723320
  89.5557480  94.7060290  81.8283020  91.0486590  94.8653130  82.0225300
 107.7164270  97.3060820  83.0857590 108.0873100  96.5228140  82.6793560
 108.3566200  97.9949920  82.9074890 104.6998030  98.6897400  88.4987910
 103.8857870  99.1194560  88.7613700 105.1072230  99.3015810  87.8856960
 106.7623470  96.7445090  75.3988180 107.0372310  97.6523970  75.2707400
 106.5734210  96.6807620  76.3350170 103.1599080  89.7689940  76.6941810
 103.5783960  89.5820920  75.8538470 102.8535140  88.9168990  77.0044740
 106.6588810  94.6814080  80.3917610 106.2832410  93.9142010  79.9598900
 105.9291930  95.0636780  80.8792540  91.2484570  95.3601220  87.0126660
  91.6157610  95.2728620  87.8922680  90.6795390  94.5967770  86.9133520
 106.0488430  93.8285600  90.0257130 105.8174520  93.5998350  89.1255080
 106.3092980  94.7485150  89.9802020  90.8000570  92.2710310  90.9185080
  89.9056620  92.2377070  91.2578790  91.3398120  92.4697100  91.6836330
 104.4876500  89.0542030  92.8036830 105.3646680  89.0625430  93.1870830
 104.4997340  88.3172870  92.1929180  89.4246720  92.1847580  78.4148650
  88.5210800  92.4477780  78.2400310  89.9087340  92.4558750  77.6348610
 105.9339770  92.9071570  83.6924850 106.4577250  92.4134220  83.0615020
 106.5199190  93.0421930  84.4372420 106.1129490  92.9911440  87.2144400
 105.1632200  92.9574980  87.3289390 106.2942500  93.9011550  86.9794170
  91.9673930  91.2413120  76.3243030  92.6765630  90.8196340  75.8390310
  91.2513870  91.3088350  75.6926380  91.6148090  87.2952450  75.3645680
  92.3376220  87.8361390  75.6826900  91.8872610  87.0215870  74.4887220
 105.4239740  92.1644920  79.6317260 105.9198860  91.9315790  80.4166140
 105.2255810  91.3256760  79.2154900  91.3040280  86.5458640  85.2668300
  91.9516470  85.9956020  84.8263460  91.7242120  86.8001790  86.0884110
 106.8526900  90.8005870  82.1654940 106.7426180  90.6461910  83.1037210
 107.6134490  90.2726810  81.9230350 105.1992620  86.7400000  88.6237940
 105.8364840  87.3534140  88.9897130 105.3467510  86.7760660  87.6787170
 107.7417170  88.6313790  75.4061080 108.6666480  88.4994970  75.1979370
 107.7192960  88.7106610  76.3597530 107.8155660  89.4024450  78.0317790
 107.0207160  89.3369570  78.5610700 108.0198940  90.3375090  78.0203140
 104.7574080 103.4416000  82.0256180 105.3533150 103.1200570  81.3490600
 105.0152230 102.9687820  82.8169450  91.0572280  86.7014310  88.0093620
  90.7087100  87.1578130  88.7751800  90.7259980  85.8071440  88.0916050
  92.6636650  99.8733910  92.1746810  92.6206280  99.5026820  93.0561270
  92.7947660 100.8111480  92.3148630  96.3642680 101.4293500  87.7756530
  96.1234040 101.6968060  86.8887050  97.3045320 101.5999230  87.8307390
  98.5697100  87.8926190  91.5313040  98.5085990  88.4848020  92.2808450
  99.5097480  87.7852150  91.3863300 101.2071660  87.5496250  91.1705330
 101.8212070  87.8675540  90.5086410 101.7521220  87.0644840  91.7901190
 107.6246840 103.4487880  88.5767170 107.1305120 103.8456750  87.8594300
 107.0160130 102.8237090  88.9704450  91.7292920  86.2290510  91.2844390
  92.2775910  86.0478560  90.5210500  91.7948230  85.4384620  91.8200700
  92.5024680 102.8196160  89.2944590  91.9085000 102.6880860  90.0334630
  92.4948520 101.9834300  88.8286690 101.9479700  86.1128390  87.4974620
 101.0739540  86.4463500  87.2947550 101.8390450  85.6401570  88.3226490
 102.8551680  88.3199260  88.8816340 102.5265040  87.5051020  88.5018070
 103.8033980  88.2769070  88.7582030 105.3086290 104.0911300  85.8553910
 104.8489260 104.8427110  85.4811930 104.6798750 103.3717770  85.7968710
  92.1336910 100.1854540  88.2452630  91.4070970  99.5659830  88.1778580
  92.1946060 100.5795150  87.3750710  95.7382010 102.3999540  85.0302040
  96.2547030 101.7886900  84.5050300  96.3879390 102.9028320  85.5213050
  98.4777510 103.2908030  85.8571020  98.7655320 103.0362330  84.9804030
  98.9900730 102.7385390  86.4476590  99.6954520  87.0298230  86.4367530
  98.9126310  87.5043730  86.7164290  99.4017450  86.1253060  86.3280710
 104.2475590  87.7321330  84.4816620 104.6883680  87.6766430  83.6338220
 103.9783180  88.6479340  84.5526800 106.1114160  87.3636570  82.4925440
 106.0502560  86.4197790  82.3456460 106.8906190  87.4716660  83.0378900
  90.4166910 103.5028930  81.4549390  90.2488950 102.8699610  82.1531280
  89.5501420 103.7088330  81.1043580  91.0394930  87.3345710  78.9581250
  91.7974290  87.4474590  78.3845280  90.5772100  88.1714910  78.9124680
  97.5808740  89.4484980  81.9483560  96.7683250  89.0741870  81.6079440
  98.0850380  88.6930060  82.2504750 102.0833720  86.1127430  83.1866630
 102.6863090  86.6847640  83.6615150 101.3426710  86.6766870  82.9640530
 105.2268320  86.5148990  78.4606910 105.4218950  87.4132440  78.7274340
 104.4398190  86.2836070  78.9539860  92.0229610 102.1962160  78.8999530
  91.4977230 102.5770190  78.1961490  91.9474190 102.8212930  79.6209240
  93.4120080  87.8609760  77.4983220  93.9412840  87.0739560  77.3691170
  94.0448400  88.5400950  77.7318750  95.6057920  87.5984900  80.5528610
  94.9760660  86.8972210  80.7198740  95.0663060  88.3589030  80.3361770
  98.5449870 104.2124130  93.2239220  99.4717180 103.9768400  93.2675180
  98.5300300 105.0396130  92.7425250 106.7794930 103.7549700  80.2213470
 106.9547120 103.0687440  79.5774390 106.0816500 104.2796750  79.8290140
  95.7313480  86.8768880  92.9881100  95.4497750  87.3802480  92.2241920
  96.1133180  86.0790630  92.6223230  94.6222580 104.1444540  77.7748780
  95.3541400 103.8603820  77.2272670  94.8816250 103.9057820  78.6648160
  93.7837370 100.2609270  77.7795110  93.1546250 100.7294370  78.3280940
  93.8985200  99.4158490  78.2141300 102.3328940  86.2922460  93.5661570
 102.2194390  86.6117070  94.4613090 103.1498680  86.6934970  93.2698850
 105.1127430 103.4393990  93.0480260 105.9052750 102.9443220  92.8406220
 105.4060580 104.1184130  93.6555870 101.2387090  94.3114930  63.9296310
 101.1581140  93.3969540  63.6588020 100.8251510  94.8082000  63.2236020
  99.3705130  96.0893950  65.8105580  98.5947230  95.6094390  66.1004150
 100.0218060  95.4099600  65.6361740  93.3870960  96.4013760  66.6881340
  92.5555840  96.1462470  67.0877850  93.9951940  96.4724530  67.4239260
 103.3912560 100.4954140  64.5904710 102.9294090  99.7241380  64.9191880
 104.2038110 100.5220210  65.0957160  93.3672220 100.4353850  66.8839360
  93.6700260  99.5451590  66.7049580  94.1115810 100.9924070  66.6561610
  91.7962910  91.3615650  60.4723730  90.9079610  91.7031620  60.3703610
  92.0804100  91.1615970  59.5804560  89.7595920  93.9621300  66.3563430
  90.3312030  93.1943500  66.3567070  89.7597460  94.2610060  65.4470040
  99.6175870 102.7812150  64.2108700  98.9987310 103.2369650  63.6403140
 100.4727650 102.9363610  63.8098400  98.8114120  98.7651140  65.8175740
  98.7422400  97.8241080  65.6564870  99.5733980  98.8552550  66.3898310
  91.0020790  89.3705660  68.1432360  90.8223630  88.4731410  68.4235120
  90.6000870  89.9177530  68.8179310  99.8419290  91.5721520  66.0444670
 100.2184110  90.6993400  65.9318340  99.7438800  91.9080220  65.1535110
  93.9724300  89.9447150  61.5062110  94.0791050  90.8450880  61.8130870
  93.0616660  89.8965120  61.2156760 103.6243410  89.0671960  62.9773010
 104.4453030  88.5768530  63.0198490 103.6577490  89.6569620  63.7304850
  91.6207460  91.8666160  66.7514700  92.3017570  92.1304530  67.3702100
  91.3055510  91.0267030  67.0852710  95.8132030  92.9133520  65.8387290
  96.3210250  93.4114490  66.4792310  96.3445270  92.1368720  65.6626650
 107.9142960  91.0838710  69.5416640 107.2095130  91.4720420  69.0231750
 108.1800880  91.7789000  70.1437570  94.0968130  87.5532080  70.1050710
  94.0986570  88.0704470  69.2996610  93.2672440  87.0762260  70.0820640
 100.4839220  97.6651390  61.6040610  99.8656490  98.1300840  61.0403330
 100.9962470  98.3578870  62.0210120  95.3470980  97.1927260  68.2824210
  95.0140360  97.8196180  68.9245280  95.5237660  97.7189140  67.5025880
 103.8604890  91.0072340  65.7500550 103.1560460  91.2957230  66.3303660
 104.2217050  91.8172450  65.3900110  93.7783460  89.2642040  68.1121160
  94.1200270  90.1084090  67.8175030  92.8399270  89.4125780  68.2286500
  94.5590080  99.1608060  70.0973390  95.1764080  99.8359140  69.8157840
  93.6983200  99.5696040  70.0060890  89.8522420  98.3507920  58.9780240
  89.4750400  98.8395020  58.2465140  90.1095490  99.0233200  59.6086770
 105.4767670 100.6247470  68.0128030 104.7931190 101.2946580  68.0044700
 106.0161960 100.8228120  67.2472890 106.9291810  90.4527130  66.1409760
 105.9816720  90.4866110  66.2725190 107.2541800  91.2666080  66.5259120
  97.4611350  86.7524310  64.4365750  97.7686330  86.1971200  63.7201250
  96.5312050  86.8868770  64.2538740 103.0126410 102.4691600  66.7273210
 103.0253570 102.0653890  65.8595470 102.4601630 103.2438890  66.6234640
 104.3071830  99.1907820  61.8163380 104.1968160  98.2482150  61.9412800
 104.3040080  99.5523460  62.7026140 102.4111850  97.3721440  68.0555820
 102.8280640  97.1581550  67.2209280 103.1351670  97.6294230  68.6264440
  99.8492110  94.8173140  61.1725870  98.9221390  94.7510520  61.4014340
 100.0016930  95.7553270  61.0581110  99.8361190  91.0890140  58.1693030
  98.8964860  91.2504100  58.2545490 100.1544450  91.8075820  57.6229020
 106.3573950  95.7708660  68.1472060 105.5292580  95.8401750  67.6722190
 106.9524430  96.3562970  67.6787890 103.8789400  96.3793440  61.6761120
 103.2601820  96.0412990  61.0287420 103.8613850  95.7353200  62.3840310
 103.3215960  92.5577980  69.0926930 102.9087140  93.3831690  69.3466920
 102.5891910  91.9723020  68.9003290  95.4548750  95.3437880  63.9545600
  95.0505750  94.6315130  63.4591500  95.5411870  94.9991120  64.8433640
  95.9230450  99.0305440  66.1184810  95.6258740  98.4250910  65.4392590
  96.8730270  99.0682750  66.0074170  94.1677370  92.1181090  67.7344640
  94.7191960  92.2276430  66.9597890  94.6820880  92.4918690  68.4499870
 104.0116060 102.6037310  69.7807910 103.5346620 103.4109500  69.5880520
 103.3277850 101.9515640  69.9334120  95.0148880  98.7687130  72.7692610
  94.1177410  98.9927100  73.0166010  95.0401750  98.8922070  71.8204010
 102.0554100  95.6180250  58.6833870 102.4947380  94.7802680  58.5371690
 102.7682520  96.2509650  58.7698010  93.8420100  95.6400450  71.3449980
  93.7027870  96.5123250  71.7137380  92.9601460  95.2973260  71.1997920
 100.1649480 100.5576320  62.6515110 100.6045390 101.3000650  62.2370500
 100.1036370 100.8002890  63.5754070  95.6400450 101.5822150  73.5535130
  95.6115880 101.9865100  72.6863560  95.4765420 100.6532510  73.3906730
 105.6371240  86.8723060  56.9974910 105.3243900  86.9649890  57.8973980
 106.3983710  87.4504090  56.9472340  92.1553380  94.2382860  61.4552250
  92.0350980  94.9644950  60.8433520  91.8454270  93.4685770  60.9780160
 107.5915270 102.3649250  74.8499300 108.0674990 102.8432140  75.5288380
 108.2122430 102.2966740  74.1244800  89.7938750  97.4098000  67.2620890
  89.8719170  97.5446770  66.3176610  90.4080430  96.7013890  67.4549010
  91.0386380  99.1098190  63.6727070  90.6314460  99.2512780  62.8180670
  91.9299390  98.8258350  63.4698280 106.9948520  99.5562100  72.0099310
 107.1211580  99.3173980  71.0916490 107.0369900  98.7246640  72.4821390
 100.8565260 103.2590100  70.5794120 101.3709930 103.1698110  71.3816550
 100.0134340 103.6049800  70.8722030 102.8319660 103.5445440  60.0078120
 102.6720800 103.2548380  60.9059950 102.6666370 102.7685570  59.4723350
  95.3108040 103.3243970  61.7849740  95.1350520 102.4079510  61.5717540
  94.4563780 103.6831260  62.0247540 102.5345790 101.0533000  58.5676120
 101.8410950 101.0510290  57.9078400 103.2768650 100.6292320  58.1370290
 102.0995720 102.6795710  62.6424610 102.5552670 101.8985090  62.9563230
 102.4388240 103.3902530  63.1865790 106.8472530  91.6094560  72.9749050
 106.2316800  92.1174230  72.4464510 106.5268950  90.7092890  72.9174990
  89.8498270  98.4512170  69.8015350  90.0129310  97.9817530  68.9834720
  90.3150720  97.9435730  70.4664190  94.6217040  87.5817930  64.8375920
  94.1785190  88.3627470  64.5060440  95.1802030  87.9047820  65.5446860
  98.9086850  90.4486450  70.4411240  98.4466220  90.6569470  71.2531180
  98.5064960  89.6345800  70.1381910 103.9091360  91.6695400  71.5707900
 103.0584950  91.3701150  71.8916970 103.7493150  91.9137410  70.6591720
 101.0041070  93.1697150  73.6706690 101.3294480  92.3360900  73.3308920
 101.7921400  93.6925670  73.8185020  97.7375860  87.2028630  59.7181750
  97.1130040  87.1988500  60.4435060  97.6505980  86.3359590  59.3217720
  96.6592940  88.1265260  66.6965520  96.9565270  89.0328090  66.6157540
  97.2078500  87.6384040  66.0825090  94.4131260  92.7051500  62.5657170
  94.1872180  92.4888670  63.4703790  93.6323790  93.1379960  62.2203140
 101.6429020  92.7114870  61.1647820 101.0437910  93.4350670  60.9811440
 102.1908630  92.6491650  60.3824270  96.8530470  93.6037080  73.2317440
  96.7574070  92.6631810  73.0817840  97.6962450  93.8252150  72.8365510
 100.2493890  91.3478410  63.1951100 100.6423460  91.6650610  62.3819790
 100.6110740  90.4690290  63.3095620  91.9841010  90.0150750  71.3851220
  91.5904400  90.8625960  71.5924000  91.2959410  89.3777120  71.5759860
  98.5586060  90.0985720  74.4547960  97.8684380  89.9057920  75.0894050
  99.3018360  90.3820360  74.9872260  89.2858060  87.9379210  65.4181300
  88.9971110  88.5082070  66.1306280  90.0303820  87.4583660  65.7812530
  89.4728290  91.8799330  56.6284020  89.3902960  92.8230090  56.7699010
  89.1211350  91.7374240  55.7496370 100.8349030  93.9384160  67.2901880
 100.1030150  94.4470970  67.6391980 100.4373370  93.1214140  66.9890660
  97.2726420  90.6138360  65.6954370  97.2762480  90.1728310  64.8458910
  98.1677540  90.9355690  65.8026190  93.1228800  90.4964850  64.6548580
  92.7828850  90.9740080  65.4115630  92.3606120  90.0429970  64.2949680
  97.3346570  91.6150440  58.6861130  97.4559390  91.5736920  59.6346950
  96.9495080  92.4774590  58.5307860 101.2974940  89.3917840  66.7024820
 101.3147680  89.8426490  67.5466670 101.0490520  88.4923480  66.9158260
  96.3468070  93.9251580  58.0844430  95.7784970  93.4769830  57.4580340
  97.0557070  94.2844360  57.5509580 104.7245690  86.8050020  72.5411200
 105.0491460  86.0739680  73.0669180 104.7602200  86.4863660  71.6392190
  91.4237250  97.8263600  71.9611160  91.0392040  97.1857270  72.5594120
  91.7349440  98.5299720  72.5305890  97.5734390  94.6740140  67.4419780
  97.9404520  94.1998710  68.1881120  97.3839450  95.5481710  67.7828120
  90.4374880  89.4183830  63.5713250  90.1521800  89.0539500  64.4091870
  90.3753740  88.6864290  62.9576390  95.3633760  93.7148780  69.7603990
  95.0590830  94.5940760  69.9854350  96.3180220  93.7748570  69.7961430
  93.8915550  97.9209770  60.3570840  93.1177810  97.3807390  60.1969560
  94.6210180  97.4016380  60.0188600 104.6503530  96.9175130  66.1497230
 105.3702650  97.4130420  65.7593340 104.4485350  96.2393020  65.5051100
 100.1113470  88.3113090  60.2926620  99.2978080  87.8126260  60.2171930
  99.9175420  89.1511340  59.8762970 100.0322330  96.9884190  72.0366230
  99.9659640  96.0679860  71.7823820  99.4027470  97.0859630  72.7510870
 102.8261860  92.6832740  58.5888780 103.7141480  92.9949970  58.4140120
 102.7966950  91.8104990  58.1969360  93.9352950  97.5890150  63.9949650
  94.4531620  96.7858410  63.9406540  93.4836970  97.5269290  64.8366480
  98.8222450  98.8556430  59.2676950  99.1638150  99.5998660  58.7720270
  97.9935160  99.1687550  59.6301780  91.4197490  94.5551520  70.9075350
  91.0612430  95.2205370  71.4948690  91.1252050  93.7235070  71.2787970
  94.6210610  95.0135760  73.7914900  94.3210750  95.1592940  72.8942720
  95.3921850  94.4541050  73.6988290  99.9639060  99.8104760  71.7870030
  99.9783600  98.8785720  71.5688940  99.2564160  99.8964520  72.4259800
 105.0976130  93.9944580  58.0568640 105.0139850  94.4258800  57.2065080
 105.8170320  94.4542930  58.4895460 106.1750270  96.4512100  71.1338610
 105.4498460  97.0440880  70.9368000 106.7025730  96.4435640  70.3351980
 106.1263380 100.8486840  60.7850770 105.4839540 100.1942460  61.0594490
 105.7394040 101.2541930  60.0091440 101.7049860  98.1772270  64.6322460
 102.0573680  97.5800400  63.9723830 100.8212190  97.8516500  64.8030710
  97.7913140  98.9369960  62.0392870  98.4784270  99.4839170  62.4200460
  97.0045560  99.4810690  62.0742480  89.9305540  94.5542780  57.5309950
  90.8000390  94.8367580  57.8145870  89.4395860  95.3678650  57.4158760
  97.0940350  95.9415990  61.6518230  97.5503130  96.7521240  61.8778420
  96.7428560  95.6239130  62.4836720  99.3972960 101.4522330  68.8810530
 100.0415180 101.6581710  69.5583950  99.7602400 100.6910730  68.4281380
  92.9952130  86.2853640  62.1240750  92.8666760  86.2771540  63.0725670
  92.1714150  86.6236730  61.7731760 100.6705040  99.4554680  67.5987980
 101.3127270  98.7547840  67.7120150 101.1954390 100.2353120  67.4184870
 104.5160760  99.7403300  57.3227120 104.2898340  99.0233740  57.9151760
 104.1256960  99.4915740  56.4848870 102.4442660 100.2549580  70.8024040
 102.7798900 100.8416270  71.4801960 101.5243000 100.1242290  71.0321830
  90.2976790 103.7670160  58.0971580  90.6574430 104.3659500  57.4428850
  90.1569130 104.3130050  58.8706610  89.9946060  88.0444760  71.5847450
  89.2804580  88.2441680  72.1900060  90.4141100  87.2684330  71.9562250
 104.0977010  97.6575240  58.9841280 103.8098710  98.1187930  59.7719160
 104.8929180  97.1973010  59.2525500  90.2818650 102.0325020  72.5713980
  90.3909770 101.0919760  72.4309370  89.6299210 102.2979770  71.9227710
  98.2731240 100.3040910  73.9712100  97.9528110  99.5850150  74.5157790
  97.5989600 100.9795980  74.0448160  96.3145410 101.1501360  58.9145250
  96.3055510 101.8831050  58.2989760  95.3943770 100.9032940  59.0072210
  91.9152050  96.3716250  59.6592010  91.3080000  97.1115150  59.6687310
  92.3901400  96.4615610  58.8330210 101.4884840  90.5367070  69.3348900
 101.8565660  89.7162280  69.6628470 100.6283040  90.5968960  69.7504550
 104.8546870  89.4924010  60.1436460 104.2260030  89.5969680  59.4294690
 104.3598790  89.7120790  60.9330340  99.3005010 101.2129600  57.5770440
  99.4016990 101.0093590  56.6472420  98.4006750 100.9587880  57.7818220
  96.8230900  91.7709960  61.5594340  96.1147050  92.2396300  62.0007950
  97.1075380  91.1131970  62.1939530  98.4486830  93.1906660  69.5586870
  98.9472080  93.6652480  70.2238720  98.5909780  92.2670180  69.7656900
 100.8546330  88.4960620  62.9990130 100.7314110  88.5146750  62.0499640
 101.8030890  88.5439560  63.1188530  97.9423120 103.7315920  62.2718110
  98.1964620 103.6937310  61.3497480  96.9935600 103.6049250  62.2646360
  95.0265920  90.0795040  58.9345050  95.8756450  90.5165190  58.8685240
  94.6597190  90.3915300  59.7617110 105.6553690  89.4074620  70.4015260
 105.1527290  90.1480020  70.7409070 106.4710350  89.7958620  70.0852050
 103.9475700  94.6507800  63.8476620 103.0065840  94.6658030  64.0224310
 104.2619770  93.8643760  64.2936920  93.9257340  96.3327400  57.4080580
  94.6920610  96.2208760  57.9706010  94.0032030  95.6365370  56.7557350
  92.6204100  93.7652470  58.0913470  92.7007690  92.8179980  58.2030870
  93.5123850  94.0959350  58.1974130 105.9501280 101.8216650  65.5230880
 106.0748700 102.6447820  65.9954690 106.8166840 101.6107380  65.1755030
  93.4218810 103.9147860  65.1948010  94.1581290 103.3663320  65.4656580
  93.8059730 104.7803870  65.0554000  90.3064290  99.9821430  61.0689520
  89.3804070 100.2242570  61.0594930  90.7720720 100.8095690  60.9474270
  92.4277090 103.0993930  74.3833590  93.2289820 103.4205980  74.7968990
  91.9128910 102.7389510  75.1053500  96.5321120 103.0878170  57.0173580
  97.3249730 103.3767000  56.5655370  96.0125470 102.6570340  56.3386060
 101.2641720  99.2073800  74.3309000 100.6579880  99.2305400  73.5904750
 100.9595830  98.4756840  74.8676250 102.6942090 102.9354090  72.9418410
 103.6463840 102.8512110  72.8918650 102.5470310 103.5995800  73.6152200
 105.5851290 102.3148300  58.4410320 105.2992800 101.9013440  57.6264500
 105.3870840 103.2436010  58.3210840  90.1474900  95.5867390  73.3269640
  90.6513920  95.0074670  73.8985870  89.4082320  95.8707620  73.8646010
  97.0498520  98.3081580  56.8815930  96.9449160  97.6933930  57.6077310
  96.8822740  97.7847470  56.0978940  97.2012840  96.9938380  72.8605160
  96.4358510  97.5623380  72.7759830  97.3828800  96.7014590  71.9673390
 100.2901250  97.3701610  57.4857920  99.7411350  97.8170910  58.1300660
 100.9120510  96.8650860  58.0095590 104.3436190  98.7243710  73.4180180
 105.0845660  99.0619470  72.9147640 103.5808870  98.8935770  72.8649950
  92.1797980  93.7296980  74.2219710  92.2203320  93.4310850  75.1304940
  93.0343480  94.1304590  74.0627230  95.9576370  96.3292530  59.3823220
  96.3792790  96.1632400  60.2254610  96.0827210  95.5192760  58.8878360
  94.1203790  92.3089080  72.1894200  93.5900250  91.8180030  71.5617540
  94.7891860  92.7373280  71.6552130  98.4704010  95.3530140  56.6300320
  98.9909670  94.6379160  56.2641470  99.1172410  95.9916010  56.9300830
 103.0181850  96.7758540  71.9535390 103.4322870  96.9303620  72.8025810
 102.0832850  96.9013760  72.1161170 103.4904020  94.1154700  73.9574540
 104.0724790  93.3607020  73.8695020 103.6665790  94.6462140  73.1806020
  94.6076090  89.2751450  72.2691490  94.5132960  88.6572200  71.5442360
  94.0273480  90.0017740  72.0421400  97.3737530  87.8324690  69.3018880
  96.9254830  87.8548950  68.4564430  96.7402730  87.4343710  69.8989180
  97.7797080  96.7279020  69.9231320  98.1985190  97.5711750  69.7507560
  96.8605710  96.8651060  69.6938100 100.1160980  94.4595200  71.3069160
 100.2357190  93.8636340  72.0464000 100.9754980  94.4964890  70.8870460
 102.4548880  95.0132390  69.8831670 101.9284100  95.5375010  69.2796810
 102.7980220  95.6459780  70.5141400  94.8535270  92.4025760  56.3281380
  94.6524330  91.5393120  56.6894720  94.6827320  92.3159120  55.3902980
  95.6304500 103.0332030  71.0389050  95.0925590 103.7578090  70.7197750
  95.8838460 102.5562370  70.2486390  96.8829750  91.0016550  72.5644980
  97.4729440  90.6932400  73.2522800  96.0649990  90.5296300  72.7204880
 101.7023180  90.6182360  72.7978000 101.0138700  89.9563900  72.7327990
 102.4229200  90.1720630  73.2426460 102.3323580  87.2133990  58.8568260
 102.6125870  86.3701890  59.2127680 101.5589310  87.4457100  59.3707010
  93.6518070  89.5026380  56.3159260  93.9543970  89.5093810  55.4078410
  94.3912660  89.1524240  56.8126920  98.4866710 104.2683240  71.2975700
  98.4125410 105.1718380  71.6048070  97.5845550 103.9495140  71.2697770
  96.8703000  88.4461000  57.3015460  96.5225000  87.7684990  56.7217910
  97.0715770  87.9850510  58.1158850  99.0352040 103.4341750  58.9202060
  99.9302830 103.7726720  58.9420820  99.0669670 102.7121160  58.2926340
  92.6748200  98.8068800  57.1489060  93.1123070  99.3498470  57.8046640
  93.1595930  97.9815750  57.1585400  89.8894000 101.5957830  64.6009320
  90.2197010 100.7278890  64.3687960  90.3185000 101.8016350  65.4314280
  94.4855920  99.9266840  62.2611290  94.1851460  99.8031810  63.1615200
  94.3793410  99.0675430  61.8527020  90.3784210 102.4628420  67.3390950
  89.9415200 102.6429220  68.1715100  90.9461890 103.2203040  67.1972670
 106.0146390 101.9645420  71.6268260 105.4148380 102.0237980  70.8832180
 106.1440290 101.0250400  71.7565110 107.2547840  99.7063240  56.9637970
 106.4240800  99.7739890  57.4345200 107.4319670 100.5967360  56.6604830
 106.7104300  96.4510720  59.4672170 107.4723210  97.0207370  59.5731860
 106.7258670  95.8837920  60.2380480  90.2108640  94.9748650  63.6979830
  89.5557480  94.7060290  63.0539530  91.0486590  94.8653130  63.2481810
 107.7164270  97.3060820  64.3114100 108.0873100  96.5228140  63.9050070
 108.3566200  97.9949920  64.1331400 104.6998030  98.6897400  69.7244420
 103.8857870  99.1194560  69.9870210 105.1072230  99.3015810  69.1113470
 106.7623470  96.7445090  56.6244690 107.0372310  97.6523970  56.4963910
 106.5734210  96.6807620  57.5606680 103.1599080  89.7689940  57.9198320
 103.5783960  89.5820920  57.0794980 102.8535140  88.9168990  58.2301250
 106.6588810  94.6814080  61.6174120 106.2832410  93.9142010  61.1855410
 105.9291930  95.0636780  62.1049050  91.2484570  95.3601220  68.2383170
  91.6157610  95.2728620  69.1179190  90.6795390  94.5967770  68.1390030
 106.0488430  93.8285600  71.2513640 105.8174520  93.5998350  70.3511590
 106.3092980  94.7485150  71.2058530  90.8000570  92.2710310  72.1441590
  89.9056620  92.2377070  72.4835300  91.3398120  92.4697100  72.9092840
 104.4876500  89.0542030  74.0293340 105.3646680  89.0625430  74.4127340
 104.4997340  88.3172870  73.4185690  89.4246720  92.1847580  59.6405160
  88.5210800  92.4477780  59.4656820  89.9087340  92.4558750  58.8605120
 105.9339770  92.9071570  64.9181360 106.4577250  92.4134220  64.2871530
 106.5199190  93.0421930  65.6628930 106.1129490  92.9911440  68.4400910
 105.1632200  92.9574980  68.5545900 106.2942500  93.9011550  68.2050680
  91.9673930  91.2413120  57.5499540  92.6765630  90.8196340  57.0646820
  91.2513870  91.3088350  56.9182890  91.6148090  87.2952450  56.5902190
  92.3376220  87.8361390  56.9083410  91.8872610  87.0215870  55.7143730
 105.4239740  92.1644920  60.8573770 105.9198860  91.9315790  61.6422650
 105.2255810  91.3256760  60.4411410  91.3040280  86.5458640  66.4924810
  91.9516470  85.9956020  66.0519970  91.7242120  86.8001790  67.3140620
 106.8526900  90.8005870  63.3911450 106.7426180  90.6461910  64.3293720
 107.6134490  90.2726810  63.1486860 105.1992620  86.7400000  69.8494450
 105.8364840  87.3534140  70.2153640 105.3467510  86.7760660  68.9043680
 107.7417170  88.6313790  56.6317590 108.6666480  88.4994970  56.4235880
 107.7192960  88.7106610  57.5854040 107.8155660  89.4024450  59.2574300
 107.0207160  89.3369570  59.7867210 108.0198940  90.3375090  59.2459650
 104.7574080 103.4416000  63.2512690 105.3533150 103.1200570  62.5747110
 105.0152230 102.9687820  64.0425960  91.0572280  86.7014310  69.2350130
  90.7087100  87.1578130  70.0008310  90.7259980  85.8071440  69.3172560
  92.6636650  99.8733910  73.4003320  92.6206280  99.5026820  74.2817780
  92.7947660 100.8111480  73.5405140  96.3642680 101.4293500  69.0013040
  96.1234040 101.6968060  68.1143560  97.3045320 101.5999230  69.0563900
  98.5697100  87.8926190  72.7569550  98.5085990  88.4848020  73.5064960
  99.5097480  87.7852150  72.6119810 101.2071660  87.5496250  72.3961840
 101.8212070  87.8675540  71.7342920 101.7521220  87.0644840  73.0157700
 107.6246840 103.4487880  69.8023680 107.1305120 103.8456750  69.0850810
 107.0160130 102.8237090  70.1960960  91.7292920  86.2290510  72.5100900
  92.2775910  86.0478560  71.7467010  91.7948230  85.4384620  73.0457210
  92.5024680 102.8196160  70.5201100  91.9085000 102.6880860  71.2591140
  92.4948520 101.9834300  70.0543200 101.9479700  86.1128390  68.7231130
 101.0739540  86.4463500  68.5204060 101.8390450  85.6401570  69.5483000
 102.8551680  88.3199260  70.1072850 102.5265040  87.5051020  69.7274580
 103.8033980  88.2769070  69.9838540 105.3086290 104.0911300  67.0810420
 104.8489260 104.8427110  66.7068440 104.6798750 103.3717770  67.0225220
  92.1336910 100.1854540  69.4709140  91.4070970  99.5659830  69.4035090
  92.1946060 100.5795150  68.6007220  95.7382010 102.3999540  66.2558550
  96.2547030 101.7886900  65.7306810  96.3879390 102.9028320  66.7469560
  98.4777510 103.2908030  67.0827530  98.7655320 103.0362330  66.2060540
  98.9900730 102.7385390  67.6733100  99.6954520  87.0298230  67.6624040
  98.9126310  87.5043730  67.9420800  99.4017450  86.1253060  67.5537220
 104.2475590  87.7321330  65.7073130 104.6883680  87.6766430  64.8594730
 103.9783180  88.6479340  65.7783310 106.1114160  87.3636570  63.7181950
 106.0502560  86.4197790  63.5712970 106.8906190  87.4716660  64.2635410
  90.4166910 103.5028930  62.6805900  90.2488950 102.8699610  63.3787790
  89.5501420 103.7088330  62.3300090  91.0394930  87.3345710  60.1837760
  91.7974290  87.4474590  59.6101790  90.5772100  88.1714910  60.1381190
  97.5808740  89.4484980  63.1740070  96.7683250  89.0741870  62.8335950
  98.0850380  88.6930060  63.4761260 102.0833720  86.1127430  64.4123140
 102.6863090  86.6847640  64.8871660 101.3426710  86.6766870  64.1897040
 105.2268320  86.5148990  59.6863420 105.4218950  87.4132440  59.9530850
 104.4398190  86.2836070  60.1796370  92.0229610 102.1962160  60.1256040
  91.4977230 102.5770190  59.4218000  91.9474190 102.8212930  60.8465750
  93.4120080  87.8609760  58.7239730  93.9412840  87.0739560  58.5947680
  94.0448400  88.5400950  58.9575260  95.6057920  87.5984900  61.7785120
  94.9760660  86.8972210  61.9455250  95.0663060  88.3589030  61.5618280
  98.5449870 104.2124130  74.4495730  99.4717180 103.9768400  74.4931690
  98.5300300 105.0396130  73.9681760 106.7794930 103.7549700  61.4469980
 106.9547120 103.0687440  60.8030900 106.0816500 104.2796750  61.0546650
  95.7313480  86.8768880  74.2137610  95.4497750  87.3802480  73.4498430
  96.1133180  86.0790630  73.8479740  94.6222580 104.1444540  59.0005290
  95.3541400 103.8603820  58.4529180  94.8816250 103.9057820  59.8904670
  93.7837370 100.2609270  59.0051620  93.1546250 100.7294370  59.5537450
  93.8985200  99.4158490  59.4397810 102.3328940  86.2922460  74.7918080
 102.2194390  86.6117070  75.6869600 103.1498680  86.6934970  74.4955360
 105.1127430 103.4393990  74.2736770 105.9052750 102.9443220  74.0662730
 105.4060580 104.1184130  74.8812380 101.2387090  94.3114930  45.1552820
 101.1581140  93.3969540  44.8844530 100.8251510  94.8082000  44.4492530
  99.3705130  96.0893950  47.0362090  98.5947230  95.6094390  47.3260660
 100.0218060  95.4099600  46.8618250  93.3870960  96.4013760  47.9137850
  92.5555840  96.1462470  48.3134360  93.9951940  96.4724530  48.6495770
 103.3912560 100.4954140  45.8161220 102.9294090  99.7241380  46.1448390
 104.2038110 100.5220210  46.3213670  93.3672220 100.4353850  48.1095870
  93.6700260  99.5451590  47.9306090  94.1115810 100.9924070  47.8818120
  91.7962910  91.3615650  41.6980240  90.9079610  91.7031620  41.5960120
  92.0804100  91.1615970  40.8061070  89.7595920  93.9621300  47.5819940
  90.3312030  93.1943500  47.5823580  89.7597460  94.2610060  46.6726550
  99.6175870 102.7812150  45.4365210  98.9987310 103.2369650  44.8659650
 100.4727650 102.9363610  45.0354910  98.8114120  98.7651140  47.0432250
  98.7422400  97.8241080  46.8821380  99.5733980  98.8552550  47.6154820
  91.0020790  89.3705660  49.3688870  90.8223630  88.4731410  49.6491630
  90.6000870  89.9177530  50.0435820  99.8419290  91.5721520  47.2701180
 100.2184110  90.6993400  47.1574850  99.7438800  91.9080220  46.3791620
  93.9724300  89.9447150  42.7318620  94.0791050  90.8450880  43.0387380
  93.0616660  89.8965120  42.4413270 103.6243410  89.0671960  44.2029520
 104.4453030  88.5768530  44.2455000 103.6577490  89.6569620  44.9561360
  91.6207460  91.8666160  47.9771210  92.3017570  92.1304530  48.5958610
  91.3055510  91.0267030  48.3109220  95.8132030  92.9133520  47.0643800
  96.3210250  93.4114490  47.7048820  96.3445270  92.1368720  46.8883160
 107.9142960  91.0838710  50.7673150 107.2095130  91.4720420  50.2488260
 108.1800880  91.7789000  51.3694080  94.0968130  87.5532080  51.3307220
  94.0986570  88.0704470  50.5253120  93.2672440  87.0762260  51.3077150
 100.4839220  97.6651390  42.8297120  99.8656490  98.1300840  42.2659840
 100.9962470  98.3578870  43.2466630  95.3470980  97.1927260  49.5080720
  95.0140360  97.8196180  50.1501790  95.5237660  97.7189140  48.7282390
 103.8604890  91.0072340  46.9757060 103.1560460  91.2957230  47.5560170
 104.2217050  91.8172450  46.6156620  93.7783460  89.2642040  49.3377670
  94.1200270  90.1084090  49.0431540  92.8399270  89.4125780  49.4543010
  94.5590080  99.1608060  51.3229900  95.1764080  99.8359140  51.0414350
  93.6983200  99.5696040  51.2317400  89.8522420  98.3507920  40.2036750
  89.4750400  98.8395020  39.4721650  90.1095490  99.0233200  40.8343280
 105.4767670 100.6247470  49.2384540 104.7931190 101.2946580  49.2301210
 106.0161960 100.8228120  48.4729400 106.9291810  90.4527130  47.3666270
 105.9816720  90.4866110  47.4981700 107.2541800  91.2666080  47.7515630
  97.4611350  86.7524310  45.6622260  97.7686330  86.1971200  44.9457760
  96.5312050  86.8868770  45.4795250 103.0126410 102.4691600  47.9529720
 103.0253570 102.0653890  47.0851980 102.4601630 103.2438890  47.8491150
 104.3071830  99.1907820  43.0419890 104.1968160  98.2482150  43.1669310
 104.3040080  99.5523460  43.9282650 102.4111850  97.3721440  49.2812330
 102.8280640  97.1581550  48.4465790 103.1351670  97.6294230  49.8520950
  99.8492110  94.8173140  42.3982380  98.9221390  94.7510520  42.6270850
 100.0016930  95.7553270  42.2837620  99.8361190  91.0890140  39.3949540
  98.8964860  91.2504100  39.4802000 100.1544450  91.8075820  38.8485530
 106.3573950  95.7708660  49.3728570 105.5292580  95.8401750  48.8978700
 106.9524430  96.3562970  48.9044400 103.8789400  96.3793440  42.9017630
 103.2601820  96.0412990  42.2543930 103.8613850  95.7353200  43.6096820
 103.3215960  92.5577980  50.3183440 102.9087140  93.3831690  50.5723430
 102.5891910  91.9723020  50.1259800  95.4548750  95.3437880  45.1802110
  95.0505750  94.6315130  44.6848010  95.5411870  94.9991120  46.0690150
  95.9230450  99.0305440  47.3441320  95.6258740  98.4250910  46.6649100
  96.8730270  99.0682750  47.2330680  94.1677370  92.1181090  48.9601150
  94.7191960  92.2276430  48.1854400  94.6820880  92.4918690  49.6756380
 104.0116060 102.6037310  51.0064420 103.5346620 103.4109500  50.8137030
 103.3277850 101.9515640  51.1590630  95.0148880  98.7687130  53.9949120
  94.1177410  98.9927100  54.2422520  95.0401750  98.8922070  53.0460520
 102.0554100  95.6180250  39.9090380 102.4947380  94.7802680  39.7628200
 102.7682520  96.2509650  39.9954520  93.8420100  95.6400450  52.5706490
  93.7027870  96.5123250  52.9393890  92.9601460  95.2973260  52.4254430
 100.1649480 100.5576320  43.8771620 100.6045390 101.3000650  43.4627010
 100.1036370 100.8002890  44.8010580  95.6400450 101.5822150  54.7791640
  95.6115880 101.9865100  53.9120070  95.4765420 100.6532510  54.6163240
 105.6371240  86.8723060  38.2231420 105.3243900  86.9649890  39.1230490
 106.3983710  87.4504090  38.1728850  92.1553380  94.2382860  42.6808760
  92.0350980  94.9644950  42.0690030  91.8454270  93.4685770  42.2036670
 107.5915270 102.3649250  56.0755810 108.0674990 102.8432140  56.7544890
 108.2122430 102.2966740  55.3501310  89.7938750  97.4098000  48.4877400
  89.8719170  97.5446770  47.5433120  90.4080430  96.7013890  48.6805520
  91.0386380  99.1098190  44.8983580  90.6314460  99.2512780  44.0437180
  91.9299390  98.8258350  44.6954790 106.9948520  99.5562100  53.2355820
 107.1211580  99.3173980  52.3173000 107.0369900  98.7246640  53.7077900
 100.8565260 103.2590100  51.8050630 101.3709930 103.1698110  52.6073060
 100.0134340 103.6049800  52.0978540 102.8319660 103.5445440  41.2334630
 102.6720800 103.2548380  42.1316460 102.6666370 102.7685570  40.6979860
  95.3108040 103.3243970  43.0106250  95.1350520 102.4079510  42.7974050
  94.4563780 103.6831260  43.2504050 102.5345790 101.0533000  39.7932630
 101.8410950 101.0510290  39.1334910 103.2768650 100.6292320  39.3626800
 102.0995720 102.6795710  43.8681120 102.5552670 101.8985090  44.1819740
 102.4388240 103.3902530  44.4122300 106.8472530  91.6094560  54.2005560
 106.2316800  92.1174230  53.6721020 106.5268950  90.7092890  54.1431500
  89.8498270  98.4512170  51.0271860  90.0129310  97.9817530  50.2091230
  90.3150720  97.9435730  51.6920700  94.6217040  87.5817930  46.0632430
  94.1785190  88.3627470  45.7316950  95.1802030  87.9047820  46.7703370
  98.9086850  90.4486450  51.6667750  98.4466220  90.6569470  52.4787690
  98.5064960  89.6345800  51.3638420 103.9091360  91.6695400  52.7964410
 103.0584950  91.3701150  53.1173480 103.7493150  91.9137410  51.8848230
 101.0041070  93.1697150  54.8963200 101.3294480  92.3360900  54.5565430
 101.7921400  93.6925670  55.0441530  97.7375860  87.2028630  40.9438260
  97.1130040  87.1988500  41.6691570  97.6505980  86.3359590  40.5474230
  96.6592940  88.1265260  47.9222030  96.9565270  89.0328090  47.8414050
  97.2078500  87.6384040  47.3081600  94.4131260  92.7051500  43.7913680
  94.1872180  92.4888670  44.6960300  93.6323790  93.1379960  43.4459650
 101.6429020  92.7114870  42.3904330 101.0437910  93.4350670  42.2067950
 102.1908630  92.6491650  41.6080780  96.8530470  93.6037080  54.4573950
  96.7574070  92.6631810  54.3074350  97.6962450  93.8252150  54.0622020
 100.2493890  91.3478410  44.4207610 100.6423460  91.6650610  43.6076300
 100.6110740  90.4690290  44.5352130  91.9841010  90.0150750  52.6107730
  91.5904400  90.8625960  52.8180510  91.2959410  89.3777120  52.8016370
  98.5586060  90.0985720  55.6804470  97.8684380  89.9057920  56.3150560
  99.3018360  90.3820360  56.2128770  89.2858060  87.9379210  46.6437810
  88.9971110  88.5082070  47.3562790  90.0303820  87.4583660  47.0069040
  89.4728290  91.8799330  37.8540530  89.3902960  92.8230090  37.9955520
  89.1211350  91.7374240  36.9752880 100.8349030  93.9384160  48.5158390
 100.1030150  94.4470970  48.8648490 100.4373370  93.1214140  48.2147170
  97.2726420  90.6138360  46.9210880  97.2762480  90.1728310  46.0715420
  98.1677540  90.9355690  47.0282700  93.1228800  90.4964850  45.8805090
  92.7828850  90.9740080  46.6372140  92.3606120  90.0429970  45.5206190
  97.3346570  91.6150440  39.9117640  97.4559390  91.5736920  40.8603460
  96.9495080  92.4774590  39.7564370 101.2974940  89.3917840  47.9281330
 101.3147680  89.8426490  48.7723180 101.0490520  88.4923480  48.1414770
  96.3468070  93.9251580  39.3100940  95.7784970  93.4769830  38.6836850
  97.0557070  94.2844360  38.7766090 104.7245690  86.8050020  53.7667710
 105.0491460  86.0739680  54.2925690 104.7602200  86.4863660  52.8648700
  91.4237250  97.8263600  53.1867670  91.0392040  97.1857270  53.7850630
  91.7349440  98.5299720  53.7562400  97.5734390  94.6740140  48.6676290
  97.9404520  94.1998710  49.4137630  97.3839450  95.5481710  49.0084630
  90.4374880  89.4183830  44.7969760  90.1521800  89.0539500  45.6348380
  90.3753740  88.6864290  44.1832900  95.3633760  93.7148780  50.9860500
  95.0590830  94.5940760  51.2110860  96.3180220  93.7748570  51.0217940
  93.8915550  97.9209770  41.5827350  93.1177810  97.3807390  41.4226070
  94.6210180  97.4016380  41.2445110 104.6503530  96.9175130  47.3753740
 105.3702650  97.4130420  46.9849850 104.4485350  96.2393020  46.7307610
 100.1113470  88.3113090  41.5183130  99.2978080  87.8126260  41.4428440
  99.9175420  89.1511340  41.1019480 100.0322330  96.9884190  53.2622740
  99.9659640  96.0679860  53.0080330  99.4027470  97.0859630  53.9767380
 102.8261860  92.6832740  39.8145290 103.7141480  92.9949970  39.6396630
 102.7966950  91.8104990  39.4225870  93.9352950  97.5890150  45.2206160
  94.4531620  96.7858410  45.1663050  93.4836970  97.5269290  46.0622990
  98.8222450  98.8556430  40.4933460  99.1638150  99.5998660  39.9976780
  97.9935160  99.1687550  40.8558290  91.4197490  94.5551520  52.1331860
  91.0612430  95.2205370  52.7205200  91.1252050  93.7235070  52.5044480
  94.6210610  95.0135760  55.0171410  94.3210750  95.1592940  54.1199230
  95.3921850  94.4541050  54.9244800  99.9639060  99.8104760  53.0126540
  99.9783600  98.8785720  52.7945450  99.2564160  99.8964520  53.6516310
 105.0976130  93.9944580  39.2825150 105.0139850  94.4258800  38.4321590
 105.8170320  94.4542930  39.7151970 106.1750270  96.4512100  52.3595120
 105.4498460  97.0440880  52.1624510 106.7025730  96.4435640  51.5608490
 106.1263380 100.8486840  42.0107280 105.4839540 100.1942460  42.2851000
 105.7394040 101.2541930  41.2347950 101.7049860  98.1772270  45.8578970
 102.0573680  97.5800400  45.1980340 100.8212190  97.8516500  46.0287220
  97.7913140  98.9369960  43.2649380  98.4784270  99.4839170  43.6456970
  97.0045560  99.4810690  43.2998990  89.9305540  94.5542780  38.7566460
  90.8000390  94.8367580  39.0402380  89.4395860  95.3678650  38.6415270
  97.0940350  95.9415990  42.8774740  97.5503130  96.7521240  43.1034930
  96.7428560  95.6239130  43.7093230  99.3972960 101.4522330  50.1067040
 100.0415180 101.6581710  50.7840460  99.7602400 100.6910730  49.6537890
  92.9952130  86.2853640  43.3497260  92.8666760  86.2771540  44.2982180
  92.1714150  86.6236730  42.9988270 100.6705040  99.4554680  48.8244490
 101.3127270  98.7547840  48.9376660 101.1954390 100.2353120  48.6441380
 104.5160760  99.7403300  38.5483630 104.2898340  99.0233740  39.1408270
 104.1256960  99.4915740  37.7105380 102.4442660 100.2549580  52.0280550
 102.7798900 100.8416270  52.7058470 101.5243000 100.1242290  52.2578340
  90.2976790 103.7670160  39.3228090  90.6574430 104.3659500  38.6685360
  90.1569130 104.3130050  40.0963120  89.9946060  88.0444760  52.8103960
  89.2804580  88.2441680  53.4156570  90.4141100  87.2684330  53.1818760
 104.0977010  97.6575240  40.2097790 103.8098710  98.1187930  40.9975670
 104.8929180  97.1973010  40.4782010  90.2818650 102.0325020  53.7970490
  90.3909770 101.0919760  53.6565880  89.6299210 102.2979770  53.1484220
  98.2731240 100.3040910  55.1968610  97.9528110  99.5850150  55.7414300
  97.5989600 100.9795980  55.2704670  96.3145410 101.1501360  40.1401760
  96.3055510 101.8831050  39.5246270  95.3943770 100.9032940  40.2328720
  91.9152050  96.3716250  40.8848520  91.3080000  97.1115150  40.8943820
  92.3901400  96.4615610  40.0586720 101.4884840  90.5367070  50.5605410
 101.8565660  89.7162280  50.8884980 100.6283040  90.5968960  50.9761060
 104.8546870  89.4924010  41.3692970 104.2260030  89.5969680  40.6551200
 104.3598790  89.7120790  42.1586850  99.3005010 101.2129600  38.8026950
  99.4016990 101.0093590  37.8728930  98.4006750 100.9587880  39.0074730
  96.8230900  91.7709960  42.7850850  96.1147050  92.2396300  43.2264460
  97.1075380  91.1131970  43.4196040  98.4486830  93.1906660  50.7843380
  98.9472080  93.6652480  51.4495230  98.5909780  92.2670180  50.9913410
 100.8546330  88.4960620  44.2246640 100.7314110  88.5146750  43.2756150
 101.8030890  88.5439560  44.3445040  97.9423120 103.7315920  43.4974620
  98.1964620 103.6937310  42.5753990  96.9935600 103.6049250  43.4902870
  95.0265920  90.0795040  40.1601560  95.8756450  90.5165190  40.0941750
  94.6597190  90.3915300  40.9873620 105.6553690  89.4074620  51.6271770
 105.1527290  90.1480020  51.9665580 106.4710350  89.7958620  51.3108560
 103.9475700  94.6507800  45.0733130 103.0065840  94.6658030  45.2480820
 104.2619770  93.8643760  45.5193430  93.9257340  96.3327400  38.6337090
  94.6920610  96.2208760  39.1962520  94.0032030  95.6365370  37.9813860
  92.6204100  93.7652470  39.3169980  92.7007690  92.8179980  39.4287380
  93.5123850  94.0959350  39.4230640 105.9501280 101.8216650  46.7487390
 106.0748700 102.6447820  47.2211200 106.8166840 101.6107380  46.4011540
  93.4218810 103.9147860  46.4204520  94.1581290 103.3663320  46.6913090
  93.8059730 104.7803870  46.2810510  90.3064290  99.9821430  42.2946030
  89.3804070 100.2242570  42.2851440  90.7720720 100.8095690  42.1730780
  92.4277090 103.0993930  55.6090100  93.2289820 103.4205980  56.0225500
  91.9128910 102.7389510  56.3310010  96.5321120 103.0878170  38.2430090
  97.3249730 103.3767000  37.7911880  96.0125470 102.6570340  37.5642570
 101.2641720  99.2073800  55.5565510 100.6579880  99.2305400  54.8161260
 100.9595830  98.4756840  56.0932760 102.6942090 102.9354090  54.1674920
 103.6463840 102.8512110  54.1175160 102.5470310 103.5995800  54.8408710
 105.5851290 102.3148300  39.6666830 105.2992800 101.9013440  38.8521010
 105.3870840 103.2436010  39.5467350  90.1474900  95.5867390  54.5526150
  90.6513920  95.0074670  55.1242380  89.4082320  95.8707620  55.0902520
  97.0498520  98.3081580  38.1072440  96.9449160  97.6933930  38.8333820
  96.8822740  97.7847470  37.3235450  97.2012840  96.9938380  54.0861670
  96.4358510  97.5623380  54.0016340  97.3828800  96.7014590  53.1929900
 100.2901250  97.3701610  38.7114430  99.7411350  97.8170910  39.3557170
 100.9120510  96.8650860  39.2352100 104.3436190  98.7243710  54.6436690
 105.0845660  99.0619470  54.1404150 103.5808870  98.8935770  54.0906460
  92.1797980  93.7296980  55.4476220  92.2203320  93.4310850  56.3561450
  93.0343480  94.1304590  55.2883740  95.9576370  96.3292530  40.6079730
  96.3792790  96.1632400  41.4511120  96.0827210  95.5192760  40.1134870
  94.1203790  92.3089080  53.4150710  93.5900250  91.8180030  52.7874050
  94.7891860  92.7373280  52.8808640  98.4704010  95.3530140  37.8556830
  98.9909670  94.6379160  37.4897980  99.1172410  95.9916010  38.1557340
 103.0181850  96.7758540  53.1791900 103.4322870  96.9303620  54.0282320
 102.0832850  96.9013760  53.3417680 103.4904020  94.1154700  55.1831050
 104.0724790  93.3607020  55.0951530 103.6665790  94.6462140  54.4062530
  94.6076090  89.2751450  53.4948000  94.5132960  88.6572200  52.7698870
  94.0273480  90.0017740  53.2677910  97.3737530  87.8324690  50.5275390
  96.9254830  87.8548950  49.6820940  96.7402730  87.4343710  51.1245690
  97.7797080  96.7279020  51.1487830  98.1985190  97.5711750  50.9764070
  96.8605710  96.8651060  50.9194610 100.1160980  94.4595200  52.5325670
 100.2357190  93.8636340  53.2720510 100.9754980  94.4964890  52.1126970
 102.4548880  95.0132390  51.1088180 101.9284100  95.5375010  50.5053320
 102.7980220  95.6459780  51.7397910  94.8535270  92.4025760  37.5537890
  94.6524330  91.5393120  37.9151230  94.6827320  92.3159120  36.6159490
  95.6304500 103.0332030  52.2645560  95.0925590 103.7578090  51.9454260
  95.8838460 102.5562370  51.4742900  96.8829750  91.0016550  53.7901490
  97.4729440  90.6932400  54.4779310  96.0649990  90.5296300  53.9461390
 101.7023180  90.6182360  54.0234510 101.0138700  89.9563900  53.9584500
 102.4229200  90.1720630  54.4682970 102.3323580  87.2133990  40.0824770
 102.6125870  86.3701890  40.4384190 101.5589310  87.4457100  40.5963520
  93.6518070  89.5026380  37.5415770  93.9543970  89.5093810  36.6334920
  94.3912660  89.1524240  38.0383430  98.4866710 104.2683240  52.5232210
  98.4125410 105.1718380  52.8304580  97.5845550 103.9495140  52.4954280
  96.8703000  88.4461000  38.5271970  96.5225000  87.7684990  37.9474420
  97.0715770  87.9850510  39.3415360  99.0352040 103.4341750  40.1458570
  99.9302830 103.7726720  40.1677330  99.0669670 102.7121160  39.5182850
  92.6748200  98.8068800  38.3745570  93.1123070  99.3498470  39.0303150
  93.1595930  97.9815750  38.3841910  89.8894000 101.5957830  45.8265830
  90.2197010 100.7278890  45.5944470  90.3185000 101.8016350  46.6570790
  94.4855920  99.9266840  43.4867800  94.1851460  99.8031810  44.3871710
  94.3793410  99.0675430  43.0783530  90.3784210 102.4628420  48.5647460
  89.9415200 102.6429220  49.3971610  90.9461890 103.2203040  48.4229180
 106.0146390 101.9645420  52.8524770 105.4148380 102.0237980  52.1088690
 106.1440290 101.0250400  52.9821620 107.2547840  99.7063240  38.1894480
 106.4240800  99.7739890  38.6601710 107.4319670 100.5967360  37.8861340
 106.7104300  96.4510720  40.6928680 107.4723210  97.0207370  40.7988370
 106.7258670  95.8837920  41.4636990  90.2108640  94.9748650  44.9236340
  89.5557480  94.7060290  44.2796040  91.0486590  94.8653130  44.4738320
 107.7164270  97.3060820  45.5370610 108.0873100  96.5228140  45.1306580
 108.3566200  97.9949920  45.3587910 104.6998030  98.6897400  50.9500930
 103.8857870  99.1194560  51.2126720 105.1072230  99.3015810  50.3369980
 106.7623470  96.7445090  37.8501200 107.0372310  97.6523970  37.7220420
 106.5734210  96.6807620  38.7863190 103.1599080  89.7689940  39.1454830
 103.5783960  89.5820920  38.3051490 102.8535140  88.9168990  39.4557760
 106.6588810  94.6814080  42.8430630 106.2832410  93.9142010  42.4111920
 105.9291930  95.0636780  43.3305560  91.2484570  95.3601220  49.4639680
  91.6157610  95.2728620  50.3435700  90.6795390  94.5967770  49.3646540
 106.0488430  93.8285600  52.4770150 105.8174520  93.5998350  51.5768100
 106.3092980  94.7485150  52.4315040  90.8000570  92.2710310  53.3698100
  89.9056620  92.2377070  53.7091810  91.3398120  92.4697100  54.1349350
 104.4876500  89.0542030  55.2549850 105.3646680  89.0625430  55.6383850
 104.4997340  88.3172870  54.6442200  89.4246720  92.1847580  40.8661670
  88.5210800  92.4477780  40.6913330  89.9087340  92.4558750  40.0861630
 105.9339770  92.9071570  46.1437870 106.4577250  92.4134220  45.5128040
 106.5199190  93.0421930  46.8885440 106.1129490  92.9911440  49.6657420
 105.1632200  92.9574980  49.7802410 106.2942500  93.9011550  49.4307190
  91.9673930  91.2413120  38.7756050  92.6765630  90.8196340  38.2903330
  91.2513870  91.3088350  38.1439400  91.6148090  87.2952450  37.8158700
  92.3376220  87.8361390  38.1339920  91.8872610  87.0215870  36.9400240
 105.4239740  92.1644920  42.0830280 105.9198860  91.9315790  42.8679160
 105.2255810  91.3256760  41.6667920  91.3040280  86.5458640  47.7181320
  91.9516470  85.9956020  47.2776480  91.7242120  86.8001790  48.5397130
 106.8526900  90.8005870  44.6167960 106.7426180  90.6461910  45.5550230
 107.6134490  90.2726810  44.3743370 105.1992620  86.7400000  51.0750960
 105.8364840  87.3534140  51.4410150 105.3467510  86.7760660  50.1300190
 107.7417170  88.6313790  37.8574100 108.6666480  88.4994970  37.6492390
 107.7192960  88.7106610  38.8110550 107.8155660  89.4024450  40.4830810
 107.0207160  89.3369570  41.0123720 108.0198940  90.3375090  40.4716160
 104.7574080 103.4416000  44.4769200 105.3533150 103.1200570  43.8003620
 105.0152230 102.9687820  45.2682470  91.0572280  86.7014310  50.4606640
  90.7087100  87.1578130  51.2264820  90.7259980  85.8071440  50.5429070
  92.6636650  99.8733910  54.6259830  92.6206280  99.5026820  55.5074290
  92.7947660 100.8111480  54.7661650  96.3642680 101.4293500  50.2269550
  96.1234040 101.6968060  49.3400070  97.3045320 101.5999230  50.2820410
  98.5697100  87.8926190  53.9826060  98.5085990  88.4848020  54.7321470
  99.5097480  87.7852150  53.8376320 101.2071660  87.5496250  53.6218350
 101.8212070  87.8675540  52.9599430 101.7521220  87.0644840  54.2414210
 107.6246840 103.4487880  51.0280190 107.1305120 103.8456750  50.3107320
 107.0160130 102.8237090  51.4217470  91.7292920  86.2290510  53.7357410
  92.2775910  86.0478560  52.9723520  91.7948230  85.4384620  54.2713720
  92.5024680 102.8196160  51.7457610  91.9085000 102.6880860  52.4847650
  92.4948520 101.9834300  51.2799710 101.9479700  86.1128390  49.9487640
 101.0739540  86.4463500  49.7460570 101.8390450  85.6401570  50.7739510
 102.8551680  88.3199260  51.3329360 102.5265040  87.5051020  50.9531090
 103.8033980  88.2769070  51.2095050 105.3086290 104.0911300  48.3066930
 104.8489260 104.8427110  47.9324950 104.6798750 103.3717770  48.2481730
  92.1336910 100.1854540  50.6965650  91.4070970  99.5659830  50.6291600
  92.1946060 100.5795150  49.8263730  95.7382010 102.3999540  47.4815060
  96.2547030 101.7886900  46.9563320  96.3879390 102.9028320  47.9726070
  98.4777510 103.2908030  48.3084040  98.7655320 103.0362330  47.4317050
  98.9900730 102.7385390  48.8989610  99.6954520  87.0298230  48.8880550
  98.9126310  87.5043730  49.1677310  99.4017450  86.1253060  48.7793730
 104.2475590  87.7321330  46.9329640 104.6883680  87.6766430  46.0851240
 103.9783180  88.6479340  47.0039820 106.1114160  87.3636570  44.9438460
 106.0502560  86.4197790  44.7969480 106.8906190  87.4716660  45.4891920
  90.4166910 103.5028930  43.9062410  90.2488950 102.8699610  44.6044300
  89.5501420 103.7088330  43.5556600  91.0394930  87.3345710  41.4094270
  91.7974290  87.4474590  40.8358300  90.5772100  88.1714910  41.3637700
  97.5808740  89.4484980  44.3996580  96.7683250  89.0741870  44.0592460
  98.0850380  88.6930060  44.7017770 102.0833720  86.1127430  45.6379650
 102.6863090  86.6847640  46.1128170 101.3426710  86.6766870  45.4153550
 105.2268320  86.5148990  40.9119930 105.4218950  87.4132440  41.1787360
 104.4398190  86.2836070  41.4052880  92.0229610 102.1962160  41.3512550
  91.4977230 102.5770190  40.6474510  91.9474190 102.8212930  42.0722260
  93.4120080  87.8609760  39.9496240  93.9412840  87.0739560  39.8204190
  94.0448400  88.5400950  40.1831770  95.6057920  87.5984900  43.0041630
  94.9760660  86.8972210  43.1711760  95.0663060  88.3589030  42.7874790
  98.5449870 104.2124130  55.6752240  99.4717180 103.9768400  55.7188200
  98.5300300 105.0396130  55.1938270 106.7794930 103.7549700  42.6726490
 106.9547120 103.0687440  42.0287410 106.0816500 104.2796750  42.2803160
  95.7313480  86.8768880  55.4394120  95.4497750  87.3802480  54.6754940
  96.1133180  86.0790630  55.0736250  94.6222580 104.1444540  40.2261800
  95.3541400 103.8603820  39.6785690  94.8816250 103.9057820  41.1161180
  93.7837370 100.2609270  40.2308130  93.1546250 100.7294370  40.7793960
  93.8985200  99.4158490  40.6654320 102.3328940  86.2922460  56.0174590
 102.2194390  86.6117070  56.9126110 103.1498680  86.6934970  55.7211870
 105.1127430 103.4393990  55.4993280 105.9052750 102.9443220  55.2919240
 105.4060580 104.1184130  56.1068890 101.2387090  94.3114930  26.3809330
 101.1581140  93.3969540  26.1101040 100.8251510  94.8082000  25.6749040
  99.3705130  96.0893950  28.2618600  98.5947230  95.6094390  28.5517170
 100.0218060  95.4099600  28.0874760  93.3870960  96.4013760  29.1394360
  92.5555840  96.1462470  29.5390870  93.9951940  96.4724530  29.8752280
 103.3912560 100.4954140  27.0417730 102.9294090  99.7241380  27.3704900
 104.2038110 100.5220210  27.5470180  93.3672220 100.4353850  29.3352380
  93.6700260  99.5451590  29.1562600  94.1115810 100.9924070  29.1074630
  91.7962910  91.3615650  22.9236750  90.9079610  91.7031620  22.8216630
  92.0804100  91.1615970  22.0317580  89.7595920  93.9621300  28.8076450
  90.3312030  93.1943500  28.8080090  89.7597460  94.2610060  27.8983060
  99.6175870 102.7812150  26.6621720  98.9987310 103.2369650  26.0916160
 100.4727650 102.9363610  26.2611420  98.8114120  98.7651140  28.2688760
  98.7422400  97.8241080  28.1077890  99.5733980  98.8552550  28.8411330
  91.0020790  89.3705660  30.5945380  90.8223630  88.4731410  30.8748140
  90.6000870  89.9177530  31.2692330  99.8419290  91.5721520  28.4957690
 100.2184110  90.6993400  28.3831360  99.7438800  91.9080220  27.6048130
  93.9724300  89.9447150  23.9575130  94.0791050  90.8450880  24.2643890
  93.0616660  89.8965120  23.6669780 103.6243410  89.0671960  25.4286030
 104.4453030  88.5768530  25.4711510 103.6577490  89.6569620  26.1817870
  91.6207460  91.8666160  29.2027720  92.3017570  92.1304530  29.8215120
  91.3055510  91.0267030  29.5365730  95.8132030  92.9133520  28.2900310
  96.3210250  93.4114490  28.9305330  96.3445270  92.1368720  28.1139670
 107.9142960  91.0838710  31.9929660 107.2095130  91.4720420  31.4744770
 108.1800880  91.7789000  32.5950590  94.0968130  87.5532080  32.5563730
  94.0986570  88.0704470  31.7509630  93.2672440  87.0762260  32.5333660
 100.4839220  97.6651390  24.0553630  99.8656490  98.1300840  23.4916350
 100.9962470  98.3578870  24.4723140  95.3470980  97.1927260  30.7337230
  95.0140360  97.8196180  31.3758300  95.5237660  97.7189140  29.9538900
 103.8604890  91.0072340  28.2013570 103.1560460  91.2957230  28.7816680
 104.2217050  91.8172450  27.8413130  93.7783460  89.2642040  30.5634180
  94.1200270  90.1084090  30.2688050  92.8399270  89.4125780  30.6799520
  94.5590080  99.1608060  32.5486410  95.1764080  99.8359140  32.2670860
  93.6983200  99.5696040  32.4573910  89.8522420  98.3507920  21.4293260
  89.4750400  98.8395020  20.6978160  90.1095490  99.0233200  22.0599790
 105.4767670 100.6247470  30.4641050 104.7931190 101.2946580  30.4557720
 106.0161960 100.8228120  29.6985910 106.9291810  90.4527130  28.5922780
 105.9816720  90.4866110  28.7238210 107.2541800  91.2666080  28.9772140
  97.4611350  86.7524310  26.8878770  97.7686330  86.1971200  26.1714270
  96.5312050  86.8868770  26.7051760 103.0126410 102.4691600  29.1786230
 103.0253570 102.0653890  28.3108490 102.4601630 103.2438890  29.0747660
 104.3071830  99.1907820  24.2676400 104.1968160  98.2482150  24.3925820
 104.3040080  99.5523460  25.1539160 102.4111850  97.3721440  30.5068840
 102.8280640  97.1581550  29.6722300 103.1351670  97.6294230  31.0777460
  99.8492110  94.8173140  23.6238890  98.9221390  94.7510520  23.8527360
 100.0016930  95.7553270  23.5094130  99.8361190  91.0890140  20.6206050
  98.8964860  91.2504100  20.7058510 100.1544450  91.8075820  20.0742040
 106.3573950  95.7708660  30.5985080 105.5292580  95.8401750  30.1235210
 106.9524430  96.3562970  30.1300910 103.8789400  96.3793440  24.1274140
 103.2601820  96.0412990  23.4800440 103.8613850  95.7353200  24.8353330
 103.3215960  92.5577980  31.5439950 102.9087140  93.3831690  31.7979940
 102.5891910  91.9723020  31.3516310  95.4548750  95.3437880  26.4058620
  95.0505750  94.6315130  25.9104520  95.5411870  94.9991120  27.2946660
  95.9230450  99.0305440  28.5697830  95.6258740  98.4250910  27.8905610
  96.8730270  99.0682750  28.4587190  94.1677370  92.1181090  30.1857660
  94.7191960  92.2276430  29.4110910  94.6820880  92.4918690  30.9012890
 104.0116060 102.6037310  32.2320930 103.5346620 103.4109500  32.0393540
 103.3277850 101.9515640  32.3847140  95.0148880  98.7687130  35.2205630
  94.1177410  98.9927100  35.4679030  95.0401750  98.8922070  34.2717030
 102.0554100  95.6180250  21.1346890 102.4947380  94.7802680  20.9884710
 102.7682520  96.2509650  21.2211030  93.8420100  95.6400450  33.7963000
  93.7027870  96.5123250  34.1650400  92.9601460  95.2973260  33.6510940
 100.1649480 100.5576320  25.1028130 100.6045390 101.3000650  24.6883520
 100.1036370 100.8002890  26.0267090  95.6400450 101.5822150  36.0048150
  95.6115880 101.9865100  35.1376580  95.4765420 100.6532510  35.8419750
 105.6371240  86.8723060  19.4487930 105.3243900  86.9649890  20.3487000
 106.3983710  87.4504090  19.3985360  92.1553380  94.2382860  23.9065270
  92.0350980  94.9644950  23.2946540  91.8454270  93.4685770  23.4293180
 107.5915270 102.3649250  37.3012320 108.0674990 102.8432140  37.9801400
 108.2122430 102.2966740  36.5757820  89.7938750  97.4098000  29.7133910
  89.8719170  97.5446770  28.7689630  90.4080430  96.7013890  29.9062030
  91.0386380  99.1098190  26.1240090  90.6314460  99.2512780  25.2693690
  91.9299390  98.8258350  25.9211300 106.9948520  99.5562100  34.4612330
 107.1211580  99.3173980  33.5429510 107.0369900  98.7246640  34.9334410
 100.8565260 103.2590100  33.0307140 101.3709930 103.1698110  33.8329570
 100.0134340 103.6049800  33.3235050 102.8319660 103.5445440  22.4591140
 102.6720800 103.2548380  23.3572970 102.6666370 102.7685570  21.9236370
  95.3108040 103.3243970  24.2362760  95.1350520 102.4079510  24.0230560
  94.4563780 103.6831260  24.4760560 102.5345790 101.0533000  21.0189140
 101.8410950 101.0510290  20.3591420 103.2768650 100.6292320  20.5883310
 102.0995720 102.6795710  25.0937630 102.5552670 101.8985090  25.4076250
 102.4388240 103.3902530  25.6378810 106.8472530  91.6094560  35.4262070
 106.2316800  92.1174230  34.8977530 106.5268950  90.7092890  35.3688010
  89.8498270  98.4512170  32.2528370  90.0129310  97.9817530  31.4347740
  90.3150720  97.9435730  32.9177210  94.6217040  87.5817930  27.2888940
  94.1785190  88.3627470  26.9573460  95.1802030  87.9047820  27.9959880
  98.9086850  90.4486450  32.8924260  98.4466220  90.6569470  33.7044200
  98.5064960  89.6345800  32.5894930 103.9091360  91.6695400  34.0220920
 103.0584950  91.3701150  34.3429990 103.7493150  91.9137410  33.1104740
 101.0041070  93.1697150  36.1219710 101.3294480  92.3360900  35.7821940
 101.7921400  93.6925670  36.2698040  97.7375860  87.2028630  22.1694770
  97.1130040  87.1988500  22.8948080  97.6505980  86.3359590  21.7730740
  96.6592940  88.1265260  29.1478540  96.9565270  89.0328090  29.0670560
  97.2078500  87.6384040  28.5338110  94.4131260  92.7051500  25.0170190
  94.1872180  92.4888670  25.9216810  93.6323790  93.1379960  24.6716160
 101.6429020  92.7114870  23.6160840 101.0437910  93.4350670  23.4324460
 102.1908630  92.6491650  22.8337290  96.8530470  93.6037080  35.6830460
  96.7574070  92.6631810  35.5330860  97.6962450  93.8252150  35.2878530
 100.2493890  91.3478410  25.6464120 100.6423460  91.6650610  24.8332810
 100.6110740  90.4690290  25.7608640  91.9841010  90.0150750  33.8364240
  91.5904400  90.8625960  34.0437020  91.2959410  89.3777120  34.0272880
  98.5586060  90.0985720  36.9060980  97.8684380  89.9057920  37.5407070
  99.3018360  90.3820360  37.4385280  89.2858060  87.9379210  27.8694320
  88.9971110  88.5082070  28.5819300  90.0303820  87.4583660  28.2325550
  89.4728290  91.8799330  19.0797040  89.3902960  92.8230090  19.2212030
  89.1211350  91.7374240  18.2009390 100.8349030  93.9384160  29.7414900
 100.1030150  94.4470970  30.0905000 100.4373370  93.1214140  29.4403680
  97.2726420  90.6138360  28.1467390  97.2762480  90.1728310  27.2971930
  98.1677540  90.9355690  28.2539210  93.1228800  90.4964850  27.1061600
  92.7828850  90.9740080  27.8628650  92.3606120  90.0429970  26.7462700
  97.3346570  91.6150440  21.1374150  97.4559390  91.5736920  22.0859970
  96.9495080  92.4774590  20.9820880 101.2974940  89.3917840  29.1537840
 101.3147680  89.8426490  29.9979690 101.0490520  88.4923480  29.3671280
  96.3468070  93.9251580  20.5357450  95.7784970  93.4769830  19.9093360
  97.0557070  94.2844360  20.0022600 104.7245690  86.8050020  34.9924220
 105.0491460  86.0739680  35.5182200 104.7602200  86.4863660  34.0905210
  91.4237250  97.8263600  34.4124180  91.0392040  97.1857270  35.0107140
  91.7349440  98.5299720  34.9818910  97.5734390  94.6740140  29.8932800
  97.9404520  94.1998710  30.6394140  97.3839450  95.5481710  30.2341140
  90.4374880  89.4183830  26.0226270  90.1521800  89.0539500  26.8604890
  90.3753740  88.6864290  25.4089410  95.3633760  93.7148780  32.2117010
  95.0590830  94.5940760  32.4367370  96.3180220  93.7748570  32.2474450
  93.8915550  97.9209770  22.8083860  93.1177810  97.3807390  22.6482580
  94.6210180  97.4016380  22.4701620 104.6503530  96.9175130  28.6010250
 105.3702650  97.4130420  28.2106360 104.4485350  96.2393020  27.9564120
 100.1113470  88.3113090  22.7439640  99.2978080  87.8126260  22.6684950
  99.9175420  89.1511340  22.3275990 100.0322330  96.9884190  34.4879250
  99.9659640  96.0679860  34.2336840  99.4027470  97.0859630  35.2023890
 102.8261860  92.6832740  21.0401800 103.7141480  92.9949970  20.8653140
 102.7966950  91.8104990  20.6482380  93.9352950  97.5890150  26.4462670
  94.4531620  96.7858410  26.3919560  93.4836970  97.5269290  27.2879500
  98.8222450  98.8556430  21.7189970  99.1638150  99.5998660  21.2233290
  97.9935160  99.1687550  22.0814800  91.4197490  94.5551520  33.3588370
  91.0612430  95.2205370  33.9461710  91.1252050  93.7235070  33.7300990
  94.6210610  95.0135760  36.2427920  94.3210750  95.1592940  35.3455740
  95.3921850  94.4541050  36.1501310  99.9639060  99.8104760  34.2383050
  99.9783600  98.8785720  34.0201960  99.2564160  99.8964520  34.8772820
 105.0976130  93.9944580  20.5081660 105.0139850  94.4258800  19.6578100
 105.8170320  94.4542930  20.9408480 106.1750270  96.4512100  33.5851630
 105.4498460  97.0440880  33.3881020 106.7025730  96.4435640  32.7865000
 106.1263380 100.8486840  23.2363790 105.4839540 100.1942460  23.5107510
 105.7394040 101.2541930  22.4604460 101.7049860  98.1772270  27.0835480
 102.0573680  97.5800400  26.4236850 100.8212190  97.8516500  27.2543730
  97.7913140  98.9369960  24.4905890  98.4784270  99.4839170  24.8713480
  97.0045560  99.4810690  24.5255500  89.9305540  94.5542780  19.9822970
  90.8000390  94.8367580  20.2658890  89.4395860  95.3678650  19.8671780
  97.0940350  95.9415990  24.1031250  97.5503130  96.7521240  24.3291440
  96.7428560  95.6239130  24.9349740  99.3972960 101.4522330  31.3323550
 100.0415180 101.6581710  32.0096970  99.7602400 100.6910730  30.8794400
  92.9952130  86.2853640  24.5753770  92.8666760  86.2771540  25.5238690
  92.1714150  86.6236730  24.2244780 100.6705040  99.4554680  30.0501000
 101.3127270  98.7547840  30.1633170 101.1954390 100.2353120  29.8697890
 104.5160760  99.7403300  19.7740140 104.2898340  99.0233740  20.3664780
 104.1256960  99.4915740  18.9361890 102.4442660 100.2549580  33.2537060
 102.7798900 100.8416270  33.9314980 101.5243000 100.1242290  33.4834850
  90.2976790 103.7670160  20.5484600  90.6574430 104.3659500  19.8941870
  90.1569130 104.3130050  21.3219630  89.9946060  88.0444760  34.0360470
  89.2804580  88.2441680  34.6413080  90.4141100  87.2684330  34.4075270
 104.0977010  97.6575240  21.4354300 103.8098710  98.1187930  22.2232180
 104.8929180  97.1973010  21.7038520  90.2818650 102.0325020  35.0227000
  90.3909770 101.0919760  34.8822390  89.6299210 102.2979770  34.3740730
  98.2731240 100.3040910  36.4225120  97.9528110  99.5850150  36.9670810
  97.5989600 100.9795980  36.4961180  96.3145410 101.1501360  21.3658270
  96.3055510 101.8831050  20.7502780  95.3943770 100.9032940  21.4585230
  91.9152050  96.3716250  22.1105030  91.3080000  97.1115150  22.1200330
  92.3901400  96.4615610  21.2843230 101.4884840  90.5367070  31.7861920
 101.8565660  89.7162280  32.1141490 100.6283040  90.5968960  32.2017570
 104.8546870  89.4924010  22.5949480 104.2260030  89.5969680  21.8807710
 104.3598790  89.7120790  23.3843360  99.3005010 101.2129600  20.0283460
  99.4016990 101.0093590  19.0985440  98.4006750 100.9587880  20.2331240
  96.8230900  91.7709960  24.0107360  96.1147050  92.2396300  24.4520970
  97.1075380  91.1131970  24.6452550  98.4486830  93.1906660  32.0099890
  98.9472080  93.6652480  32.6751740  98.5909780  92.2670180  32.2169920
 100.8546330  88.4960620  25.4503150 100.7314110  88.5146750  24.5012660
 101.8030890  88.5439560  25.5701550  97.9423120 103.7315920  24.7231130
  98.1964620 103.6937310  23.8010500  96.9935600 103.6049250  24.7159380
  95.0265920  90.0795040  21.3858070  95.8756450  90.5165190  21.3198260
  94.6597190  90.3915300  22.2130130 105.6553690  89.4074620  32.8528280
 105.1527290  90.1480020  33.1922090 106.4710350  89.7958620  32.5365070
 103.9475700  94.6507800  26.2989640 103.0065840  94.6658030  26.4737330
 104.2619770  93.8643760  26.7449940  93.9257340  96.3327400  19.8593600
  94.6920610  96.2208760  20.4219030  94.0032030  95.6365370  19.2070370
  92.6204100  93.7652470  20.5426490  92.7007690  92.8179980  20.6543890
  93.5123850  94.0959350  20.6487150 105.9501280 101.8216650  27.9743900
 106.0748700 102.6447820  28.4467710 106.8166840 101.6107380  27.6268050
  93.4218810 103.9147860  27.6461030  94.1581290 103.3663320  27.9169600
  93.8059730 104.7803870  27.5067020  90.3064290  99.9821430  23.5202540
  89.3804070 100.2242570  23.5107950  90.7720720 100.8095690  23.3987290
  92.4277090 103.0993930  36.8346610  93.2289820 103.4205980  37.2482010
  91.9128910 102.7389510  37.5566520  96.5321120 103.0878170  19.4686600
  97.3249730 103.3767000  19.0168390  96.0125470 102.6570340  18.7899080
 101.2641720  99.2073800  36.7822020 100.6579880  99.2305400  36.0417770
 100.9595830  98.4756840  37.3189270 102.6942090 102.9354090  35.3931430
 103.6463840 102.8512110  35.3431670 102.5470310 103.5995800  36.0665220
 105.5851290 102.3148300  20.8923340 105.2992800 101.9013440  20.0777520
 105.3870840 103.2436010  20.7723860  90.1474900  95.5867390  35.7782660
  90.6513920  95.0074670  36.3498890  89.4082320  95.8707620  36.3159030
  97.0498520  98.3081580  19.3328950  96.9449160  97.6933930  20.0590330
  96.8822740  97.7847470  18.5491960  97.2012840  96.9938380  35.3118180
  96.4358510  97.5623380  35.2272850  97.3828800  96.7014590  34.4186410
 100.2901250  97.3701610  19.9370940  99.7411350  97.8170910  20.5813680
 100.9120510  96.8650860  20.4608610 104.3436190  98.7243710  35.8693200
 105.0845660  99.0619470  35.3660660 103.5808870  98.8935770  35.3162970
  92.1797980  93.7296980  36.6732730  92.2203320  93.4310850  37.5817960
  93.0343480  94.1304590  36.5140250  95.9576370  96.3292530  21.8336240
  96.3792790  96.1632400  22.6767630  96.0827210  95.5192760  21.3391380
  94.1203790  92.3089080  34.6407220  93.5900250  91.8180030  34.0130560
  94.7891860  92.7373280  34.1065150  98.4704010  95.3530140  19.0813340
  98.9909670  94.6379160  18.7154490  99.1172410  95.9916010  19.3813850
 103.0181850  96.7758540  34.4048410 103.4322870  96.9303620  35.2538830
 102.0832850  96.9013760  34.5674190 103.4904020  94.1154700  36.4087560
 104.0724790  93.3607020  36.3208040 103.6665790  94.6462140  35.6319040
  94.6076090  89.2751450  34.7204510  94.5132960  88.6572200  33.9955380
  94.0273480  90.0017740  34.4934420  97.3737530  87.8324690  31.7531900
  96.9254830  87.8548950  30.9077450  96.7402730  87.4343710  32.3502200
  97.7797080  96.7279020  32.3744340  98.1985190  97.5711750  32.2020580
  96.8605710  96.8651060  32.1451120 100.1160980  94.4595200  33.7582180
 100.2357190  93.8636340  34.4977020 100.9754980  94.4964890  33.3383480
 102.4548880  95.0132390  32.3344690 101.9284100  95.5375010  31.7309830
 102.7980220  95.6459780  32.9654420  94.8535270  92.4025760  18.7794400
  94.6524330  91.5393120  19.1407740  94.6827320  92.3159120  17.8416000
  95.6304500 103.0332030  33.4902070  95.0925590 103.7578090  33.1710770
  95.8838460 102.5562370  32.6999410  96.8829750  91.0016550  35.0158000
  97.4729440  90.6932400  35.7035820  96.0649990  90.5296300  35.1717900
 101.7023180  90.6182360  35.2491020 101.0138700  89.9563900  35.1841010
 102.4229200  90.1720630  35.6939480 102.3323580  87.2133990  21.3081280
 102.6125870  86.3701890  21.6640700 101.5589310  87.4457100  21.8220030
  93.6518070  89.5026380  18.7672280  93.9543970  89.5093810  17.8591430
  94.3912660  89.1524240  19.2639940  98.4866710 104.2683240  33.7488720
  98.4125410 105.1718380  34.0561090  97.5845550 103.9495140  33.7210790
  96.8703000  88.4461000  19.7528480  96.5225000  87.7684990  19.1730930
  97.0715770  87.9850510  20.5671870  99.0352040 103.4341750  21.3715080
  99.9302830 103.7726720  21.3933840  99.0669670 102.7121160  20.7439360
  92.6748200  98.8068800  19.6002080  93.1123070  99.3498470  20.2559660
  93.1595930  97.9815750  19.6098420  89.8894000 101.5957830  27.0522340
  90.2197010 100.7278890  26.8200980  90.3185000 101.8016350  27.8827300
  94.4855920  99.9266840  24.7124310  94.1851460  99.8031810  25.6128220
  94.3793410  99.0675430  24.3040040  90.3784210 102.4628420  29.7903970
  89.9415200 102.6429220  30.6228120  90.9461890 103.2203040  29.6485690
 106.0146390 101.9645420  34.0781280 105.4148380 102.0237980  33.3345200
 106.1440290 101.0250400  34.2078130 107.2547840  99.7063240  19.4150990
 106.4240800  99.7739890  19.8858220 107.4319670 100.5967360  19.1117850
 106.7104300  96.4510720  21.9185190 107.4723210  97.0207370  22.0244880
 106.7258670  95.8837920  22.6893500  90.2108640  94.9748650  26.1492850
  89.5557480  94.7060290  25.5052550  91.0486590  94.8653130  25.6994830
 107.7164270  97.3060820  26.7627120 108.0873100  96.5228140  26.3563090
 108.3566200  97.9949920  26.5844420 104.6998030  98.6897400  32.1757440
 103.8857870  99.1194560  32.4383230 105.1072230  99.3015810  31.5626490
 106.7623470  96.7445090  19.0757710 107.0372310  97.6523970  18.9476930
 106.5734210  96.6807620  20.0119700 103.1599080  89.7689940  20.3711340
 103.5783960  89.5820920  19.5308000 102.8535140  88.9168990  20.6814270
 106.6588810  94.6814080  24.0687140 106.2832410  93.9142010  23.6368430
 105.9291930  95.0636780  24.5562070  91.2484570  95.3601220  30.6896190
  91.6157610  95.2728620  31.5692210  90.6795390  94.5967770  30.5903050
 106.0488430  93.8285600  33.7026660 105.8174520  93.5998350  32.8024610
 106.3092980  94.7485150  33.6571550  90.8000570  92.2710310  34.5954610
  89.9056620  92.2377070  34.9348320  91.3398120  92.4697100  35.3605860
 104.4876500  89.0542030  36.4806360 105.3646680  89.0625430  36.8640360
 104.4997340  88.3172870  35.8698710  89.4246720  92.1847580  22.0918180
  88.5210800  92.4477780  21.9169840  89.9087340  92.4558750  21.3118140
 105.9339770  92.9071570  27.3694380 106.4577250  92.4134220  26.7384550
 106.5199190  93.0421930  28.1141950 106.1129490  92.9911440  30.8913930
 105.1632200  92.9574980  31.0058920 106.2942500  93.9011550  30.6563700
  91.9673930  91.2413120  20.0012560  92.6765630  90.8196340  19.5159840
  91.2513870  91.3088350  19.3695910  91.6148090  87.2952450  19.0415210
  92.3376220  87.8361390  19.3596430  91.8872610  87.0215870  18.1656750
 105.4239740  92.1644920  23.3086790 105.9198860  91.9315790  24.0935670
 105.2255810  91.3256760  22.8924430  91.3040280  86.5458640  28.9437830
  91.9516470  85.9956020  28.5032990  91.7242120  86.8001790  29.7653640
 106.8526900  90.8005870  25.8424470 106.7426180  90.6461910  26.7806740
 107.6134490  90.2726810  25.5999880 105.1992620  86.7400000  32.3007470
 105.8364840  87.3534140  32.6666660 105.3467510  86.7760660  31.3556700
 107.7417170  88.6313790  19.0830610 108.6666480  88.4994970  18.8748900
 107.7192960  88.7106610  20.0367060 107.8155660  89.4024450  21.7087320
 107.0207160  89.3369570  22.2380230 108.0198940  90.3375090  21.6972670
 104.7574080 103.4416000  25.7025710 105.3533150 103.1200570  25.0260130
 105.0152230 102.9687820  26.4938980  91.0572280  86.7014310  31.6863150
  90.7087100  87.1578130  32.4521330  90.7259980  85.8071440  31.7685580
  92.6636650  99.8733910  35.8516340  92.6206280  99.5026820  36.7330800
  92.7947660 100.8111480  35.9918160  96.3642680 101.4293500  31.4526060
  96.1234040 101.6968060  30.5656580  97.3045320 101.5999230  31.5076920
  98.5697100  87.8926190  35.2082570  98.5085990  88.4848020  35.9577980
  99.5097480  87.7852150  35.0632830 101.2071660  87.5496250  34.8474860
 101.8212070  87.8675540  34.1855940 101.7521220  87.0644840  35.4670720
 107.6246840 103.4487880  32.2536700 107.1305120 103.8456750  31.5363830
 107.0160130 102.8237090  32.6473980  91.7292920  86.2290510  34.9613920
  92.2775910  86.0478560  34.1980030  91.7948230  85.4384620  35.4970230
  92.5024680 102.8196160  32.9714120  91.9085000 102.6880860  33.7104160
  92.4948520 101.9834300  32.5056220 101.9479700  86.1128390  31.1744150
 101.0739540  86.4463500  30.9717080 101.8390450  85.6401570  31.9996020
 102.8551680  88.3199260  32.5585870 102.5265040  87.5051020  32.1787600
 103.8033980  88.2769070  32.4351560 105.3086290 104.0911300  29.5323440
 104.8489260 104.8427110  29.1581460 104.6798750 103.3717770  29.4738240
  92.1336910 100.1854540  31.9222160  91.4070970  99.5659830  31.8548110
  92.1946060 100.5795150  31.0520240  95.7382010 102.3999540  28.7071570
  96.2547030 101.7886900  28.1819830  96.3879390 102.9028320  29.1982580
  98.4777510 103.2908030  29.5340550  98.7655320 103.0362330  28.6573560
  98.9900730 102.7385390  30.1246120  99.6954520  87.0298230  30.1137060
  98.9126310  87.5043730  30.3933820  99.4017450  86.1253060  30.0050240
 104.2475590  87.7321330  28.1586150 104.6883680  87.6766430  27.3107750
 103.9783180  88.6479340  28.2296330 106.1114160  87.3636570  26.1694970
 106.0502560  86.4197790  26.0225990 106.8906190  87.4716660  26.7148430
  90.4166910 103.5028930  25.1318920  90.2488950 102.8699610  25.8300810
  89.5501420 103.7088330  24.7813110  91.0394930  87.3345710  22.6350780
  91.7974290  87.4474590  22.0614810  90.5772100  88.1714910  22.5894210
  97.5808740  89.4484980  25.6253090  96.7683250  89.0741870  25.2848970
  98.0850380  88.6930060  25.9274280 102.0833720  86.1127430  26.8636160
 102.6863090  86.6847640  27.3384680 101.3426710  86.6766870  26.6410060
 105.2268320  86.5148990  22.1376440 105.4218950  87.4132440  22.4043870
 104.4398190  86.2836070  22.6309390  92.0229610 102.1962160  22.5769060
  91.4977230 102.5770190  21.8731020  91.9474190 102.8212930  23.2978770
  93.4120080  87.8609760  21.1752750  93.9412840  87.0739560  21.0460700
  94.0448400  88.5400950  21.4088280  95.6057920  87.5984900  24.2298140
  94.9760660  86.8972210  24.3968270  95.0663060  88.3589030  24.0131300
  98.5449870 104.2124130  36.9008750  99.4717180 103.9768400  36.9444710
  98.5300300 105.0396130  36.4194780 106.7794930 103.7549700  23.8983000
 106.9547120 103.0687440  23.2543920 106.0816500 104.2796750  23.5059670
  95.7313480  86.8768880  36.6650630  95.4497750  87.3802480  35.9011450
  96.1133180  86.0790630  36.2992760  94.6222580 104.1444540  21.4518310
  95.3541400 103.8603820  20.9042200  94.8816250 103.9057820  22.3417690
  93.7837370 100.2609270  21.4564640  93.1546250 100.7294370  22.0050470
  93.8985200  99.4158490  21.8910830 102.3328940  86.2922460  37.2431100
 102.2194390  86.6117070  38.1382620 103.1498680  86.6934970  36.9468380
 105.1127430 103.4393990  36.7249790 105.9052750 102.9443220  36.5175750
 105.4060580 104.1184130  37.3325400 101.2387090  94.3114930   7.6065840
 101.1581140  93.3969540   7.3357550 100.8251510  94.8082000   6.9005550
  99.3705130  96.0893950   9.4875110  98.5947230  95.6094390   9.7773680
 100.0218060  95.4099600   9.3131270  93.3870960  96.4013760  10.3650870
  92.5555840  96.1462470  10.7647380  93.9951940  96.4724530  11.1008790
 103.3912560 100.4954140   8.2674240 102.9294090  99.7241380   8.5961410
 104.2038110 100.5220210   8.7726690  93.3672220 100.4353850  10.5608890
  93.6700260  99.5451590  10.3819110  94.1115810 100.9924070  10.3331140
  91.7962910  91.3615650   4.1493260  90.9079610  91.7031620   4.0473140
  92.0804100  91.1615970   3.2574090  89.7595920  93.9621300  10.0332960
  90.3312030  93.1943500  10.0336600  89.7597460  94.2610060   9.1239570
  99.6175870 102.7812150   7.8878230  98.9987310 103.2369650   7.3172670
 100.4727650 102.9363610   7.4867930  98.8114120  98.7651140   9.4945270
  98.7422400  97.8241080   9.3334400  99.5733980  98.8552550  10.0667840
  91.0020790  89.3705660  11.8201890  90.8223630  88.4731410  12.1004650
  90.6000870  89.9177530  12.4948840  99.8419290  91.5721520   9.7214200
 100.2184110  90.6993400   9.6087870  99.7438800  91.9080220   8.8304640
  93.9724300  89.9447150   5.1831640  94.0791050  90.8450880   5.4900400
  93.0616660  89.8965120   4.8926290 103.6243410  89.0671960   6.6542540
 104.4453030  88.5768530   6.6968020 103.6577490  89.6569620   7.4074380
  91.6207460  91.8666160  10.4284230  92.3017570  92.1304530  11.0471630
  91.3055510  91.0267030  10.7622240  95.8132030  92.9133520   9.5156820
  96.3210250  93.4114490  10.1561840  96.3445270  92.1368720   9.3396180
 107.9142960  91.0838710  13.2186170 107.2095130  91.4720420  12.7001280
 108.1800880  91.7789000  13.8207100  94.0968130  87.5532080  13.7820240
  94.0986570  88.0704470  12.9766140  93.2672440  87.0762260  13.7590170
 100.4839220  97.6651390   5.2810140  99.8656490  98.1300840   4.7172860
 100.9962470  98.3578870   5.6979650  95.3470980  97.1927260  11.9593740
  95.0140360  97.8196180  12.6014810  95.5237660  97.7189140  11.1795410
 103.8604890  91.0072340   9.4270080 103.1560460  91.2957230  10.0073190
 104.2217050  91.8172450   9.0669640  93.7783460  89.2642040  11.7890690
  94.1200270  90.1084090  11.4944560  92.8399270  89.4125780  11.9056030
  94.5590080  99.1608060  13.7742920  95.1764080  99.8359140  13.4927370
  93.6983200  99.5696040  13.6830420  89.8522420  98.3507920   2.6549770
  89.4750400  98.8395020   1.9234670  90.1095490  99.0233200   3.2856300
 105.4767670 100.6247470  11.6897560 104.7931190 101.2946580  11.6814230
 106.0161960 100.8228120  10.9242420 106.9291810  90.4527130   9.8179290
 105.9816720  90.4866110   9.9494720 107.2541800  91.2666080  10.2028650
  97.4611350  86.7524310   8.1135280  97.7686330  86.1971200   7.3970780
  96.5312050  86.8868770   7.9308270 103.0126410 102.4691600  10.4042740
 103.0253570 102.0653890   9.5365000 102.4601630 103.2438890  10.3004170
 104.3071830  99.1907820   5.4932910 104.1968160  98.2482150   5.6182330
 104.3040080  99.5523460   6.3795670 102.4111850  97.3721440  11.7325350
 102.8280640  97.1581550  10.8978810 103.1351670  97.6294230  12.3033970
  99.8492110  94.8173140   4.8495400  98.9221390  94.7510520   5.0783870
 100.0016930  95.7553270   4.7350640  99.8361190  91.0890140   1.8462560
  98.8964860  91.2504100   1.9315020 100.1544450  91.8075820   1.2998550
 106.3573950  95.7708660  11.8241590 105.5292580  95.8401750  11.3491720
 106.9524430  96.3562970  11.3557420 103.8789400  96.3793440   5.3530650
 103.2601820  96.0412990   4.7056950 103.8613850  95.7353200   6.0609840
 103.3215960  92.5577980  12.7696460 102.9087140  93.3831690  13.0236450
 102.5891910  91.9723020  12.5772820  95.4548750  95.3437880   7.6315130
  95.0505750  94.6315130   7.1361030  95.5411870  94.9991120   8.5203170
  95.9230450  99.0305440   9.7954340  95.6258740  98.4250910   9.1162120
  96.8730270  99.0682750   9.6843700  94.1677370  92.1181090  11.4114170
  94.7191960  92.2276430  10.6367420  94.6820880  92.4918690  12.1269400
 104.0116060 102.6037310  13.4577440 103.5346620 103.4109500  13.2650050
 103.3277850 101.9515640  13.6103650  95.0148880  98.7687130  16.4462140
  94.1177410  98.9927100  16.6935540  95.0401750  98.8922070  15.4973540
 102.0554100  95.6180250   2.3603400 102.4947380  94.7802680   2.2141220
 102.7682520  96.2509650   2.4467540  93.8420100  95.6400450  15.0219510
  93.7027870  96.5123250  15.3906910  92.9601460  95.2973260  14.8767450
 100.1649480 100.5576320   6.3284640 100.6045390 101.3000650   5.9140030
 100.1036370 100.8002890   7.2523600  95.6400450 101.5822150  17.2304660
  95.6115880 101.9865100  16.3633090  95.4765420 100.6532510  17.0676260
  92.1553380  94.2382860   5.1321780  92.0350980  94.9644950   4.5203050
  91.8454270  93.4685770   4.6549690 107.5915270 102.3649250  18.5268830
 108.0674990 102.8432140  19.2057910 108.2122430 102.2966740  17.8014330
  89.7938750  97.4098000  10.9390420  89.8719170  97.5446770   9.9946140
  90.4080430  96.7013890  11.1318540  91.0386380  99.1098190   7.3496600
  90.6314460  99.2512780   6.4950200  91.9299390  98.8258350   7.1467810
 106.9948520  99.5562100  15.6868840 107.1211580  99.3173980  14.7686020
 107.0369900  98.7246640  16.1590920 100.8565260 103.2590100  14.2563650
 101.3709930 103.1698110  15.0586080 100.0134340 103.6049800  14.5491560
 102.8319660 103.5445440   3.6847650 102.6720800 103.2548380   4.5829480
 102.6666370 102.7685570   3.1492880  95.3108040 103.3243970   5.4619270
  95.1350520 102.4079510   5.2487070  94.4563780 103.6831260   5.7017070
 102.5345790 101.0533000   2.2445650 101.8410950 101.0510290   1.5847930
 103.2768650 100.6292320   1.8139820 102.0995720 102.6795710   6.3194140
 102.5552670 101.8985090   6.6332760 102.4388240 103.3902530   6.8635320
 106.8472530  91.6094560  16.6518580 106.2316800  92.1174230  16.1234040
 106.5268950  90.7092890  16.5944520  89.8498270  98.4512170  13.4784880
  90.0129310  97.9817530  12.6604250  90.3150720  97.9435730  14.1433720
  94.6217040  87.5817930   8.5145450  94.1785190  88.3627470   8.1829970
  95.1802030  87.9047820   9.2216390  98.9086850  90.4486450  14.1180770
  98.4466220  90.6569470  14.9300710  98.5064960  89.6345800  13.8151440
 103.9091360  91.6695400  15.2477430 103.0584950  91.3701150  15.5686500
 103.7493150  91.9137410  14.3361250 101.0041070  93.1697150  17.3476220
 101.3294480  92.3360900  17.0078450 101.7921400  93.6925670  17.4954550
  97.7375860  87.2028630   3.3951280  97.1130040  87.1988500   4.1204590
  97.6505980  86.3359590   2.9987250  96.6592940  88.1265260  10.3735050
  96.9565270  89.0328090  10.2927070  97.2078500  87.6384040   9.7594620
  94.4131260  92.7051500   6.2426700  94.1872180  92.4888670   7.1473320
  93.6323790  93.1379960   5.8972670 101.6429020  92.7114870   4.8417350
 101.0437910  93.4350670   4.6580970 102.1908630  92.6491650   4.0593800
  96.8530470  93.6037080  16.9086970  96.7574070  92.6631810  16.7587370
  97.6962450  93.8252150  16.5135040 100.2493890  91.3478410   6.8720630
 100.6423460  91.6650610   6.0589320 100.6110740  90.4690290   6.9865150
  91.9841010  90.0150750  15.0620750  91.5904400  90.8625960  15.2693530
  91.2959410  89.3777120  15.2529390  98.5586060  90.0985720  18.1317490
  97.8684380  89.9057920  18.7663580  99.3018360  90.3820360  18.6641790
  89.2858060  87.9379210   9.0950830  88.9971110  88.5082070   9.8075810
  90.0303820  87.4583660   9.4582060 100.8349030  93.9384160  10.9671410
 100.1030150  94.4470970  11.3161510 100.4373370  93.1214140  10.6660190
  97.2726420  90.6138360   9.3723900  97.2762480  90.1728310   8.5228440
  98.1677540  90.9355690   9.4795720  93.1228800  90.4964850   8.3318110
  92.7828850  90.9740080   9.0885160  92.3606120  90.0429970   7.9719210
  97.3346570  91.6150440   2.3630660  97.4559390  91.5736920   3.3116480
  96.9495080  92.4774590   2.2077390 101.2974940  89.3917840  10.3794350
 101.3147680  89.8426490  11.2236200 101.0490520  88.4923480  10.5927790
 104.7245690  86.8050020  16.2180730 105.0491460  86.0739680  16.7438710
 104.7602200  86.4863660  15.3161720  91.4237250  97.8263600  15.6380690
  91.0392040  97.1857270  16.2363650  91.7349440  98.5299720  16.2075420
  97.5734390  94.6740140  11.1189310  97.9404520  94.1998710  11.8650650
  97.3839450  95.5481710  11.4597650  90.4374880  89.4183830   7.2482780
  90.1521800  89.0539500   8.0861400  90.3753740  88.6864290   6.6345920
  95.3633760  93.7148780  13.4373520  95.0590830  94.5940760  13.6623880
  96.3180220  93.7748570  13.4730960  93.8915550  97.9209770   4.0340370
  93.1177810  97.3807390   3.8739090  94.6210180  97.4016380   3.6958130
 104.6503530  96.9175130   9.8266760 105.3702650  97.4130420   9.4362870
 104.4485350  96.2393020   9.1820630 100.1113470  88.3113090   3.9696150
  99.2978080  87.8126260   3.8941460  99.9175420  89.1511340   3.5532500
 100.0322330  96.9884190  15.7135760  99.9659640  96.0679860  15.4593350
  99.4027470  97.0859630  16.4280400 102.8261860  92.6832740   2.2658310
 103.7141480  92.9949970   2.0909650 102.7966950  91.8104990   1.8738890
  93.9352950  97.5890150   7.6719180  94.4531620  96.7858410   7.6176070
  93.4836970  97.5269290   8.5136010  98.8222450  98.8556430   2.9446480
  99.1638150  99.5998660   2.4489800  97.9935160  99.1687550   3.3071310
  91.4197490  94.5551520  14.5844880  91.0612430  95.2205370  15.1718220
  91.1252050  93.7235070  14.9557500  94.6210610  95.0135760  17.4684430
  94.3210750  95.1592940  16.5712250  95.3921850  94.4541050  17.3757820
  99.9639060  99.8104760  15.4639560  99.9783600  98.8785720  15.2458470
  99.2564160  99.8964520  16.1029330 106.1750270  96.4512100  14.8108140
 105.4498460  97.0440880  14.6137530 106.7025730  96.4435640  14.0121510
 106.1263380 100.8486840   4.4620300 105.4839540 100.1942460   4.7364020
 105.7394040 101.2541930   3.6860970 101.7049860  98.1772270   8.3091990
 102.0573680  97.5800400   7.6493360 100.8212190  97.8516500   8.4800240
  97.7913140  98.9369960   5.7162400  98.4784270  99.4839170   6.0969990
  97.0045560  99.4810690   5.7512010  97.0940350  95.9415990   5.3287760
  97.5503130  96.7521240   5.5547950  96.7428560  95.6239130   6.1606250
  99.3972960 101.4522330  12.5580060 100.0415180 101.6581710  13.2353480
  99.7602400 100.6910730  12.1050910  92.9952130  86.2853640   5.8010280
  92.8666760  86.2771540   6.7495200  92.1714150  86.6236730   5.4501290
 100.6705040  99.4554680  11.2757510 101.3127270  98.7547840  11.3889680
 101.1954390 100.2353120  11.0954400 102.4442660 100.2549580  14.4793570
 102.7798900 100.8416270  15.1571490 101.5243000 100.1242290  14.7091360
  89.9946060  88.0444760  15.2616980  89.2804580  88.2441680  15.8669590
  90.4141100  87.2684330  15.6331780 104.0977010  97.6575240   2.6610810
 103.8098710  98.1187930   3.4488690 104.8929180  97.1973010   2.9295030
  90.2818650 102.0325020  16.2483510  90.3909770 101.0919760  16.1078900
  89.6299210 102.2979770  15.5997240  98.2731240 100.3040910  17.6481630
  97.9528110  99.5850150  18.1927320  97.5989600 100.9795980  17.7217690
  96.3145410 101.1501360   2.5914780  96.3055510 101.8831050   1.9759290
  95.3943770 100.9032940   2.6841740  91.9152050  96.3716250   3.3361540
  91.3080000  97.1115150   3.3456840  92.3901400  96.4615610   2.5099740
 101.4884840  90.5367070  13.0118430 101.8565660  89.7162280  13.3398000
 100.6283040  90.5968960  13.4274080 104.8546870  89.4924010   3.8205990
 104.2260030  89.5969680   3.1064220 104.3598790  89.7120790   4.6099870
  96.8230900  91.7709960   5.2363870  96.1147050  92.2396300   5.6777480
  97.1075380  91.1131970   5.8709060  98.4486830  93.1906660  13.2356400
  98.9472080  93.6652480  13.9008250  98.5909780  92.2670180  13.4426430
 100.8546330  88.4960620   6.6759660 100.7314110  88.5146750   5.7269170
 101.8030890  88.5439560   6.7958060  97.9423120 103.7315920   5.9487640
  98.1964620 103.6937310   5.0267010  96.9935600 103.6049250   5.9415890
  95.0265920  90.0795040   2.6114580  95.8756450  90.5165190   2.5454770
  94.6597190  90.3915300   3.4386640 105.6553690  89.4074620  14.0784790
 105.1527290  90.1480020  14.4178600 106.4710350  89.7958620  13.7621580
 103.9475700  94.6507800   7.5246150 103.0065840  94.6658030   7.6993840
 104.2619770  93.8643760   7.9706450  92.6204100  93.7652470   1.7683000
  92.7007690  92.8179980   1.8800400  93.5123850  94.0959350   1.8743660
 105.9501280 101.8216650   9.2000410 106.0748700 102.6447820   9.6724220
 106.8166840 101.6107380   8.8524560  93.4218810 103.9147860   8.8717540
  94.1581290 103.3663320   9.1426110  93.8059730 104.7803870   8.7323530
  90.3064290  99.9821430   4.7459050  89.3804070 100.2242570   4.7364460
  90.7720720 100.8095690   4.6243800  92.4277090 103.0993930  18.0603120
  93.2289820 103.4205980  18.4738520  91.9128910 102.7389510  18.7823030
 101.2641720  99.2073800  18.0078530 100.6579880  99.2305400  17.2674280
 100.9595830  98.4756840  18.5445780 102.6942090 102.9354090  16.6187940
 103.6463840 102.8512110  16.5688180 102.5470310 103.5995800  17.2921730
 105.5851290 102.3148300   2.1179850 105.2992800 101.9013440   1.3034030
 105.3870840 103.2436010   1.9980370  90.1474900  95.5867390  17.0039170
  90.6513920  95.0074670  17.5755400  89.4082320  95.8707620  17.5415540
  97.2012840  96.9938380  16.5374690  96.4358510  97.5623380  16.4529360
  97.3828800  96.7014590  15.6442920 104.3436190  98.7243710  17.0949710
 105.0845660  99.0619470  16.5917170 103.5808870  98.8935770  16.5419480
  92.1797980  93.7296980  17.8989240  92.2203320  93.4310850  18.8074470
  93.0343480  94.1304590  17.7396760  95.9576370  96.3292530   3.0592750
  96.3792790  96.1632400   3.9024140  96.0827210  95.5192760   2.5647890
  94.1203790  92.3089080  15.8663730  93.5900250  91.8180030  15.2387070
  94.7891860  92.7373280  15.3321660 103.0181850  96.7758540  15.6304920
 103.4322870  96.9303620  16.4795340 102.0832850  96.9013760  15.7930700
 103.4904020  94.1154700  17.6344070 104.0724790  93.3607020  17.5464550
 103.6665790  94.6462140  16.8575550  94.6076090  89.2751450  15.9461020
  94.5132960  88.6572200  15.2211890  94.0273480  90.0017740  15.7190930
  97.3737530  87.8324690  12.9788410  96.9254830  87.8548950  12.1333960
  96.7402730  87.4343710  13.5758710  97.7797080  96.7279020  13.6000850
  98.1985190  97.5711750  13.4277090  96.8605710  96.8651060  13.3707630
 100.1160980  94.4595200  14.9838690 100.2357190  93.8636340  15.7233530
 100.9754980  94.4964890  14.5639990 102.4548880  95.0132390  13.5601200
 101.9284100  95.5375010  12.9566340 102.7980220  95.6459780  14.1910930
  95.6304500 103.0332030  14.7158580  95.0925590 103.7578090  14.3967280
  95.8838460 102.5562370  13.9255920  96.8829750  91.0016550  16.2414510
  97.4729440  90.6932400  16.9292330  96.0649990  90.5296300  16.3974410
 101.7023180  90.6182360  16.4747530 101.0138700  89.9563900  16.4097520
 102.4229200  90.1720630  16.9195990 102.3323580  87.2133990   2.5337790
 102.6125870  86.3701890   2.8897210 101.5589310  87.4457100   3.0476540
  98.4866710 104.2683240  14.9745230  98.4125410 105.1718380  15.2817600
  97.5845550 103.9495140  14.9467300  99.0352040 103.4341750   2.5971590
  99.9302830 103.7726720   2.6190350  99.0669670 102.7121160   1.9695870
  89.8894000 101.5957830   8.2778850  90.2197010 100.7278890   8.0457490
  90.3185000 101.8016350   9.1083810  94.4855920  99.9266840   5.9380820
  94.1851460  99.8031810   6.8384730  94.3793410  99.0675430   5.5296550
  90.3784210 102.4628420  11.0160480  89.9415200 102.6429220  11.8484630
  90.9461890 103.2203040  10.8742200 106.0146390 101.9645420  15.3037790
 105.4148380 102.0237980  14.5601710 106.1440290 101.0250400  15.4334640
 106.7104300  96.4510720   3.1441700 107.4723210  97.0207370   3.2501390
 106.7258670  95.8837920   3.9150010  90.2108640  94.9748650   7.3749360
  89.5557480  94.7060290   6.7309060  91.0486590  94.8653130   6.9251340
 107.7164270  97.3060820   7.9883630 108.0873100  96.5228140   7.5819600
 108.3566200  97.9949920   7.8100930 104.6998030  98.6897400  13.4013950
 103.8857870  99.1194560  13.6639740 105.1072230  99.3015810  12.7883000
 106.6588810  94.6814080   5.2943650 106.2832410  93.9142010   4.8624940
 105.9291930  95.0636780   5.7818580  91.2484570  95.3601220  11.9152700
  91.6157610  95.2728620  12.7948720  90.6795390  94.5967770  11.8159560
 106.0488430  93.8285600  14.9283170 105.8174520  93.5998350  14.0281120
 106.3092980  94.7485150  14.8828060  90.8000570  92.2710310  15.8211120
  89.9056620  92.2377070  16.1604830  91.3398120  92.4697100  16.5862370
 104.4876500  89.0542030  17.7062870 105.3646680  89.0625430  18.0896870
 104.4997340  88.3172870  17.0955220  89.4246720  92.1847580   3.3174690
  88.5210800  92.4477780   3.1426350  89.9087340  92.4558750   2.5374650
 105.9339770  92.9071570   8.5950890 106.4577250  92.4134220   7.9641060
 106.5199190  93.0421930   9.3398460 106.1129490  92.9911440  12.1170440
 105.1632200  92.9574980  12.2315430 106.2942500  93.9011550  11.8820210
 105.4239740  92.1644920   4.5343300 105.9198860  91.9315790   5.3192180
 105.2255810  91.3256760   4.1180940  91.3040280  86.5458640  10.1694340
  91.9516470  85.9956020   9.7289500  91.7242120  86.8001790  10.9910150
 106.8526900  90.8005870   7.0680980 106.7426180  90.6461910   8.0063250
 107.6134490  90.2726810   6.8256390 105.1992620  86.7400000  13.5263980
 105.8364840  87.3534140  13.8923170 105.3467510  86.7760660  12.5813210
 107.8155660  89.4024450   2.9343830 107.0207160  89.3369570   3.4636740
 108.0198940  90.3375090   2.9229180 104.7574080 103.4416000   6.9282220
 105.3533150 103.1200570   6.2516640 105.0152230 102.9687820   7.7195490
  91.0572280  86.7014310  12.9119660  90.7087100  87.1578130  13.6777840
  90.7259980  85.8071440  12.9942090  92.6636650  99.8733910  17.0772850
  92.6206280  99.5026820  17.9587310  92.7947660 100.8111480  17.2174670
  96.3642680 101.4293500  12.6782570  96.1234040 101.6968060  11.7913090
  97.3045320 101.5999230  12.7333430  98.5697100  87.8926190  16.4339080
  98.5085990  88.4848020  17.1834490  99.5097480  87.7852150  16.2889340
 101.2071660  87.5496250  16.0731370 101.8212070  87.8675540  15.4112450
 101.7521220  87.0644840  16.6927230 107.6246840 103.4487880  13.4793210
 107.1305120 103.8456750  12.7620340 107.0160130 102.8237090  13.8730490
  91.7292920  86.2290510  16.1870430  92.2775910  86.0478560  15.4236540
  91.7948230  85.4384620  16.7226740  92.5024680 102.8196160  14.1970630
  91.9085000 102.6880860  14.9360670  92.4948520 101.9834300  13.7312730
 101.9479700  86.1128390  12.4000660 101.0739540  86.4463500  12.1973590
 101.8390450  85.6401570  13.2252530 102.8551680  88.3199260  13.7842380
 102.5265040  87.5051020  13.4044110 103.8033980  88.2769070  13.6608070
 105.3086290 104.0911300  10.7579950 104.8489260 104.8427110  10.3837970
 104.6798750 103.3717770  10.6994750  92.1336910 100.1854540  13.1478670
  91.4070970  99.5659830  13.0804620  92.1946060 100.5795150  12.2776750
  95.7382010 102.3999540   9.9328080  96.2547030 101.7886900   9.4076340
  96.3879390 102.9028320  10.4239090  98.4777510 103.2908030  10.7597060
  98.7655320 103.0362330   9.8830070  98.9900730 102.7385390  11.3502630
  99.6954520  87.0298230  11.3393570  98.9126310  87.5043730  11.6190330
  99.4017450  86.1253060  11.2306750 104.2475590  87.7321330   9.3842660
 104.6883680  87.6766430   8.5364260 103.9783180  88.6479340   9.4552840
 106.1114160  87.3636570   7.3951480 106.0502560  86.4197790   7.2482500
 106.8906190  87.4716660   7.9404940  90.4166910 103.5028930   6.3575430
  90.2488950 102.8699610   7.0557320  89.5501420 103.7088330   6.0069620
  91.0394930  87.3345710   3.8607290  91.7974290  87.4474590   3.2871320
  90.5772100  88.1714910   3.8150720  97.5808740  89.4484980   6.8509600
  96.7683250  89.0741870   6.5105480  98.0850380  88.6930060   7.1530790
 102.0833720  86.1127430   8.0892670 102.6863090  86.6847640   8.5641190
 101.3426710  86.6766870   7.8666570 105.2268320  86.5148990   3.3632950
 105.4218950  87.4132440   3.6300380 104.4398190  86.2836070   3.8565900
  92.0229610 102.1962160   3.8025570  91.4977230 102.5770190   3.0987530
  91.9474190 102.8212930   4.5235280  93.4120080  87.8609760   2.4009260
  93.9412840  87.0739560   2.2717210  94.0448400  88.5400950   2.6344790
  95.6057920  87.5984900   5.4554650  94.9760660  86.8972210   5.6224780
  95.0663060  88.3589030   5.2387810  98.5449870 104.2124130  18.1265260
  99.4717180 103.9768400  18.1701220  98.5300300 105.0396130  17.6451290
 106.7794930 103.7549700   5.1239510 106.9547120 103.0687440   4.4800430
 106.0816500 104.2796750   4.7316180  95.7313480  86.8768880  17.8907140
  95.4497750  87.3802480  17.1267960  96.1133180  86.0790630  17.5249270
  94.6222580 104.1444540   2.6774820  95.3541400 103.8603820   2.1298710
  94.8816250 103.9057820   3.5674200  93.7837370 100.2609270   2.6821150
  93.1546250 100.7294370   3.2306980  93.8985200  99.4158490   3.1167340
 102.3328940  86.2922460  18.4687610 102.2194390  86.6117070  19.3639130
 103.1498680  86.6934970  18.1724890 105.1127430 103.4393990  17.9506300
 105.9052750 102.9443220  17.7432260 105.4060580 104.1184130  18.5581910
 101.2387090  75.5371440 101.4783290 101.1581140  74.6226050 101.2075000
 100.8251510  76.0338510 100.7723000  99.3705130  77.3150460 103.3592560
  98.5947230  76.8350900 103.6491130 100.0218060  76.6356110 103.1848720
  93.3870960  77.6270270 104.2368320  92.5555840  77.3718980 104.6364830
  93.9951940  77.6981040 104.9726240 103.3912560  81.7210650 102.1391690
 102.9294090  80.9497890 102.4678860 104.2038110  81.7476720 102.6444140
  93.3672220  81.6610360 104.4326340  93.6700260  80.7708100 104.2536560
  94.1115810  82.2180580 104.2048590  91.7962910  72.5872160  98.0210710
  90.9079610  72.9288130  97.9190590  92.0804100  72.3872480  97.1291540
  89.7595920  75.1877810 103.9050410  90.3312030  74.4200010 103.9054050
  89.7597460  75.4866570 102.9957020  99.6175870  84.0068660 101.7595680
  98.9987310  84.4626160 101.1890120 100.4727650  84.1620120 101.3585380
  98.8114120  79.9907650 103.3662720  98.7422400  79.0497590 103.2051850
  99.5733980  80.0809060 103.9385290  91.0020790  70.5962170 105.6919340
  90.8223630  69.6987920 105.9722100  90.6000870  71.1434040 106.3666290
  99.8419290  72.7978030 103.5931650 100.2184110  71.9249910 103.4805320
  99.7438800  73.1336730 102.7022090  93.9724300  71.1703660  99.0549090
  94.0791050  72.0707390  99.3617850  93.0616660  71.1221630  98.7643740
 103.6243410  70.2928470 100.5259990 104.4453030  69.8025040 100.5685470
 103.6577490  70.8826130 101.2791830  91.6207460  73.0922670 104.3001680
  92.3017570  73.3561040 104.9189080  91.3055510  72.2523540 104.6339690
  95.8132030  74.1390030 103.3874270  96.3210250  74.6371000 104.0279290
  96.3445270  73.3625230 103.2113630 107.9142960  72.3095220 107.0903620
 107.2095130  72.6976930 106.5718730 108.1800880  73.0045510 107.6924550
  94.0968130  68.7788590 107.6537690  94.0986570  69.2960980 106.8483590
  93.2672440  68.3018770 107.6307620 100.4839220  78.8907900  99.1527590
  99.8656490  79.3557350  98.5890310 100.9962470  79.5835380  99.5697100
  95.3470980  78.4183770 105.8311190  95.0140360  79.0452690 106.4732260
  95.5237660  78.9445650 105.0512860 103.8604890  72.2328850 103.2987530
 103.1560460  72.5213740 103.8790640 104.2217050  73.0428960 102.9387090
  93.7783460  70.4898550 105.6608140  94.1200270  71.3340600 105.3662010
  92.8399270  70.6382290 105.7773480  94.5590080  80.3864570 107.6460370
  95.1764080  81.0615650 107.3644820  93.6983200  80.7952550 107.5547870
  89.8522420  79.5764430  96.5267220  89.4750400  80.0651530  95.7952120
  90.1095490  80.2489710  97.1573750 105.4767670  81.8503980 105.5615010
 104.7931190  82.5203090 105.5531680 106.0161960  82.0484630 104.7959870
 106.9291810  71.6783640 103.6896740 105.9816720  71.7122620 103.8212170
 107.2541800  72.4922590 104.0746100  97.4611350  67.9780820 101.9852730
  97.7686330  67.4227710 101.2688230  96.5312050  68.1125280 101.8025720
 103.0126410  83.6948110 104.2760190 103.0253570  83.2910400 103.4082450
 102.4601630  84.4695400 104.1721620 104.3071830  80.4164330  99.3650360
 104.1968160  79.4738660  99.4899780 104.3040080  80.7779970 100.2513120
 102.4111850  78.5977950 105.6042800 102.8280640  78.3838060 104.7696260
 103.1351670  78.8550740 106.1751420  99.8492110  76.0429650  98.7212850
  98.9221390  75.9767030  98.9501320 100.0016930  76.9809780  98.6068090
  99.8361190  72.3146650  95.7180010  98.8964860  72.4760610  95.8032470
 100.1544450  73.0332330  95.1716000 106.3573950  76.9965170 105.6959040
 105.5292580  77.0658260 105.2209170 106.9524430  77.5819480 105.2274870
 103.8789400  77.6049950  99.2248100 103.2601820  77.2669500  98.5774400
 103.8613850  76.9609710  99.9327290 103.3215960  73.7834490 106.6413910
 102.9087140  74.6088200 106.8953900 102.5891910  73.1979530 106.4490270
  95.4548750  76.5694390 101.5032580  95.0505750  75.8571640 101.0078480
  95.5411870  76.2247630 102.3920620  95.9230450  80.2561950 103.6671790
  95.6258740  79.6507420 102.9879570  96.8730270  80.2939260 103.5561150
  94.1677370  73.3437600 105.2831620  94.7191960  73.4532940 104.5084870
  94.6820880  73.7175200 105.9986850 104.0116060  83.8293820 107.3294890
 103.5346620  84.6366010 107.1367500 103.3277850  83.1772150 107.4821100
  95.0148880  79.9943640 110.3179590  94.1177410  80.2183610 110.5652990
  95.0401750  80.1178580 109.3690990 102.0554100  76.8436760  96.2320850
 102.4947380  76.0059190  96.0858670 102.7682520  77.4766160  96.3184990
  93.8420100  76.8656960 108.8936960  93.7027870  77.7379760 109.2624360
  92.9601460  76.5229770 108.7484900 100.1649480  81.7832830 100.2002090
 100.6045390  82.5257160  99.7857480 100.1036370  82.0259400 101.1241050
 105.6371240  68.0979570  94.5461890 105.3243900  68.1906400  95.4460960
 106.3983710  68.6760600  94.4959320  92.1553380  75.4639370  99.0039230
  92.0350980  76.1901460  98.3920500  91.8454270  74.6942280  98.5267140
  89.7938750  78.6354510 104.8107870  89.8719170  78.7703280 103.8663590
  90.4080430  77.9270400 105.0035990  91.0386380  80.3354700 101.2214050
  90.6314460  80.4769290 100.3667650  91.9299390  80.0514860 101.0185260
 106.9948520  80.7818610 109.5586290 107.1211580  80.5430490 108.6403470
 107.0369900  79.9503150 110.0308370 100.8565260  84.4846610 108.1281100
 101.3709930  84.3954620 108.9303530 100.0134340  84.8306310 108.4209010
 102.8319660  84.7701950  97.5565100 102.6720800  84.4804890  98.4546930
 102.6666370  83.9942080  97.0210330  95.3108040  84.5500480  99.3336720
  95.1350520  83.6336020  99.1204520  94.4563780  84.9087770  99.5734520
 102.5345790  82.2789510  96.1163100 101.8410950  82.2766800  95.4565380
 103.2768650  81.8548830  95.6857270 102.0995720  83.9052220 100.1911590
 102.5552670  83.1241600 100.5050210 102.4388240  84.6159040 100.7352770
 106.8472530  72.8351070 110.5236030 106.2316800  73.3430740 109.9951490
 106.5268950  71.9349400 110.4661970  89.8498270  79.6768680 107.3502330
  90.0129310  79.2074040 106.5321700  90.3150720  79.1692240 108.0151170
  94.6217040  68.8074440 102.3862900  94.1785190  69.5883980 102.0547420
  95.1802030  69.1304330 103.0933840  98.9086850  71.6742960 107.9898220
  98.4466220  71.8825980 108.8018160  98.5064960  70.8602310 107.6868890
 103.9091360  72.8951910 109.1194880 103.0584950  72.5957660 109.4403950
 103.7493150  73.1393920 108.2078700  97.7375860  68.4285140  97.2668730
  97.1130040  68.4245010  97.9922040  97.6505980  67.5616100  96.8704700
  96.6592940  69.3521770 104.2452500  96.9565270  70.2584600 104.1644520
  97.2078500  68.8640550 103.6312070  94.4131260  73.9308010 100.1144150
  94.1872180  73.7145180 101.0190770  93.6323790  74.3636470  99.7690120
 101.6429020  73.9371380  98.7134800 101.0437910  74.6607180  98.5298420
 102.1908630  73.8748160  97.9311250  96.8530470  74.8293590 110.7804420
  96.7574070  73.8888320 110.6304820  97.6962450  75.0508660 110.3852490
 100.2493890  72.5734920 100.7438080 100.6423460  72.8907120  99.9306770
 100.6110740  71.6946800 100.8582600  91.9841010  71.2407260 108.9338200
  91.5904400  72.0882470 109.1410980  91.2959410  70.6033630 109.1246840
  89.2858060  69.1635720 102.9668280  88.9971110  69.7338580 103.6793260
  90.0303820  68.6840170 103.3299510  89.4728290  73.1055840  94.1771000
  89.3902960  74.0486600  94.3185990  89.1211350  72.9630750  93.2983350
 100.8349030  75.1640670 104.8388860 100.1030150  75.6727480 105.1878960
 100.4373370  74.3470650 104.5377640  97.2726420  71.8394870 103.2441350
  97.2762480  71.3984820 102.3945890  98.1677540  72.1612200 103.3513170
  93.1228800  71.7221360 102.2035560  92.7828850  72.1996590 102.9602610
  92.3606120  71.2686480 101.8436660  97.3346570  72.8406950  96.2348110
  97.4559390  72.7993430  97.1833930  96.9495080  73.7031100  96.0794840
 101.2974940  70.6174350 104.2511800 101.3147680  71.0683000 105.0953650
 101.0490520  69.7179990 104.4645240  96.3468070  75.1508090  95.6331410
  95.7784970  74.7026340  95.0067320  97.0557070  75.5100870  95.0996560
 104.7245690  68.0306530 110.0898180 105.0491460  67.2996190 110.6156160
 104.7602200  67.7120170 109.1879170  91.4237250  79.0520110 109.5098140
  91.0392040  78.4113780 110.1081100  91.7349440  79.7556230 110.0792870
  97.5734390  75.8996650 104.9906760  97.9404520  75.4255220 105.7368100
  97.3839450  76.7738220 105.3315100  90.4374880  70.6440340 101.1200230
  90.1521800  70.2796010 101.9578850  90.3753740  69.9120800 100.5063370
  95.3633760  74.9405290 107.3090970  95.0590830  75.8197270 107.5341330
  96.3180220  75.0005080 107.3448410  93.8915550  79.1466280  97.9057820
  93.1177810  78.6063900  97.7456540  94.6210180  78.6272890  97.5675580
 104.6503530  78.1431640 103.6984210 105.3702650  78.6386930 103.3080320
 104.4485350  77.4649530 103.0538080 100.1113470  69.5369600  97.8413600
  99.2978080  69.0382770  97.7658910  99.9175420  70.3767850  97.4249950
 100.0322330  78.2140700 109.5853210  99.9659640  77.2936370 109.3310800
  99.4027470  78.3116140 110.2997850 102.8261860  73.9089250  96.1375760
 103.7141480  74.2206480  95.9627100 102.7966950  73.0361500  95.7456340
  93.9352950  78.8146660 101.5436630  94.4531620  78.0114920 101.4893520
  93.4836970  78.7525800 102.3853460  98.8222450  80.0812940  96.8163930
  99.1638150  80.8255170  96.3207250  97.9935160  80.3944060  97.1788760
  91.4197490  75.7808030 108.4562330  91.0612430  76.4461880 109.0435670
  91.1252050  74.9491580 108.8274950  99.9639060  81.0361270 109.3357010
  99.9783600  80.1042230 109.1175920  99.2564160  81.1221030 109.9746780
 105.0976130  75.2201090  95.6055620 105.0139850  75.6515310  94.7552060
 105.8170320  75.6799440  96.0382440 106.1750270  77.6768610 108.6825590
 105.4498460  78.2697390 108.4854980 106.7025730  77.6692150 107.8838960
 106.1263380  82.0743350  98.3337750 105.4839540  81.4198970  98.6081470
 105.7394040  82.4798440  97.5578420 101.7049860  79.4028780 102.1809440
 102.0573680  78.8056910 101.5210810 100.8212190  79.0773010 102.3517690
  97.7913140  80.1626470  99.5879850  98.4784270  80.7095680  99.9687440
  97.0045560  80.7067200  99.6229460  89.9305540  75.7799290  95.0796930
  90.8000390  76.0624090  95.3632850  89.4395860  76.5935160  94.9645740
  97.0940350  77.1672500  99.2005210  97.5503130  77.9777750  99.4265400
  96.7428560  76.8495640 100.0323700  99.3972960  82.6778840 106.4297510
 100.0415180  82.8838220 107.1070930  99.7602400  81.9167240 105.9768360
  92.9952130  67.5110150  99.6727730  92.8666760  67.5028050 100.6212650
  92.1714150  67.8493240  99.3218740 100.6705040  80.6811190 105.1474960
 101.3127270  79.9804350 105.2607130 101.1954390  81.4609630 104.9671850
 104.5160760  80.9659810  94.8714100 104.2898340  80.2490250  95.4638740
 104.1256960  80.7172250  94.0335850 102.4442660  81.4806090 108.3511020
 102.7798900  82.0672780 109.0288940 101.5243000  81.3498800 108.5808810
  90.2976790  84.9926670  95.6458560  90.6574430  85.5916010  94.9915830
  90.1569130  85.5386560  96.4193590  89.9946060  69.2701270 109.1334430
  89.2804580  69.4698190 109.7387040  90.4141100  68.4940840 109.5049230
 104.0977010  78.8831750  96.5328260 103.8098710  79.3444440  97.3206140
 104.8929180  78.4229520  96.8012480  90.2818650  83.2581530 110.1200960
  90.3909770  82.3176270 109.9796350  89.6299210  83.5236280 109.4714690
  96.3145410  82.3757870  96.4632230  96.3055510  83.1087560  95.8476740
  95.3943770  82.1289450  96.5559190  91.9152050  77.5972760  97.2078990
  91.3080000  78.3371660  97.2174290  92.3901400  77.6872120  96.3817190
 101.4884840  71.7623580 106.8835880 101.8565660  70.9418790 107.2115450
 100.6283040  71.8225470 107.2991530 104.8546870  70.7180520  97.6923440
 104.2260030  70.8226190  96.9781670 104.3598790  70.9377300  98.4817320
  99.3005010  82.4386110  95.1257420  99.4016990  82.2350100  94.1959400
  98.4006750  82.1844390  95.3305200  96.8230900  72.9966470  99.1081320
  96.1147050  73.4652810  99.5494930  97.1075380  72.3388480  99.7426510
  98.4486830  74.4163170 107.1073850  98.9472080  74.8908990 107.7725700
  98.5909780  73.4926690 107.3143880 100.8546330  69.7217130 100.5477110
 100.7314110  69.7403260  99.5986620 101.8030890  69.7696070 100.6675510
  97.9423120  84.9572430  99.8205090  98.1964620  84.9193820  98.8984460
  96.9935600  84.8305760  99.8133340  95.0265920  71.3051550  96.4832030
  95.8756450  71.7421700  96.4172220  94.6597190  71.6171810  97.3104090
 105.6553690  70.6331130 107.9502240 105.1527290  71.3736530 108.2896050
 106.4710350  71.0215130 107.6339030 103.9475700  75.8764310 101.3963600
 103.0065840  75.8914540 101.5711290 104.2619770  75.0900270 101.8423900
  93.9257340  77.5583910  94.9567560  94.6920610  77.4465270  95.5192990
  94.0032030  76.8621880  94.3044330  92.6204100  74.9908980  95.6400450
  92.7007690  74.0436490  95.7517850  93.5123850  75.3215860  95.7461110
 105.9501280  83.0473160 103.0717860 106.0748700  83.8704330 103.5441670
 106.8166840  82.8363890 102.7242010  93.4218810  85.1404370 102.7434990
  94.1581290  84.5919830 103.0143560  93.8059730  86.0060380 102.6040980
  90.3064290  81.2077940  98.6176500  89.3804070  81.4499080  98.6081910
  90.7720720  82.0352200  98.4961250  96.5321120  84.3134680  94.5660560
  97.3249730  84.6023510  94.1142350  96.0125470  83.8826850  93.8873040
 105.5851290  83.5404810  95.9897300 105.2992800  83.1269950  95.1751480
 105.3870840  84.4692520  95.8697820  97.0498520  79.5338090  94.4302910
  96.9449160  78.9190440  95.1564290  96.8822740  79.0103980  93.6465920
  97.2012840  78.2194890 110.4092140  96.4358510  78.7879890 110.3246810
  97.3828800  77.9271100 109.5160370 100.2901250  78.5958120  95.0344900
  99.7411350  79.0427420  95.6787640 100.9120510  78.0907370  95.5582570
 104.3436190  79.9500220 110.9667160 105.0845660  80.2875980 110.4634620
 103.5808870  80.1192280 110.4136930  95.9576370  77.5549040  96.9310200
  96.3792790  77.3888910  97.7741590  96.0827210  76.7449270  96.4365340
  94.1203790  73.5345590 109.7381180  93.5900250  73.0436540 109.1104520
  94.7891860  73.9629790 109.2039110  98.4704010  76.5786650  94.1787300
  98.9909670  75.8635670  93.8128450  99.1172410  77.2172520  94.4787810
 103.0181850  78.0015050 109.5022370 103.4322870  78.1560130 110.3512790
 102.0832850  78.1270270 109.6648150  94.6076090  70.5007960 109.8178470
  94.5132960  69.8828710 109.0929340  94.0273480  71.2274250 109.5908380
  97.3737530  69.0581200 106.8505860  96.9254830  69.0805460 106.0051410
  96.7402730  68.6600220 107.4476160  97.7797080  77.9535530 107.4718300
  98.1985190  78.7968260 107.2994540  96.8605710  78.0907570 107.2425080
 100.1160980  75.6851710 108.8556140 100.2357190  75.0892850 109.5950980
 100.9754980  75.7221400 108.4357440 102.4548880  76.2388900 107.4318650
 101.9284100  76.7631520 106.8283790 102.7980220  76.8716290 108.0628380
  94.8535270  73.6282270  93.8768360  94.6524330  72.7649630  94.2381700
  94.6827320  73.5415630  92.9389960  95.6304500  84.2588540 108.5876030
  95.0925590  84.9834600 108.2684730  95.8838460  83.7818880 107.7973370
  96.8829750  72.2273060 110.1131960  97.4729440  71.9188910 110.8009780
  96.0649990  71.7552810 110.2691860 101.7023180  71.8438870 110.3464980
 101.0138700  71.1820410 110.2814970 102.4229200  71.3977140 110.7913440
 102.3323580  68.4390500  96.4055240 102.6125870  67.5958400  96.7614660
 101.5589310  68.6713610  96.9193990  93.6518070  70.7282890  93.8646240
  93.9543970  70.7350320  92.9565390  94.3912660  70.3780750  94.3613900
  98.4866710  85.4939750 108.8462680  98.4125410  86.3974890 109.1535050
  97.5845550  85.1751650 108.8184750  96.8703000  69.6717510  94.8502440
  96.5225000  68.9941500  94.2704890  97.0715770  69.2107020  95.6645830
  99.0352040  84.6598260  96.4689040  99.9302830  84.9983230  96.4907800
  99.0669670  83.9377670  95.8413320  92.6748200  80.0325310  94.6976040
  93.1123070  80.5754980  95.3533620  93.1595930  79.2072260  94.7072380
  89.8894000  82.8214340 102.1496300  90.2197010  81.9535400 101.9174940
  90.3185000  83.0272860 102.9801260  94.4855920  81.1523350  99.8098270
  94.1851460  81.0288320 100.7102180  94.3793410  80.2931940  99.4014000
  90.3784210  83.6884930 104.8877930  89.9415200  83.8685730 105.7202080
  90.9461890  84.4459550 104.7459650 106.0146390  83.1901930 109.1755240
 105.4148380  83.2494490 108.4319160 106.1440290  82.2506910 109.3052090
 107.2547840  80.9319750  94.5124950 106.4240800  80.9996400  94.9832180
 107.4319670  81.8223870  94.2091810 106.7104300  77.6767230  97.0159150
 107.4723210  78.2463880  97.1218840 106.7258670  77.1094430  97.7867460
  90.2108640  76.2005160 101.2466810  89.5557480  75.9316800 100.6026510
  91.0486590  76.0909640 100.7968790 107.7164270  78.5317330 101.8601080
 108.0873100  77.7484650 101.4537050 108.3566200  79.2206430 101.6818380
 104.6998030  79.9153910 107.2731400 103.8857870  80.3451070 107.5357190
 105.1072230  80.5272320 106.6600450 106.7623470  77.9701600  94.1731670
 107.0372310  78.8780480  94.0450890 106.5734210  77.9064130  95.1093660
 103.1599080  70.9946450  95.4685300 103.5783960  70.8077430  94.6281960
 102.8535140  70.1425500  95.7788230 106.6588810  75.9070590  99.1661100
 106.2832410  75.1398520  98.7342390 105.9291930  76.2893290  99.6536030
  91.2484570  76.5857730 105.7870150  91.6157610  76.4985130 106.6666170
  90.6795390  75.8224280 105.6877010 106.0488430  75.0542110 108.8000620
 105.8174520  74.8254860 107.8998570 106.3092980  75.9741660 108.7545510
  90.8000570  73.4966820 109.6928570  89.9056620  73.4633580 110.0322280
  91.3398120  73.6953610 110.4579820  89.4246720  73.4104090  97.1892140
  88.5210800  73.6734290  97.0143800  89.9087340  73.6815260  96.4092100
 105.9339770  74.1328080 102.4668340 106.4577250  73.6390730 101.8358510
 106.5199190  74.2678440 103.2115910 106.1129490  74.2167950 105.9887890
 105.1632200  74.1831490 106.1032880 106.2942500  75.1268060 105.7537660
  91.9673930  72.4669630  95.0986520  92.6765630  72.0452850  94.6133800
  91.2513870  72.5344860  94.4669870  91.6148090  68.5208960  94.1389170
  92.3376220  69.0617900  94.4570390  91.8872610  68.2472380  93.2630710
 105.4239740  73.3901430  98.4060750 105.9198860  73.1572300  99.1909630
 105.2255810  72.5513270  97.9898390  91.3040280  67.7715150 104.0411790
  91.9516470  67.2212530 103.6006950  91.7242120  68.0258300 104.8627600
 106.8526900  72.0262380 100.9398430 106.7426180  71.8718420 101.8780700
 107.6134490  71.4983320 100.6973840 105.1992620  67.9656510 107.3981430
 105.8364840  68.5790650 107.7640620 105.3467510  68.0017170 106.4530660
 107.7417170  69.8570300  94.1804570 108.6666480  69.7251480  93.9722860
 107.7192960  69.9363120  95.1341020 107.8155660  70.6280960  96.8061280
 107.0207160  70.5626080  97.3354190 108.0198940  71.5631600  96.7946630
 104.7574080  84.6672510 100.7999670 105.3533150  84.3457080 100.1234090
 105.0152230  84.1944330 101.5912940  91.0572280  67.9270820 106.7837110
  90.7087100  68.3834640 107.5495290  90.7259980  67.0327950 106.8659540
  96.3642680  82.6550010 106.5500020  96.1234040  82.9224570 105.6630540
  97.3045320  82.8255740 106.6050880 101.2071660  68.7752760 109.9448820
 101.8212070  69.0932050 109.2829900 101.7521220  68.2901350 110.5644680
 107.6246840  84.6744390 107.3510660 107.1305120  85.0713260 106.6337790
 107.0160130  84.0493600 107.7447940  91.7292920  67.4547020 110.0587880
  92.2775910  67.2735070 109.2953990  91.7948230  66.6641130 110.5944190
  92.5024680  84.0452670 108.0688080  91.9085000  83.9137370 108.8078120
  92.4948520  83.2090810 107.6030180 101.9479700  67.3384900 106.2718110
 101.0739540  67.6720010 106.0691040 101.8390450  66.8658080 107.0969980
 102.8551680  69.5455770 107.6559830 102.5265040  68.7307530 107.2761560
 103.8033980  69.5025580 107.5325520 105.3086290  85.3167810 104.6297400
 104.8489260  86.0683620 104.2555420 104.6798750  84.5974280 104.5712200
  92.1336910  81.4111050 107.0196120  91.4070970  80.7916340 106.9522070
  92.1946060  81.8051660 106.1494200  95.7382010  83.6256050 103.8045530
  96.2547030  83.0143410 103.2793790  96.3879390  84.1284830 104.2956540
  98.4777510  84.5164540 104.6314510  98.7655320  84.2618840 103.7547520
  98.9900730  83.9641900 105.2220080  99.6954520  68.2554740 105.2111020
  98.9126310  68.7300240 105.4907780  99.4017450  67.3509570 105.1024200
 104.2475590  68.9577840 103.2560110 104.6883680  68.9022940 102.4081710
 103.9783180  69.8735850 103.3270290 106.1114160  68.5893080 101.2668930
 106.0502560  67.6454300 101.1199950 106.8906190  68.6973170 101.8122390
  90.4166910  84.7285440 100.2292880  90.2488950  84.0956120 100.9274770
  89.5501420  84.9344840  99.8787070  91.0394930  68.5602220  97.7324740
  91.7974290  68.6731100  97.1588770  90.5772100  69.3971420  97.6868170
  97.5808740  70.6741490 100.7227050  96.7683250  70.2998380 100.3822930
  98.0850380  69.9186570 101.0248240 102.0833720  67.3383940 101.9610120
 102.6863090  67.9104150 102.4358640 101.3426710  67.9023380 101.7384020
 105.2268320  67.7405500  97.2350400 105.4218950  68.6388950  97.5017830
 104.4398190  67.5092580  97.7283350  92.0229610  83.4218670  97.6743020
  91.4977230  83.8026700  96.9704980  91.9474190  84.0469440  98.3952730
  93.4120080  69.0866270  96.2726710  93.9412840  68.2996070  96.1434660
  94.0448400  69.7657460  96.5062240  95.6057920  68.8241410  99.3272100
  94.9760660  68.1228720  99.4942230  95.0663060  69.5845540  99.1105260
 106.7794930  84.9806210  98.9956960 106.9547120  84.2943950  98.3517880
 106.0816500  85.5053260  98.6033630  94.6222580  85.3701050  96.5492270
  95.3541400  85.0860330  96.0016160  94.8816250  85.1314330  97.4391650
  93.7837370  81.4865780  96.5538600  93.1546250  81.9550880  97.1024430
  93.8985200  80.6415000  96.9884790 101.2387090  75.5371440  82.7039800
 101.1581140  74.6226050  82.4331510 100.8251510  76.0338510  81.9979510
  99.3705130  77.3150460  84.5849070  98.5947230  76.8350900  84.8747640
 100.0218060  76.6356110  84.4105230  93.3870960  77.6270270  85.4624830
  92.5555840  77.3718980  85.8621340  93.9951940  77.6981040  86.1982750
 103.3912560  81.7210650  83.3648200 102.9294090  80.9497890  83.6935370
 104.2038110  81.7476720  83.8700650  93.3672220  81.6610360  85.6582850
  93.6700260  80.7708100  85.4793070  94.1115810  82.2180580  85.4305100
  91.7962910  72.5872160  79.2467220  90.9079610  72.9288130  79.1447100
  92.0804100  72.3872480  78.3548050  89.7595920  75.1877810  85.1306920
  90.3312030  74.4200010  85.1310560  89.7597460  75.4866570  84.2213530
  99.6175870  84.0068660  82.9852190  98.9987310  84.4626160  82.4146630
 100.4727650  84.1620120  82.5841890  98.8114120  79.9907650  84.5919230
  98.7422400  79.0497590  84.4308360  99.5733980  80.0809060  85.1641800
  91.0020790  70.5962170  86.9175850  90.8223630  69.6987920  87.1978610
  90.6000870  71.1434040  87.5922800  99.8419290  72.7978030  84.8188160
 100.2184110  71.9249910  84.7061830  99.7438800  73.1336730  83.9278600
  93.9724300  71.1703660  80.2805600  94.0791050  72.0707390  80.5874360
  93.0616660  71.1221630  79.9900250 103.6243410  70.2928470  81.7516500
 104.4453030  69.8025040  81.7941980 103.6577490  70.8826130  82.5048340
  91.6207460  73.0922670  85.5258190  92.3017570  73.3561040  86.1445590
  91.3055510  72.2523540  85.8596200  95.8132030  74.1390030  84.6130780
  96.3210250  74.6371000  85.2535800  96.3445270  73.3625230  84.4370140
 107.9142960  72.3095220  88.3160130 107.2095130  72.6976930  87.7975240
 108.1800880  73.0045510  88.9181060  94.0968130  68.7788590  88.8794200
  94.0986570  69.2960980  88.0740100  93.2672440  68.3018770  88.8564130
 100.4839220  78.8907900  80.3784100  99.8656490  79.3557350  79.8146820
 100.9962470  79.5835380  80.7953610  95.3470980  78.4183770  87.0567700
  95.0140360  79.0452690  87.6988770  95.5237660  78.9445650  86.2769370
 103.8604890  72.2328850  84.5244040 103.1560460  72.5213740  85.1047150
 104.2217050  73.0428960  84.1643600  93.7783460  70.4898550  86.8864650
  94.1200270  71.3340600  86.5918520  92.8399270  70.6382290  87.0029990
  94.5590080  80.3864570  88.8716880  95.1764080  81.0615650  88.5901330
  93.6983200  80.7952550  88.7804380  89.8522420  79.5764430  77.7523730
  89.4750400  80.0651530  77.0208630  90.1095490  80.2489710  78.3830260
 105.4767670  81.8503980  86.7871520 104.7931190  82.5203090  86.7788190
 106.0161960  82.0484630  86.0216380 106.9291810  71.6783640  84.9153250
 105.9816720  71.7122620  85.0468680 107.2541800  72.4922590  85.3002610
  97.4611350  67.9780820  83.2109240  97.7686330  67.4227710  82.4944740
  96.5312050  68.1125280  83.0282230 103.0126410  83.6948110  85.5016700
 103.0253570  83.2910400  84.6338960 102.4601630  84.4695400  85.3978130
 104.3071830  80.4164330  80.5906870 104.1968160  79.4738660  80.7156290
 104.3040080  80.7779970  81.4769630 102.4111850  78.5977950  86.8299310
 102.8280640  78.3838060  85.9952770 103.1351670  78.8550740  87.4007930
  99.8492110  76.0429650  79.9469360  98.9221390  75.9767030  80.1757830
 100.0016930  76.9809780  79.8324600  99.8361190  72.3146650  76.9436520
  98.8964860  72.4760610  77.0288980 100.1544450  73.0332330  76.3972510
 106.3573950  76.9965170  86.9215550 105.5292580  77.0658260  86.4465680
 106.9524430  77.5819480  86.4531380 103.8789400  77.6049950  80.4504610
 103.2601820  77.2669500  79.8030910 103.8613850  76.9609710  81.1583800
 103.3215960  73.7834490  87.8670420 102.9087140  74.6088200  88.1210410
 102.5891910  73.1979530  87.6746780  95.4548750  76.5694390  82.7289090
  95.0505750  75.8571640  82.2334990  95.5411870  76.2247630  83.6177130
  95.9230450  80.2561950  84.8928300  95.6258740  79.6507420  84.2136080
  96.8730270  80.2939260  84.7817660  94.1677370  73.3437600  86.5088130
  94.7191960  73.4532940  85.7341380  94.6820880  73.7175200  87.2243360
 104.0116060  83.8293820  88.5551400 103.5346620  84.6366010  88.3624010
 103.3277850  83.1772150  88.7077610  95.0148880  79.9943640  91.5436100
  94.1177410  80.2183610  91.7909500  95.0401750  80.1178580  90.5947500
 102.0554100  76.8436760  77.4577360 102.4947380  76.0059190  77.3115180
 102.7682520  77.4766160  77.5441500  93.8420100  76.8656960  90.1193470
  93.7027870  77.7379760  90.4880870  92.9601460  76.5229770  89.9741410
 100.1649480  81.7832830  81.4258600 100.6045390  82.5257160  81.0113990
 100.1036370  82.0259400  82.3497560  95.6400450  82.8078660  92.3278620
  95.6115880  83.2121610  91.4607050  95.4765420  81.8789020  92.1650220
 105.6371240  68.0979570  75.7718400 105.3243900  68.1906400  76.6717470
 106.3983710  68.6760600  75.7215830  92.1553380  75.4639370  80.2295740
  92.0350980  76.1901460  79.6177010  91.8454270  74.6942280  79.7523650
 107.5915270  83.5905760  93.6242790 108.0674990  84.0688650  94.3031870
 108.2122430  83.5223250  92.8988290  89.7938750  78.6354510  86.0364380
  89.8719170  78.7703280  85.0920100  90.4080430  77.9270400  86.2292500
  91.0386380  80.3354700  82.4470560  90.6314460  80.4769290  81.5924160
  91.9299390  80.0514860  82.2441770 106.9948520  80.7818610  90.7842800
 107.1211580  80.5430490  89.8659980 107.0369900  79.9503150  91.2564880
 100.8565260  84.4846610  89.3537610 101.3709930  84.3954620  90.1560040
 100.0134340  84.8306310  89.6465520 102.8319660  84.7701950  78.7821610
 102.6720800  84.4804890  79.6803440 102.6666370  83.9942080  78.2466840
  95.3108040  84.5500480  80.5593230  95.1350520  83.6336020  80.3461030
  94.4563780  84.9087770  80.7991030 102.5345790  82.2789510  77.3419610
 101.8410950  82.2766800  76.6821890 103.2768650  81.8548830  76.9113780
 102.0995720  83.9052220  81.4168100 102.5552670  83.1241600  81.7306720
 102.4388240  84.6159040  81.9609280 106.8472530  72.8351070  91.7492540
 106.2316800  73.3430740  91.2208000 106.5268950  71.9349400  91.6918480
  89.8498270  79.6768680  88.5758840  90.0129310  79.2074040  87.7578210
  90.3150720  79.1692240  89.2407680  94.6217040  68.8074440  83.6119410
  94.1785190  69.5883980  83.2803930  95.1802030  69.1304330  84.3190350
  98.9086850  71.6742960  89.2154730  98.4466220  71.8825980  90.0274670
  98.5064960  70.8602310  88.9125400 103.9091360  72.8951910  90.3451390
 103.0584950  72.5957660  90.6660460 103.7493150  73.1393920  89.4335210
 101.0041070  74.3953660  92.4450180 101.3294480  73.5617410  92.1052410
 101.7921400  74.9182180  92.5928510  97.7375860  68.4285140  78.4925240
  97.1130040  68.4245010  79.2178550  97.6505980  67.5616100  78.0961210
  96.6592940  69.3521770  85.4709010  96.9565270  70.2584600  85.3901030
  97.2078500  68.8640550  84.8568580  94.4131260  73.9308010  81.3400660
  94.1872180  73.7145180  82.2447280  93.6323790  74.3636470  80.9946630
 101.6429020  73.9371380  79.9391310 101.0437910  74.6607180  79.7554930
 102.1908630  73.8748160  79.1567760  96.8530470  74.8293590  92.0060930
  96.7574070  73.8888320  91.8561330  97.6962450  75.0508660  91.6109000
 100.2493890  72.5734920  81.9694590 100.6423460  72.8907120  81.1563280
 100.6110740  71.6946800  82.0839110  91.9841010  71.2407260  90.1594710
  91.5904400  72.0882470  90.3667490  91.2959410  70.6033630  90.3503350
  98.5586060  71.3242230  93.2291450  97.8684380  71.1314430  93.8637540
  99.3018360  71.6076870  93.7615750  89.2858060  69.1635720  84.1924790
  88.9971110  69.7338580  84.9049770  90.0303820  68.6840170  84.5556020
 100.8349030  75.1640670  86.0645370 100.1030150  75.6727480  86.4135470
 100.4373370  74.3470650  85.7634150  97.2726420  71.8394870  84.4697860
  97.2762480  71.3984820  83.6202400  98.1677540  72.1612200  84.5769680
  93.1228800  71.7221360  83.4292070  92.7828850  72.1996590  84.1859120
  92.3606120  71.2686480  83.0693170  97.3346570  72.8406950  77.4604620
  97.4559390  72.7993430  78.4090440  96.9495080  73.7031100  77.3051350
 101.2974940  70.6174350  85.4768310 101.3147680  71.0683000  86.3210160
 101.0490520  69.7179990  85.6901750  96.3468070  75.1508090  76.8587920
  95.7784970  74.7026340  76.2323830  97.0557070  75.5100870  76.3253070
 104.7245690  68.0306530  91.3154690 105.0491460  67.2996190  91.8412670
 104.7602200  67.7120170  90.4135680  91.4237250  79.0520110  90.7354650
  91.0392040  78.4113780  91.3337610  91.7349440  79.7556230  91.3049380
  97.5734390  75.8996650  86.2163270  97.9404520  75.4255220  86.9624610
  97.3839450  76.7738220  86.5571610  90.4374880  70.6440340  82.3456740
  90.1521800  70.2796010  83.1835360  90.3753740  69.9120800  81.7319880
  95.3633760  74.9405290  88.5347480  95.0590830  75.8197270  88.7597840
  96.3180220  75.0005080  88.5704920  93.8915550  79.1466280  79.1314330
  93.1177810  78.6063900  78.9713050  94.6210180  78.6272890  78.7932090
 104.6503530  78.1431640  84.9240720 105.3702650  78.6386930  84.5336830
 104.4485350  77.4649530  84.2794590 100.1113470  69.5369600  79.0670110
  99.2978080  69.0382770  78.9915420  99.9175420  70.3767850  78.6506460
 100.0322330  78.2140700  90.8109720  99.9659640  77.2936370  90.5567310
  99.4027470  78.3116140  91.5254360 102.8261860  73.9089250  77.3632270
 103.7141480  74.2206480  77.1883610 102.7966950  73.0361500  76.9712850
  93.9352950  78.8146660  82.7693140  94.4531620  78.0114920  82.7150030
  93.4836970  78.7525800  83.6109970  98.8222450  80.0812940  78.0420440
  99.1638150  80.8255170  77.5463760  97.9935160  80.3944060  78.4045270
  91.4197490  75.7808030  89.6818840  91.0612430  76.4461880  90.2692180
  91.1252050  74.9491580  90.0531460  94.6210610  76.2392270  92.5658390
  94.3210750  76.3849450  91.6686210  95.3921850  75.6797560  92.4731780
  99.9639060  81.0361270  90.5613520  99.9783600  80.1042230  90.3432430
  99.2564160  81.1221030  91.2003290 105.0976130  75.2201090  76.8312130
 105.0139850  75.6515310  75.9808570 105.8170320  75.6799440  77.2638950
 106.1750270  77.6768610  89.9082100 105.4498460  78.2697390  89.7111490
 106.7025730  77.6692150  89.1095470 106.1263380  82.0743350  79.5594260
 105.4839540  81.4198970  79.8337980 105.7394040  82.4798440  78.7834930
 101.7049860  79.4028780  83.4065950 102.0573680  78.8056910  82.7467320
 100.8212190  79.0773010  83.5774200  97.7913140  80.1626470  80.8136360
  98.4784270  80.7095680  81.1943950  97.0045560  80.7067200  80.8485970
  89.9305540  75.7799290  76.3053440  90.8000390  76.0624090  76.5889360
  89.4395860  76.5935160  76.1902250  97.0940350  77.1672500  80.4261720
  97.5503130  77.9777750  80.6521910  96.7428560  76.8495640  81.2580210
  99.3972960  82.6778840  87.6554020 100.0415180  82.8838220  88.3327440
  99.7602400  81.9167240  87.2024870  92.9952130  67.5110150  80.8984240
  92.8666760  67.5028050  81.8469160  92.1714150  67.8493240  80.5475250
 100.6705040  80.6811190  86.3731470 101.3127270  79.9804350  86.4863640
 101.1954390  81.4609630  86.1928360 104.5160760  80.9659810  76.0970610
 104.2898340  80.2490250  76.6895250 104.1256960  80.7172250  75.2592360
 102.4442660  81.4806090  89.5767530 102.7798900  82.0672780  90.2545450
 101.5243000  81.3498800  89.8065320  90.2976790  84.9926670  76.8715070
  90.6574430  85.5916010  76.2172340  90.1569130  85.5386560  77.6450100
  89.9946060  69.2701270  90.3590940  89.2804580  69.4698190  90.9643550
  90.4141100  68.4940840  90.7305740 104.0977010  78.8831750  77.7584770
 103.8098710  79.3444440  78.5462650 104.8929180  78.4229520  78.0268990
  90.2818650  83.2581530  91.3457470  90.3909770  82.3176270  91.2052860
  89.6299210  83.5236280  90.6971200  98.2731240  81.5297420  92.7455590
  97.9528110  80.8106660  93.2901280  97.5989600  82.2052490  92.8191650
  96.3145410  82.3757870  77.6888740  96.3055510  83.1087560  77.0733250
  95.3943770  82.1289450  77.7815700  91.9152050  77.5972760  78.4335500
  91.3080000  78.3371660  78.4430800  92.3901400  77.6872120  77.6073700
 101.4884840  71.7623580  88.1092390 101.8565660  70.9418790  88.4371960
 100.6283040  71.8225470  88.5248040 104.8546870  70.7180520  78.9179950
 104.2260030  70.8226190  78.2038180 104.3598790  70.9377300  79.7073830
  99.3005010  82.4386110  76.3513930  99.4016990  82.2350100  75.4215910
  98.4006750  82.1844390  76.5561710  96.8230900  72.9966470  80.3337830
  96.1147050  73.4652810  80.7751440  97.1075380  72.3388480  80.9683020
  98.4486830  74.4163170  88.3330360  98.9472080  74.8908990  88.9982210
  98.5909780  73.4926690  88.5400390 100.8546330  69.7217130  81.7733620
 100.7314110  69.7403260  80.8243130 101.8030890  69.7696070  81.8932020
  97.9423120  84.9572430  81.0461600  98.1964620  84.9193820  80.1240970
  96.9935600  84.8305760  81.0389850  95.0265920  71.3051550  77.7088540
  95.8756450  71.7421700  77.6428730  94.6597190  71.6171810  78.5360600
 105.6553690  70.6331130  89.1758750 105.1527290  71.3736530  89.5152560
 106.4710350  71.0215130  88.8595540 103.9475700  75.8764310  82.6220110
 103.0065840  75.8914540  82.7967800 104.2619770  75.0900270  83.0680410
  93.9257340  77.5583910  76.1824070  94.6920610  77.4465270  76.7449500
  94.0032030  76.8621880  75.5300840  92.6204100  74.9908980  76.8656960
  92.7007690  74.0436490  76.9774360  93.5123850  75.3215860  76.9717620
 105.9501280  83.0473160  84.2974370 106.0748700  83.8704330  84.7698180
 106.8166840  82.8363890  83.9498520  93.4218810  85.1404370  83.9691500
  94.1581290  84.5919830  84.2400070  93.8059730  86.0060380  83.8297490
  90.3064290  81.2077940  79.8433010  89.3804070  81.4499080  79.8338420
  90.7720720  82.0352200  79.7217760  92.4277090  84.3250440  93.1577080
  93.2289820  84.6462490  93.5712480  91.9128910  83.9646020  93.8796990
  96.5321120  84.3134680  75.7917070  97.3249730  84.6023510  75.3398860
  96.0125470  83.8826850  75.1129550 101.2641720  80.4330310  93.1052490
 100.6579880  80.4561910  92.3648240 100.9595830  79.7013350  93.6419740
 102.6942090  84.1610600  91.7161900 103.6463840  84.0768620  91.6662140
 102.5470310  84.8252310  92.3895690 105.5851290  83.5404810  77.2153810
 105.2992800  83.1269950  76.4007990 105.3870840  84.4692520  77.0954330
  90.1474900  76.8123900  92.1013130  90.6513920  76.2331180  92.6729360
  89.4082320  77.0964130  92.6389500  97.0498520  79.5338090  75.6559420
  96.9449160  78.9190440  76.3820800  96.8822740  79.0103980  74.8722430
  97.2012840  78.2194890  91.6348650  96.4358510  78.7879890  91.5503320
  97.3828800  77.9271100  90.7416880 100.2901250  78.5958120  76.2601410
  99.7411350  79.0427420  76.9044150 100.9120510  78.0907370  76.7839080
 104.3436190  79.9500220  92.1923670 105.0845660  80.2875980  91.6891130
 103.5808870  80.1192280  91.6393440  92.1797980  74.9553490  92.9963200
  92.2203320  74.6567360  93.9048430  93.0343480  75.3561100  92.8370720
  95.9576370  77.5549040  78.1566710  96.3792790  77.3888910  78.9998100
  96.0827210  76.7449270  77.6621850  94.1203790  73.5345590  90.9637690
  93.5900250  73.0436540  90.3361030  94.7891860  73.9629790  90.4295620
  98.4704010  76.5786650  75.4043810  98.9909670  75.8635670  75.0384960
  99.1172410  77.2172520  75.7044320 103.0181850  78.0015050  90.7278880
 103.4322870  78.1560130  91.5769300 102.0832850  78.1270270  90.8904660
 103.4904020  75.3411210  92.7318030 104.0724790  74.5863530  92.6438510
 103.6665790  75.8718650  91.9549510  94.6076090  70.5007960  91.0434980
  94.5132960  69.8828710  90.3185850  94.0273480  71.2274250  90.8164890
  97.3737530  69.0581200  88.0762370  96.9254830  69.0805460  87.2307920
  96.7402730  68.6600220  88.6732670  97.7797080  77.9535530  88.6974810
  98.1985190  78.7968260  88.5251050  96.8605710  78.0907570  88.4681590
 100.1160980  75.6851710  90.0812650 100.2357190  75.0892850  90.8207490
 100.9754980  75.7221400  89.6613950 102.4548880  76.2388900  88.6575160
 101.9284100  76.7631520  88.0540300 102.7980220  76.8716290  89.2884890
  94.8535270  73.6282270  75.1024870  94.6524330  72.7649630  75.4638210
  94.6827320  73.5415630  74.1646470  95.6304500  84.2588540  89.8132540
  95.0925590  84.9834600  89.4941240  95.8838460  83.7818880  89.0229880
  96.8829750  72.2273060  91.3388470  97.4729440  71.9188910  92.0266290
  96.0649990  71.7552810  91.4948370 101.7023180  71.8438870  91.5721490
 101.0138700  71.1820410  91.5071480 102.4229200  71.3977140  92.0169950
 102.3323580  68.4390500  77.6311750 102.6125870  67.5958400  77.9871170
 101.5589310  68.6713610  78.1450500  93.6518070  70.7282890  75.0902750
  93.9543970  70.7350320  74.1821900  94.3912660  70.3780750  75.5870410
  98.4866710  85.4939750  90.0719190  98.4125410  86.3974890  90.3791560
  97.5845550  85.1751650  90.0441260  96.8703000  69.6717510  76.0758950
  96.5225000  68.9941500  75.4961400  97.0715770  69.2107020  76.8902340
  99.0352040  84.6598260  77.6945550  99.9302830  84.9983230  77.7164310
  99.0669670  83.9377670  77.0669830  92.6748200  80.0325310  75.9232550
  93.1123070  80.5754980  76.5790130  93.1595930  79.2072260  75.9328890
  89.8894000  82.8214340  83.3752810  90.2197010  81.9535400  83.1431450
  90.3185000  83.0272860  84.2057770  94.4855920  81.1523350  81.0354780
  94.1851460  81.0288320  81.9358690  94.3793410  80.2931940  80.6270510
  90.3784210  83.6884930  86.1134440  89.9415200  83.8685730  86.9458590
  90.9461890  84.4459550  85.9716160 106.0146390  83.1901930  90.4011750
 105.4148380  83.2494490  89.6575670 106.1440290  82.2506910  90.5308600
 107.2547840  80.9319750  75.7381460 106.4240800  80.9996400  76.2088690
 107.4319670  81.8223870  75.4348320 106.7104300  77.6767230  78.2415660
 107.4723210  78.2463880  78.3475350 106.7258670  77.1094430  79.0123970
  90.2108640  76.2005160  82.4723320  89.5557480  75.9316800  81.8283020
  91.0486590  76.0909640  82.0225300 107.7164270  78.5317330  83.0857590
 108.0873100  77.7484650  82.6793560 108.3566200  79.2206430  82.9074890
 104.6998030  79.9153910  88.4987910 103.8857870  80.3451070  88.7613700
 105.1072230  80.5272320  87.8856960 106.7623470  77.9701600  75.3988180
 107.0372310  78.8780480  75.2707400 106.5734210  77.9064130  76.3350170
 103.1599080  70.9946450  76.6941810 103.5783960  70.8077430  75.8538470
 102.8535140  70.1425500  77.0044740 106.6588810  75.9070590  80.3917610
 106.2832410  75.1398520  79.9598900 105.9291930  76.2893290  80.8792540
  91.2484570  76.5857730  87.0126660  91.6157610  76.4985130  87.8922680
  90.6795390  75.8224280  86.9133520 106.0488430  75.0542110  90.0257130
 105.8174520  74.8254860  89.1255080 106.3092980  75.9741660  89.9802020
  90.8000570  73.4966820  90.9185080  89.9056620  73.4633580  91.2578790
  91.3398120  73.6953610  91.6836330 104.4876500  70.2798540  92.8036830
 105.3646680  70.2881940  93.1870830 104.4997340  69.5429380  92.1929180
  89.4246720  73.4104090  78.4148650  88.5210800  73.6734290  78.2400310
  89.9087340  73.6815260  77.6348610 105.9339770  74.1328080  83.6924850
 106.4577250  73.6390730  83.0615020 106.5199190  74.2678440  84.4372420
 106.1129490  74.2167950  87.2144400 105.1632200  74.1831490  87.3289390
 106.2942500  75.1268060  86.9794170  91.6148090  68.5208960  75.3645680
  92.3376220  69.0617900  75.6826900  91.8872610  68.2472380  74.4887220
 105.4239740  73.3901430  79.6317260 105.9198860  73.1572300  80.4166140
 105.2255810  72.5513270  79.2154900  91.3040280  67.7715150  85.2668300
  91.9516470  67.2212530  84.8263460  91.7242120  68.0258300  86.0884110
 106.8526900  72.0262380  82.1654940 106.7426180  71.8718420  83.1037210
 107.6134490  71.4983320  81.9230350 105.1992620  67.9656510  88.6237940
 105.8364840  68.5790650  88.9897130 105.3467510  68.0017170  87.6787170
 107.7417170  69.8570300  75.4061080 108.6666480  69.7251480  75.1979370
 107.7192960  69.9363120  76.3597530 107.8155660  70.6280960  78.0317790
 107.0207160  70.5626080  78.5610700 108.0198940  71.5631600  78.0203140
 104.7574080  84.6672510  82.0256180 105.3533150  84.3457080  81.3490600
 105.0152230  84.1944330  82.8169450  91.0572280  67.9270820  88.0093620
  90.7087100  68.3834640  88.7751800  90.7259980  67.0327950  88.0916050
  92.6636650  81.0990420  92.1746810  92.6206280  80.7283330  93.0561270
  92.7947660  82.0367990  92.3148630  96.3642680  82.6550010  87.7756530
  96.1234040  82.9224570  86.8887050  97.3045320  82.8255740  87.8307390
  98.5697100  69.1182700  91.5313040  98.5085990  69.7104530  92.2808450
  99.5097480  69.0108660  91.3863300 101.2071660  68.7752760  91.1705330
 101.8212070  69.0932050  90.5086410 101.7521220  68.2901350  91.7901190
 107.6246840  84.6744390  88.5767170 107.1305120  85.0713260  87.8594300
 107.0160130  84.0493600  88.9704450  91.7292920  67.4547020  91.2844390
  92.2775910  67.2735070  90.5210500  91.7948230  66.6641130  91.8200700
  92.5024680  84.0452670  89.2944590  91.9085000  83.9137370  90.0334630
  92.4948520  83.2090810  88.8286690 101.9479700  67.3384900  87.4974620
 101.0739540  67.6720010  87.2947550 101.8390450  66.8658080  88.3226490
 102.8551680  69.5455770  88.8816340 102.5265040  68.7307530  88.5018070
 103.8033980  69.5025580  88.7582030 105.3086290  85.3167810  85.8553910
 104.8489260  86.0683620  85.4811930 104.6798750  84.5974280  85.7968710
  92.1336910  81.4111050  88.2452630  91.4070970  80.7916340  88.1778580
  92.1946060  81.8051660  87.3750710  95.7382010  83.6256050  85.0302040
  96.2547030  83.0143410  84.5050300  96.3879390  84.1284830  85.5213050
  98.4777510  84.5164540  85.8571020  98.7655320  84.2618840  84.9804030
  98.9900730  83.9641900  86.4476590  99.6954520  68.2554740  86.4367530
  98.9126310  68.7300240  86.7164290  99.4017450  67.3509570  86.3280710
 104.2475590  68.9577840  84.4816620 104.6883680  68.9022940  83.6338220
 103.9783180  69.8735850  84.5526800 106.1114160  68.5893080  82.4925440
 106.0502560  67.6454300  82.3456460 106.8906190  68.6973170  83.0378900
  90.4166910  84.7285440  81.4549390  90.2488950  84.0956120  82.1531280
  89.5501420  84.9344840  81.1043580  91.0394930  68.5602220  78.9581250
  91.7974290  68.6731100  78.3845280  90.5772100  69.3971420  78.9124680
  97.5808740  70.6741490  81.9483560  96.7683250  70.2998380  81.6079440
  98.0850380  69.9186570  82.2504750 102.0833720  67.3383940  83.1866630
 102.6863090  67.9104150  83.6615150 101.3426710  67.9023380  82.9640530
 105.2268320  67.7405500  78.4606910 105.4218950  68.6388950  78.7274340
 104.4398190  67.5092580  78.9539860  92.0229610  83.4218670  78.8999530
  91.4977230  83.8026700  78.1961490  91.9474190  84.0469440  79.6209240
  93.4120080  69.0866270  77.4983220  93.9412840  68.2996070  77.3691170
  94.0448400  69.7657460  77.7318750  95.6057920  68.8241410  80.5528610
  94.9760660  68.1228720  80.7198740  95.0663060  69.5845540  80.3361770
  98.5449870  85.4380640  93.2239220  99.4717180  85.2024910  93.2675180
  98.5300300  86.2652640  92.7425250 106.7794930  84.9806210  80.2213470
 106.9547120  84.2943950  79.5774390 106.0816500  85.5053260  79.8290140
  95.7313480  68.1025390  92.9881100  95.4497750  68.6058990  92.2241920
  96.1133180  67.3047140  92.6223230  94.6222580  85.3701050  77.7748780
  95.3541400  85.0860330  77.2272670  94.8816250  85.1314330  78.6648160
  93.7837370  81.4865780  77.7795110  93.1546250  81.9550880  78.3280940
  93.8985200  80.6415000  78.2141300 102.3328940  67.5178970  93.5661570
 102.2194390  67.8373580  94.4613090 103.1498680  67.9191480  93.2698850
 105.1127430  84.6650500  93.0480260 105.9052750  84.1699730  92.8406220
 105.4060580  85.3440640  93.6555870 101.2387090  75.5371440  63.9296310
 101.1581140  74.6226050  63.6588020 100.8251510  76.0338510  63.2236020
  99.3705130  77.3150460  65.8105580  98.5947230  76.8350900  66.1004150
 100.0218060  76.6356110  65.6361740  93.3870960  77.6270270  66.6881340
  92.5555840  77.3718980  67.0877850  93.9951940  77.6981040  67.4239260
 103.3912560  81.7210650  64.5904710 102.9294090  80.9497890  64.9191880
 104.2038110  81.7476720  65.0957160  93.3672220  81.6610360  66.8839360
  93.6700260  80.7708100  66.7049580  94.1115810  82.2180580  66.6561610
  91.7962910  72.5872160  60.4723730  90.9079610  72.9288130  60.3703610
  92.0804100  72.3872480  59.5804560  99.6175870  84.0068660  64.2108700
  98.9987310  84.4626160  63.6403140 100.4727650  84.1620120  63.8098400
  98.8114120  79.9907650  65.8175740  98.7422400  79.0497590  65.6564870
  99.5733980  80.0809060  66.3898310  99.8419290  72.7978030  66.0444670
 100.2184110  71.9249910  65.9318340  99.7438800  73.1336730  65.1535110
  93.9724300  71.1703660  61.5062110  94.0791050  72.0707390  61.8130870
  93.0616660  71.1221630  61.2156760 103.6243410  70.2928470  62.9773010
 104.4453030  69.8025040  63.0198490 103.6577490  70.8826130  63.7304850
  91.6207460  73.0922670  66.7514700  92.3017570  73.3561040  67.3702100
  91.3055510  72.2523540  67.0852710  95.8132030  74.1390030  65.8387290
  96.3210250  74.6371000  66.4792310  96.3445270  73.3625230  65.6626650
 107.9142960  72.3095220  69.5416640 107.2095130  72.6976930  69.0231750
 108.1800880  73.0045510  70.1437570  94.0968130  68.7788590  70.1050710
  94.0986570  69.2960980  69.2996610  93.2672440  68.3018770  70.0820640
 100.4839220  78.8907900  61.6040610  99.8656490  79.3557350  61.0403330
 100.9962470  79.5835380  62.0210120  95.3470980  78.4183770  68.2824210
  95.0140360  79.0452690  68.9245280  95.5237660  78.9445650  67.5025880
 103.8604890  72.2328850  65.7500550 103.1560460  72.5213740  66.3303660
 104.2217050  73.0428960  65.3900110  93.7783460  70.4898550  68.1121160
  94.1200270  71.3340600  67.8175030  92.8399270  70.6382290  68.2286500
  94.5590080  80.3864570  70.0973390  95.1764080  81.0615650  69.8157840
  93.6983200  80.7952550  70.0060890 105.4767670  81.8503980  68.0128030
 104.7931190  82.5203090  68.0044700 106.0161960  82.0484630  67.2472890
 106.9291810  71.6783640  66.1409760 105.9816720  71.7122620  66.2725190
 107.2541800  72.4922590  66.5259120  97.4611350  67.9780820  64.4365750
  97.7686330  67.4227710  63.7201250  96.5312050  68.1125280  64.2538740
 103.0126410  83.6948110  66.7273210 103.0253570  83.2910400  65.8595470
 102.4601630  84.4695400  66.6234640 104.3071830  80.4164330  61.8163380
 104.1968160  79.4738660  61.9412800 104.3040080  80.7779970  62.7026140
 102.4111850  78.5977950  68.0555820 102.8280640  78.3838060  67.2209280
 103.1351670  78.8550740  68.6264440  99.8492110  76.0429650  61.1725870
  98.9221390  75.9767030  61.4014340 100.0016930  76.9809780  61.0581110
  99.8361190  72.3146650  58.1693030  98.8964860  72.4760610  58.2545490
 100.1544450  73.0332330  57.6229020 106.3573950  76.9965170  68.1472060
 105.5292580  77.0658260  67.6722190 106.9524430  77.5819480  67.6787890
 103.8789400  77.6049950  61.6761120 103.2601820  77.2669500  61.0287420
 103.8613850  76.9609710  62.3840310 103.3215960  73.7834490  69.0926930
 102.9087140  74.6088200  69.3466920 102.5891910  73.1979530  68.9003290
  95.4548750  76.5694390  63.9545600  95.0505750  75.8571640  63.4591500
  95.5411870  76.2247630  64.8433640  95.9230450  80.2561950  66.1184810
  95.6258740  79.6507420  65.4392590  96.8730270  80.2939260  66.0074170
  94.1677370  73.3437600  67.7344640  94.7191960  73.4532940  66.9597890
  94.6820880  73.7175200  68.4499870 104.0116060  83.8293820  69.7807910
 103.5346620  84.6366010  69.5880520 103.3277850  83.1772150  69.9334120
  95.0148880  79.9943640  72.7692610  94.1177410  80.2183610  73.0166010
  95.0401750  80.1178580  71.8204010 102.0554100  76.8436760  58.6833870
 102.4947380  76.0059190  58.5371690 102.7682520  77.4766160  58.7698010
  93.8420100  76.8656960  71.3449980  93.7027870  77.7379760  71.7137380
  92.9601460  76.5229770  71.1997920 100.1649480  81.7832830  62.6515110
 100.6045390  82.5257160  62.2370500 100.1036370  82.0259400  63.5754070
  95.6400450  82.8078660  73.5535130  95.6115880  83.2121610  72.6863560
  95.4765420  81.8789020  73.3906730 105.6371240  68.0979570  56.9974910
 105.3243900  68.1906400  57.8973980 106.3983710  68.6760600  56.9472340
 107.5915270  83.5905760  74.8499300 108.0674990  84.0688650  75.5288380
 108.2122430  83.5223250  74.1244800 106.9948520  80.7818610  72.0099310
 107.1211580  80.5430490  71.0916490 107.0369900  79.9503150  72.4821390
 100.8565260  84.4846610  70.5794120 101.3709930  84.3954620  71.3816550
 100.0134340  84.8306310  70.8722030 102.8319660  84.7701950  60.0078120
 102.6720800  84.4804890  60.9059950 102.6666370  83.9942080  59.4723350
  95.3108040  84.5500480  61.7849740  95.1350520  83.6336020  61.5717540
  94.4563780  84.9087770  62.0247540 102.5345790  82.2789510  58.5676120
 101.8410950  82.2766800  57.9078400 103.2768650  81.8548830  58.1370290
 102.0995720  83.9052220  62.6424610 102.5552670  83.1241600  62.9563230
 102.4388240  84.6159040  63.1865790 106.8472530  72.8351070  72.9749050
 106.2316800  73.3430740  72.4464510 106.5268950  71.9349400  72.9174990
  89.8498270  79.6768680  69.8015350  90.0129310  79.2074040  68.9834720
  90.3150720  79.1692240  70.4664190  94.6217040  68.8074440  64.8375920
  94.1785190  69.5883980  64.5060440  95.1802030  69.1304330  65.5446860
  98.9086850  71.6742960  70.4411240  98.4466220  71.8825980  71.2531180
  98.5064960  70.8602310  70.1381910 103.9091360  72.8951910  71.5707900
 103.0584950  72.5957660  71.8916970 103.7493150  73.1393920  70.6591720
 101.0041070  74.3953660  73.6706690 101.3294480  73.5617410  73.3308920
 101.7921400  74.9182180  73.8185020  97.7375860  68.4285140  59.7181750
  97.1130040  68.4245010  60.4435060  97.6505980  67.5616100  59.3217720
  96.6592940  69.3521770  66.6965520  96.9565270  70.2584600  66.6157540
  97.2078500  68.8640550  66.0825090  94.4131260  73.9308010  62.5657170
  94.1872180  73.7145180  63.4703790  93.6323790  74.3636470  62.2203140
 101.6429020  73.9371380  61.1647820 101.0437910  74.6607180  60.9811440
 102.1908630  73.8748160  60.3824270  96.8530470  74.8293590  73.2317440
  96.7574070  73.8888320  73.0817840  97.6962450  75.0508660  72.8365510
 100.2493890  72.5734920  63.1951100 100.6423460  72.8907120  62.3819790
 100.6110740  71.6946800  63.3095620  98.5586060  71.3242230  74.4547960
  97.8684380  71.1314430  75.0894050  99.3018360  71.6076870  74.9872260
  89.4728290  73.1055840  56.6284020  89.3902960  74.0486600  56.7699010
  89.1211350  72.9630750  55.7496370 100.8349030  75.1640670  67.2901880
 100.1030150  75.6727480  67.6391980 100.4373370  74.3470650  66.9890660
  97.2726420  71.8394870  65.6954370  97.2762480  71.3984820  64.8458910
  98.1677540  72.1612200  65.8026190  93.1228800  71.7221360  64.6548580
  92.7828850  72.1996590  65.4115630  92.3606120  71.2686480  64.2949680
  97.3346570  72.8406950  58.6861130  97.4559390  72.7993430  59.6346950
  96.9495080  73.7031100  58.5307860 101.2974940  70.6174350  66.7024820
 101.3147680  71.0683000  67.5466670 101.0490520  69.7179990  66.9158260
  96.3468070  75.1508090  58.0844430  95.7784970  74.7026340  57.4580340
  97.0557070  75.5100870  57.5509580 104.7245690  68.0306530  72.5411200
 105.0491460  67.2996190  73.0669180 104.7602200  67.7120170  71.6392190
  91.4237250  79.0520110  71.9611160  91.0392040  78.4113780  72.5594120
  91.7349440  79.7556230  72.5305890  97.5734390  75.8996650  67.4419780
  97.9404520  75.4255220  68.1881120  97.3839450  76.7738220  67.7828120
  90.4374880  70.6440340  63.5713250  90.1521800  70.2796010  64.4091870
  90.3753740  69.9120800  62.9576390  95.3633760  74.9405290  69.7603990
  95.0590830  75.8197270  69.9854350  96.3180220  75.0005080  69.7961430
  93.8915550  79.1466280  60.3570840  93.1177810  78.6063900  60.1969560
  94.6210180  78.6272890  60.0188600 104.6503530  78.1431640  66.1497230
 105.3702650  78.6386930  65.7593340 104.4485350  77.4649530  65.5051100
 100.1113470  69.5369600  60.2926620  99.2978080  69.0382770  60.2171930
  99.9175420  70.3767850  59.8762970 100.0322330  78.2140700  72.0366230
  99.9659640  77.2936370  71.7823820  99.4027470  78.3116140  72.7510870
 102.8261860  73.9089250  58.5888780 103.7141480  74.2206480  58.4140120
 102.7966950  73.0361500  58.1969360  98.8222450  80.0812940  59.2676950
  99.1638150  80.8255170  58.7720270  97.9935160  80.3944060  59.6301780
  91.4197490  75.7808030  70.9075350  91.0612430  76.4461880  71.4948690
  91.1252050  74.9491580  71.2787970  94.6210610  76.2392270  73.7914900
  94.3210750  76.3849450  72.8942720  95.3921850  75.6797560  73.6988290
  99.9639060  81.0361270  71.7870030  99.9783600  80.1042230  71.5688940
  99.2564160  81.1221030  72.4259800 105.0976130  75.2201090  58.0568640
 105.0139850  75.6515310  57.2065080 105.8170320  75.6799440  58.4895460
 106.1750270  77.6768610  71.1338610 105.4498460  78.2697390  70.9368000
 106.7025730  77.6692150  70.3351980 106.1263380  82.0743350  60.7850770
 105.4839540  81.4198970  61.0594490 105.7394040  82.4798440  60.0091440
 101.7049860  79.4028780  64.6322460 102.0573680  78.8056910  63.9723830
 100.8212190  79.0773010  64.8030710  97.7913140  80.1626470  62.0392870
  98.4784270  80.7095680  62.4200460  97.0045560  80.7067200  62.0742480
  89.9305540  75.7799290  57.5309950  90.8000390  76.0624090  57.8145870
  89.4395860  76.5935160  57.4158760  97.0940350  77.1672500  61.6518230
  97.5503130  77.9777750  61.8778420  96.7428560  76.8495640  62.4836720
  99.3972960  82.6778840  68.8810530 100.0415180  82.8838220  69.5583950
  99.7602400  81.9167240  68.4281380  92.9952130  67.5110150  62.1240750
  92.8666760  67.5028050  63.0725670  92.1714150  67.8493240  61.7731760
 100.6705040  80.6811190  67.5987980 101.3127270  79.9804350  67.7120150
 101.1954390  81.4609630  67.4184870 104.5160760  80.9659810  57.3227120
 104.2898340  80.2490250  57.9151760 104.1256960  80.7172250  56.4848870
 102.4442660  81.4806090  70.8024040 102.7798900  82.0672780  71.4801960
 101.5243000  81.3498800  71.0321830  90.2976790  84.9926670  58.0971580
  90.6574430  85.5916010  57.4428850  90.1569130  85.5386560  58.8706610
 104.0977010  78.8831750  58.9841280 103.8098710  79.3444440  59.7719160
 104.8929180  78.4229520  59.2525500  90.2818650  83.2581530  72.5713980
  90.3909770  82.3176270  72.4309370  89.6299210  83.5236280  71.9227710
  98.2731240  81.5297420  73.9712100  97.9528110  80.8106660  74.5157790
  97.5989600  82.2052490  74.0448160  96.3145410  82.3757870  58.9145250
  96.3055510  83.1087560  58.2989760  95.3943770  82.1289450  59.0072210
 101.4884840  71.7623580  69.3348900 101.8565660  70.9418790  69.6628470
 100.6283040  71.8225470  69.7504550 104.8546870  70.7180520  60.1436460
 104.2260030  70.8226190  59.4294690 104.3598790  70.9377300  60.9330340
  99.3005010  82.4386110  57.5770440  99.4016990  82.2350100  56.6472420
  98.4006750  82.1844390  57.7818220  96.8230900  72.9966470  61.5594340
  96.1147050  73.4652810  62.0007950  97.1075380  72.3388480  62.1939530
  98.4486830  74.4163170  69.5586870  98.9472080  74.8908990  70.2238720
  98.5909780  73.4926690  69.7656900 100.8546330  69.7217130  62.9990130
 100.7314110  69.7403260  62.0499640 101.8030890  69.7696070  63.1188530
  97.9423120  84.9572430  62.2718110  98.1964620  84.9193820  61.3497480
  96.9935600  84.8305760  62.2646360  95.0265920  71.3051550  58.9345050
  95.8756450  71.7421700  58.8685240  94.6597190  71.6171810  59.7617110
 105.6553690  70.6331130  70.4015260 105.1527290  71.3736530  70.7409070
 106.4710350  71.0215130  70.0852050 103.9475700  75.8764310  63.8476620
 103.0065840  75.8914540  64.0224310 104.2619770  75.0900270  64.2936920
  93.9257340  77.5583910  57.4080580  94.6920610  77.4465270  57.9706010
  94.0032030  76.8621880  56.7557350  92.6204100  74.9908980  58.0913470
  92.7007690  74.0436490  58.2030870  93.5123850  75.3215860  58.1974130
 105.9501280  83.0473160  65.5230880 106.0748700  83.8704330  65.9954690
 106.8166840  82.8363890  65.1755030  93.4218810  85.1404370  65.1948010
  94.1581290  84.5919830  65.4656580  93.8059730  86.0060380  65.0554000
  90.3064290  81.2077940  61.0689520  89.3804070  81.4499080  61.0594930
  90.7720720  82.0352200  60.9474270  92.4277090  84.3250440  74.3833590
  93.2289820  84.6462490  74.7968990  91.9128910  83.9646020  75.1053500
  96.5321120  84.3134680  57.0173580  97.3249730  84.6023510  56.5655370
  96.0125470  83.8826850  56.3386060 101.2641720  80.4330310  74.3309000
 100.6579880  80.4561910  73.5904750 100.9595830  79.7013350  74.8676250
 102.6942090  84.1610600  72.9418410 103.6463840  84.0768620  72.8918650
 102.5470310  84.8252310  73.6152200 105.5851290  83.5404810  58.4410320
 105.2992800  83.1269950  57.6264500 105.3870840  84.4692520  58.3210840
  90.1474900  76.8123900  73.3269640  90.6513920  76.2331180  73.8985870
  89.4082320  77.0964130  73.8646010  97.0498520  79.5338090  56.8815930
  96.9449160  78.9190440  57.6077310  96.8822740  79.0103980  56.0978940
  97.2012840  78.2194890  72.8605160  96.4358510  78.7879890  72.7759830
  97.3828800  77.9271100  71.9673390 100.2901250  78.5958120  57.4857920
  99.7411350  79.0427420  58.1300660 100.9120510  78.0907370  58.0095590
 104.3436190  79.9500220  73.4180180 105.0845660  80.2875980  72.9147640
 103.5808870  80.1192280  72.8649950  92.1797980  74.9553490  74.2219710
  92.2203320  74.6567360  75.1304940  93.0343480  75.3561100  74.0627230
  95.9576370  77.5549040  59.3823220  96.3792790  77.3888910  60.2254610
  96.0827210  76.7449270  58.8878360  94.1203790  73.5345590  72.1894200
  93.5900250  73.0436540  71.5617540  94.7891860  73.9629790  71.6552130
  98.4704010  76.5786650  56.6300320  98.9909670  75.8635670  56.2641470
  99.1172410  77.2172520  56.9300830 103.0181850  78.0015050  71.9535390
 103.4322870  78.1560130  72.8025810 102.0832850  78.1270270  72.1161170
 103.4904020  75.3411210  73.9574540 104.0724790  74.5863530  73.8695020
 103.6665790  75.8718650  73.1806020  94.6076090  70.5007960  72.2691490
  94.5132960  69.8828710  71.5442360  94.0273480  71.2274250  72.0421400
  97.3737530  69.0581200  69.3018880  96.9254830  69.0805460  68.4564430
  96.7402730  68.6600220  69.8989180  97.7797080  77.9535530  69.9231320
  98.1985190  78.7968260  69.7507560  96.8605710  78.0907570  69.6938100
 100.1160980  75.6851710  71.3069160 100.2357190  75.0892850  72.0464000
 100.9754980  75.7221400  70.8870460 102.4548880  76.2388900  69.8831670
 101.9284100  76.7631520  69.2796810 102.7980220  76.8716290  70.5141400
  94.8535270  73.6282270  56.3281380  94.6524330  72.7649630  56.6894720
  94.6827320  73.5415630  55.3902980  95.6304500  84.2588540  71.0389050
  95.0925590  84.9834600  70.7197750  95.8838460  83.7818880  70.2486390
  96.8829750  72.2273060  72.5644980  97.4729440  71.9188910  73.2522800
  96.0649990  71.7552810  72.7204880 101.7023180  71.8438870  72.7978000
 101.0138700  71.1820410  72.7327990 102.4229200  71.3977140  73.2426460
 102.3323580  68.4390500  58.8568260 102.6125870  67.5958400  59.2127680
 101.5589310  68.6713610  59.3707010  93.6518070  70.7282890  56.3159260
  93.9543970  70.7350320  55.4078410  94.3912660  70.3780750  56.8126920
  98.4866710  85.4939750  71.2975700  98.4125410  86.3974890  71.6048070
  97.5845550  85.1751650  71.2697770  96.8703000  69.6717510  57.3015460
  96.5225000  68.9941500  56.7217910  97.0715770  69.2107020  58.1158850
  99.0352040  84.6598260  58.9202060  99.9302830  84.9983230  58.9420820
  99.0669670  83.9377670  58.2926340  92.6748200  80.0325310  57.1489060
  93.1123070  80.5754980  57.8046640  93.1595930  79.2072260  57.1585400
  89.8894000  82.8214340  64.6009320  90.2197010  81.9535400  64.3687960
  90.3185000  83.0272860  65.4314280  94.4855920  81.1523350  62.2611290
  94.1851460  81.0288320  63.1615200  94.3793410  80.2931940  61.8527020
  90.3784210  83.6884930  67.3390950  89.9415200  83.8685730  68.1715100
  90.9461890  84.4459550  67.1972670 106.0146390  83.1901930  71.6268260
 105.4148380  83.2494490  70.8832180 106.1440290  82.2506910  71.7565110
 107.2547840  80.9319750  56.9637970 106.4240800  80.9996400  57.4345200
 107.4319670  81.8223870  56.6604830 106.7104300  77.6767230  59.4672170
 107.4723210  78.2463880  59.5731860 106.7258670  77.1094430  60.2380480
 107.7164270  78.5317330  64.3114100 108.0873100  77.7484650  63.9050070
 108.3566200  79.2206430  64.1331400 104.6998030  79.9153910  69.7244420
 103.8857870  80.3451070  69.9870210 105.1072230  80.5272320  69.1113470
 106.7623470  77.9701600  56.6244690 107.0372310  78.8780480  56.4963910
 106.5734210  77.9064130  57.5606680 103.1599080  70.9946450  57.9198320
 103.5783960  70.8077430  57.0794980 102.8535140  70.1425500  58.2301250
 106.6588810  75.9070590  61.6174120 106.2832410  75.1398520  61.1855410
 105.9291930  76.2893290  62.1049050  91.2484570  76.5857730  68.2383170
  91.6157610  76.4985130  69.1179190  90.6795390  75.8224280  68.1390030
 106.0488430  75.0542110  71.2513640 105.8174520  74.8254860  70.3511590
 106.3092980  75.9741660  71.2058530 104.4876500  70.2798540  74.0293340
 105.3646680  70.2881940  74.4127340 104.4997340  69.5429380  73.4185690
  89.4246720  73.4104090  59.6405160  88.5210800  73.6734290  59.4656820
  89.9087340  73.6815260  58.8605120 105.9339770  74.1328080  64.9181360
 106.4577250  73.6390730  64.2871530 106.5199190  74.2678440  65.6628930
 106.1129490  74.2167950  68.4400910 105.1632200  74.1831490  68.5545900
 106.2942500  75.1268060  68.2050680  91.9673930  72.4669630  57.5499540
  92.6765630  72.0452850  57.0646820  91.2513870  72.5344860  56.9182890
  91.6148090  68.5208960  56.5902190  92.3376220  69.0617900  56.9083410
  91.8872610  68.2472380  55.7143730 105.4239740  73.3901430  60.8573770
 105.9198860  73.1572300  61.6422650 105.2255810  72.5513270  60.4411410
  91.3040280  67.7715150  66.4924810  91.9516470  67.2212530  66.0519970
  91.7242120  68.0258300  67.3140620 106.8526900  72.0262380  63.3911450
 106.7426180  71.8718420  64.3293720 107.6134490  71.4983320  63.1486860
 105.1992620  67.9656510  69.8494450 105.8364840  68.5790650  70.2153640
 105.3467510  68.0017170  68.9043680 107.7417170  69.8570300  56.6317590
 108.6666480  69.7251480  56.4235880 107.7192960  69.9363120  57.5854040
 107.8155660  70.6280960  59.2574300 107.0207160  70.5626080  59.7867210
 108.0198940  71.5631600  59.2459650 104.7574080  84.6672510  63.2512690
 105.3533150  84.3457080  62.5747110 105.0152230  84.1944330  64.0425960
  92.6636650  81.0990420  73.4003320  92.6206280  80.7283330  74.2817780
  92.7947660  82.0367990  73.5405140  96.3642680  82.6550010  69.0013040
  96.1234040  82.9224570  68.1143560  97.3045320  82.8255740  69.0563900
  98.5697100  69.1182700  72.7569550  98.5085990  69.7104530  73.5064960
  99.5097480  69.0108660  72.6119810 101.2071660  68.7752760  72.3961840
 101.8212070  69.0932050  71.7342920 101.7521220  68.2901350  73.0157700
 107.6246840  84.6744390  69.8023680 107.1305120  85.0713260  69.0850810
 107.0160130  84.0493600  70.1960960  92.5024680  84.0452670  70.5201100
  91.9085000  83.9137370  71.2591140  92.4948520  83.2090810  70.0543200
 101.9479700  67.3384900  68.7231130 101.0739540  67.6720010  68.5204060
 101.8390450  66.8658080  69.5483000 102.8551680  69.5455770  70.1072850
 102.5265040  68.7307530  69.7274580 103.8033980  69.5025580  69.9838540
 105.3086290  85.3167810  67.0810420 104.8489260  86.0683620  66.7068440
 104.6798750  84.5974280  67.0225220  92.1336910  81.4111050  69.4709140
  91.4070970  80.7916340  69.4035090  92.1946060  81.8051660  68.6007220
  95.7382010  83.6256050  66.2558550  96.2547030  83.0143410  65.7306810
  96.3879390  84.1284830  66.7469560  98.4777510  84.5164540  67.0827530
  98.7655320  84.2618840  66.2060540  98.9900730  83.9641900  67.6733100
  99.6954520  68.2554740  67.6624040  98.9126310  68.7300240  67.9420800
  99.4017450  67.3509570  67.5537220 104.2475590  68.9577840  65.7073130
 104.6883680  68.9022940  64.8594730 103.9783180  69.8735850  65.7783310
 106.1114160  68.5893080  63.7181950 106.0502560  67.6454300  63.5712970
 106.8906190  68.6973170  64.2635410  90.4166910  84.7285440  62.6805900
  90.2488950  84.0956120  63.3787790  89.5501420  84.9344840  62.3300090
  91.0394930  68.5602220  60.1837760  91.7974290  68.6731100  59.6101790
  90.5772100  69.3971420  60.1381190  97.5808740  70.6741490  63.1740070
  96.7683250  70.2998380  62.8335950  98.0850380  69.9186570  63.4761260
 102.0833720  67.3383940  64.4123140 102.6863090  67.9104150  64.8871660
 101.3426710  67.9023380  64.1897040 105.2268320  67.7405500  59.6863420
 105.4218950  68.6388950  59.9530850 104.4398190  67.5092580  60.1796370
  92.0229610  83.4218670  60.1256040  91.4977230  83.8026700  59.4218000
  91.9474190  84.0469440  60.8465750  93.4120080  69.0866270  58.7239730
  93.9412840  68.2996070  58.5947680  94.0448400  69.7657460  58.9575260
  95.6057920  68.8241410  61.7785120  94.9760660  68.1228720  61.9455250
  95.0663060  69.5845540  61.5618280  98.5449870  85.4380640  74.4495730
  99.4717180  85.2024910  74.4931690  98.5300300  86.2652640  73.9681760
 106.7794930  84.9806210  61.4469980 106.9547120  84.2943950  60.8030900
 106.0816500  85.5053260  61.0546650  95.7313480  68.1025390  74.2137610
  95.4497750  68.6058990  73.4498430  96.1133180  67.3047140  73.8479740
  94.6222580  85.3701050  59.0005290  95.3541400  85.0860330  58.4529180
  94.8816250  85.1314330  59.8904670  93.7837370  81.4865780  59.0051620
  93.1546250  81.9550880  59.5537450  93.8985200  80.6415000  59.4397810
 102.3328940  67.5178970  74.7918080 102.2194390  67.8373580  75.6869600
 103.1498680  67.9191480  74.4955360 105.1127430  84.6650500  74.2736770
 105.9052750  84.1699730  74.0662730 105.4060580  85.3440640  74.8812380
 101.2387090  75.5371440  45.1552820 101.1581140  74.6226050  44.8844530
 100.8251510  76.0338510  44.4492530  99.3705130  77.3150460  47.0362090
  98.5947230  76.8350900  47.3260660 100.0218060  76.6356110  46.8618250
  93.3870960  77.6270270  47.9137850  92.5555840  77.3718980  48.3134360
  93.9951940  77.6981040  48.6495770 103.3912560  81.7210650  45.8161220
 102.9294090  80.9497890  46.1448390 104.2038110  81.7476720  46.3213670
  93.3672220  81.6610360  48.1095870  93.6700260  80.7708100  47.9306090
  94.1115810  82.2180580  47.8818120  91.7962910  72.5872160  41.6980240
  90.9079610  72.9288130  41.5960120  92.0804100  72.3872480  40.8061070
  89.7595920  75.1877810  47.5819940  90.3312030  74.4200010  47.5823580
  89.7597460  75.4866570  46.6726550  99.6175870  84.0068660  45.4365210
  98.9987310  84.4626160  44.8659650 100.4727650  84.1620120  45.0354910
  98.8114120  79.9907650  47.0432250  98.7422400  79.0497590  46.8821380
  99.5733980  80.0809060  47.6154820  91.0020790  70.5962170  49.3688870
  90.8223630  69.6987920  49.6491630  90.6000870  71.1434040  50.0435820
  99.8419290  72.7978030  47.2701180 100.2184110  71.9249910  47.1574850
  99.7438800  73.1336730  46.3791620  93.9724300  71.1703660  42.7318620
  94.0791050  72.0707390  43.0387380  93.0616660  71.1221630  42.4413270
 103.6243410  70.2928470  44.2029520 104.4453030  69.8025040  44.2455000
 103.6577490  70.8826130  44.9561360  91.6207460  73.0922670  47.9771210
  92.3017570  73.3561040  48.5958610  91.3055510  72.2523540  48.3109220
  95.8132030  74.1390030  47.0643800  96.3210250  74.6371000  47.7048820
  96.3445270  73.3625230  46.8883160 107.9142960  72.3095220  50.7673150
 107.2095130  72.6976930  50.2488260 108.1800880  73.0045510  51.3694080
 100.4839220  78.8907900  42.8297120  99.8656490  79.3557350  42.2659840
 100.9962470  79.5835380  43.2466630  95.3470980  78.4183770  49.5080720
  95.0140360  79.0452690  50.1501790  95.5237660  78.9445650  48.7282390
 103.8604890  72.2328850  46.9757060 103.1560460  72.5213740  47.5560170
 104.2217050  73.0428960  46.6156620  93.7783460  70.4898550  49.3377670
  94.1200270  71.3340600  49.0431540  92.8399270  70.6382290  49.4543010
  94.5590080  80.3864570  51.3229900  95.1764080  81.0615650  51.0414350
  93.6983200  80.7952550  51.2317400  89.8522420  79.5764430  40.2036750
  89.4750400  80.0651530  39.4721650  90.1095490  80.2489710  40.8343280
 105.4767670  81.8503980  49.2384540 104.7931190  82.5203090  49.2301210
 106.0161960  82.0484630  48.4729400 106.9291810  71.6783640  47.3666270
 105.9816720  71.7122620  47.4981700 107.2541800  72.4922590  47.7515630
  97.4611350  67.9780820  45.6622260  97.7686330  67.4227710  44.9457760
  96.5312050  68.1125280  45.4795250 103.0126410  83.6948110  47.9529720
 103.0253570  83.2910400  47.0851980 102.4601630  84.4695400  47.8491150
 104.3071830  80.4164330  43.0419890 104.1968160  79.4738660  43.1669310
 104.3040080  80.7779970  43.9282650 102.4111850  78.5977950  49.2812330
 102.8280640  78.3838060  48.4465790 103.1351670  78.8550740  49.8520950
  99.8492110  76.0429650  42.3982380  98.9221390  75.9767030  42.6270850
 100.0016930  76.9809780  42.2837620  99.8361190  72.3146650  39.3949540
  98.8964860  72.4760610  39.4802000 100.1544450  73.0332330  38.8485530
 106.3573950  76.9965170  49.3728570 105.5292580  77.0658260  48.8978700
 106.9524430  77.5819480  48.9044400 103.8789400  77.6049950  42.9017630
 103.2601820  77.2669500  42.2543930 103.8613850  76.9609710  43.6096820
 103.3215960  73.7834490  50.3183440 102.9087140  74.6088200  50.5723430
 102.5891910  73.1979530  50.1259800  95.4548750  76.5694390  45.1802110
  95.0505750  75.8571640  44.6848010  95.5411870  76.2247630  46.0690150
  95.9230450  80.2561950  47.3441320  95.6258740  79.6507420  46.6649100
  96.8730270  80.2939260  47.2330680  94.1677370  73.3437600  48.9601150
  94.7191960  73.4532940  48.1854400  94.6820880  73.7175200  49.6756380
 104.0116060  83.8293820  51.0064420 103.5346620  84.6366010  50.8137030
 103.3277850  83.1772150  51.1590630  95.0148880  79.9943640  53.9949120
  94.1177410  80.2183610  54.2422520  95.0401750  80.1178580  53.0460520
 102.0554100  76.8436760  39.9090380 102.4947380  76.0059190  39.7628200
 102.7682520  77.4766160  39.9954520  93.8420100  76.8656960  52.5706490
  93.7027870  77.7379760  52.9393890  92.9601460  76.5229770  52.4254430
 100.1649480  81.7832830  43.8771620 100.6045390  82.5257160  43.4627010
 100.1036370  82.0259400  44.8010580  95.6400450  82.8078660  54.7791640
  95.6115880  83.2121610  53.9120070  95.4765420  81.8789020  54.6163240
 105.6371240  68.0979570  38.2231420 105.3243900  68.1906400  39.1230490
 106.3983710  68.6760600  38.1728850  92.1553380  75.4639370  42.6808760
  92.0350980  76.1901460  42.0690030  91.8454270  74.6942280  42.2036670
 107.5915270  83.5905760  56.0755810 108.0674990  84.0688650  56.7544890
 108.2122430  83.5223250  55.3501310  89.7938750  78.6354510  48.4877400
  89.8719170  78.7703280  47.5433120  90.4080430  77.9270400  48.6805520
  91.0386380  80.3354700  44.8983580  90.6314460  80.4769290  44.0437180
  91.9299390  80.0514860  44.6954790 106.9948520  80.7818610  53.2355820
 107.1211580  80.5430490  52.3173000 107.0369900  79.9503150  53.7077900
 100.8565260  84.4846610  51.8050630 101.3709930  84.3954620  52.6073060
 100.0134340  84.8306310  52.0978540 102.8319660  84.7701950  41.2334630
 102.6720800  84.4804890  42.1316460 102.6666370  83.9942080  40.6979860
  95.3108040  84.5500480  43.0106250  95.1350520  83.6336020  42.7974050
  94.4563780  84.9087770  43.2504050 102.5345790  82.2789510  39.7932630
 101.8410950  82.2766800  39.1334910 103.2768650  81.8548830  39.3626800
 102.0995720  83.9052220  43.8681120 102.5552670  83.1241600  44.1819740
 102.4388240  84.6159040  44.4122300 106.8472530  72.8351070  54.2005560
 106.2316800  73.3430740  53.6721020 106.5268950  71.9349400  54.1431500
  89.8498270  79.6768680  51.0271860  90.0129310  79.2074040  50.2091230
  90.3150720  79.1692240  51.6920700  94.6217040  68.8074440  46.0632430
  94.1785190  69.5883980  45.7316950  95.1802030  69.1304330  46.7703370
  98.9086850  71.6742960  51.6667750  98.4466220  71.8825980  52.4787690
  98.5064960  70.8602310  51.3638420 103.9091360  72.8951910  52.7964410
 103.0584950  72.5957660  53.1173480 103.7493150  73.1393920  51.8848230
 101.0041070  74.3953660  54.8963200 101.3294480  73.5617410  54.5565430
 101.7921400  74.9182180  55.0441530  97.7375860  68.4285140  40.9438260
  97.1130040  68.4245010  41.6691570  97.6505980  67.5616100  40.5474230
  96.6592940  69.3521770  47.9222030  96.9565270  70.2584600  47.8414050
  97.2078500  68.8640550  47.3081600  94.4131260  73.9308010  43.7913680
  94.1872180  73.7145180  44.6960300  93.6323790  74.3636470  43.4459650
 101.6429020  73.9371380  42.3904330 101.0437910  74.6607180  42.2067950
 102.1908630  73.8748160  41.6080780  96.8530470  74.8293590  54.4573950
  96.7574070  73.8888320  54.3074350  97.6962450  75.0508660  54.0622020
 100.2493890  72.5734920  44.4207610 100.6423460  72.8907120  43.6076300
 100.6110740  71.6946800  44.5352130  91.9841010  71.2407260  52.6107730
  91.5904400  72.0882470  52.8180510  91.2959410  70.6033630  52.8016370
  98.5586060  71.3242230  55.6804470  97.8684380  71.1314430  56.3150560
  99.3018360  71.6076870  56.2128770  89.2858060  69.1635720  46.6437810
  88.9971110  69.7338580  47.3562790  90.0303820  68.6840170  47.0069040
  89.4728290  73.1055840  37.8540530  89.3902960  74.0486600  37.9955520
  89.1211350  72.9630750  36.9752880 100.8349030  75.1640670  48.5158390
 100.1030150  75.6727480  48.8648490 100.4373370  74.3470650  48.2147170
  97.2726420  71.8394870  46.9210880  97.2762480  71.3984820  46.0715420
  98.1677540  72.1612200  47.0282700  93.1228800  71.7221360  45.8805090
  92.7828850  72.1996590  46.6372140  92.3606120  71.2686480  45.5206190
  97.3346570  72.8406950  39.9117640  97.4559390  72.7993430  40.8603460
  96.9495080  73.7031100  39.7564370 101.2974940  70.6174350  47.9281330
 101.3147680  71.0683000  48.7723180 101.0490520  69.7179990  48.1414770
  96.3468070  75.1508090  39.3100940  95.7784970  74.7026340  38.6836850
  97.0557070  75.5100870  38.7766090 104.7245690  68.0306530  53.7667710
 105.0491460  67.2996190  54.2925690 104.7602200  67.7120170  52.8648700
  91.4237250  79.0520110  53.1867670  91.0392040  78.4113780  53.7850630
  91.7349440  79.7556230  53.7562400  97.5734390  75.8996650  48.6676290
  97.9404520  75.4255220  49.4137630  97.3839450  76.7738220  49.0084630
  90.4374880  70.6440340  44.7969760  90.1521800  70.2796010  45.6348380
  90.3753740  69.9120800  44.1832900  95.3633760  74.9405290  50.9860500
  95.0590830  75.8197270  51.2110860  96.3180220  75.0005080  51.0217940
  93.8915550  79.1466280  41.5827350  93.1177810  78.6063900  41.4226070
  94.6210180  78.6272890  41.2445110 104.6503530  78.1431640  47.3753740
 105.3702650  78.6386930  46.9849850 104.4485350  77.4649530  46.7307610
 100.1113470  69.5369600  41.5183130  99.2978080  69.0382770  41.4428440
  99.9175420  70.3767850  41.1019480 100.0322330  78.2140700  53.2622740
  99.9659640  77.2936370  53.0080330  99.4027470  78.3116140  53.9767380
 102.8261860  73.9089250  39.8145290 103.7141480  74.2206480  39.6396630
 102.7966950  73.0361500  39.4225870  93.9352950  78.8146660  45.2206160
  94.4531620  78.0114920  45.1663050  93.4836970  78.7525800  46.0622990
  98.8222450  80.0812940  40.4933460  99.1638150  80.8255170  39.9976780
  97.9935160  80.3944060  40.8558290  91.4197490  75.7808030  52.1331860
  91.0612430  76.4461880  52.7205200  91.1252050  74.9491580  52.5044480
  94.6210610  76.2392270  55.0171410  94.3210750  76.3849450  54.1199230
  95.3921850  75.6797560  54.9244800  99.9639060  81.0361270  53.0126540
  99.9783600  80.1042230  52.7945450  99.2564160  81.1221030  53.6516310
 105.0976130  75.2201090  39.2825150 105.0139850  75.6515310  38.4321590
 105.8170320  75.6799440  39.7151970 106.1750270  77.6768610  52.3595120
 105.4498460  78.2697390  52.1624510 106.7025730  77.6692150  51.5608490
 106.1263380  82.0743350  42.0107280 105.4839540  81.4198970  42.2851000
 105.7394040  82.4798440  41.2347950 101.7049860  79.4028780  45.8578970
 102.0573680  78.8056910  45.1980340 100.8212190  79.0773010  46.0287220
  97.7913140  80.1626470  43.2649380  98.4784270  80.7095680  43.6456970
  97.0045560  80.7067200  43.2998990  89.9305540  75.7799290  38.7566460
  90.8000390  76.0624090  39.0402380  89.4395860  76.5935160  38.6415270
  97.0940350  77.1672500  42.8774740  97.5503130  77.9777750  43.1034930
  96.7428560  76.8495640  43.7093230  99.3972960  82.6778840  50.1067040
 100.0415180  82.8838220  50.7840460  99.7602400  81.9167240  49.6537890
  92.9952130  67.5110150  43.3497260  92.8666760  67.5028050  44.2982180
  92.1714150  67.8493240  42.9988270 100.6705040  80.6811190  48.8244490
 101.3127270  79.9804350  48.9376660 101.1954390  81.4609630  48.6441380
 104.5160760  80.9659810  38.5483630 104.2898340  80.2490250  39.1408270
 104.1256960  80.7172250  37.7105380 102.4442660  81.4806090  52.0280550
 102.7798900  82.0672780  52.7058470 101.5243000  81.3498800  52.2578340
  90.2976790  84.9926670  39.3228090  90.6574430  85.5916010  38.6685360
  90.1569130  85.5386560  40.0963120  89.9946060  69.2701270  52.8103960
  89.2804580  69.4698190  53.4156570  90.4141100  68.4940840  53.1818760
 104.0977010  78.8831750  40.2097790 103.8098710  79.3444440  40.9975670
 104.8929180  78.4229520  40.4782010  90.2818650  83.2581530  53.7970490
  90.3909770  82.3176270  53.6565880  89.6299210  83.5236280  53.1484220
  98.2731240  81.5297420  55.1968610  97.9528110  80.8106660  55.7414300
  97.5989600  82.2052490  55.2704670  96.3145410  82.3757870  40.1401760
  96.3055510  83.1087560  39.5246270  95.3943770  82.1289450  40.2328720
  91.9152050  77.5972760  40.8848520  91.3080000  78.3371660  40.8943820
  92.3901400  77.6872120  40.0586720 101.4884840  71.7623580  50.5605410
 101.8565660  70.9418790  50.8884980 100.6283040  71.8225470  50.9761060
 104.8546870  70.7180520  41.3692970 104.2260030  70.8226190  40.6551200
 104.3598790  70.9377300  42.1586850  99.3005010  82.4386110  38.8026950
  99.4016990  82.2350100  37.8728930  98.4006750  82.1844390  39.0074730
  96.8230900  72.9966470  42.7850850  96.1147050  73.4652810  43.2264460
  97.1075380  72.3388480  43.4196040  98.4486830  74.4163170  50.7843380
  98.9472080  74.8908990  51.4495230  98.5909780  73.4926690  50.9913410
 100.8546330  69.7217130  44.2246640 100.7314110  69.7403260  43.2756150
 101.8030890  69.7696070  44.3445040  97.9423120  84.9572430  43.4974620
  98.1964620  84.9193820  42.5753990  96.9935600  84.8305760  43.4902870
  95.0265920  71.3051550  40.1601560  95.8756450  71.7421700  40.0941750
  94.6597190  71.6171810  40.9873620 105.6553690  70.6331130  51.6271770
 105.1527290  71.3736530  51.9665580 106.4710350  71.0215130  51.3108560
 103.9475700  75.8764310  45.0733130 103.0065840  75.8914540  45.2480820
 104.2619770  75.0900270  45.5193430  93.9257340  77.5583910  38.6337090
  94.6920610  77.4465270  39.1962520  94.0032030  76.8621880  37.9813860
  92.6204100  74.9908980  39.3169980  92.7007690  74.0436490  39.4287380
  93.5123850  75.3215860  39.4230640 105.9501280  83.0473160  46.7487390
 106.0748700  83.8704330  47.2211200 106.8166840  82.8363890  46.4011540
  93.4218810  85.1404370  46.4204520  94.1581290  84.5919830  46.6913090
  93.8059730  86.0060380  46.2810510  90.3064290  81.2077940  42.2946030
  89.3804070  81.4499080  42.2851440  90.7720720  82.0352200  42.1730780
  92.4277090  84.3250440  55.6090100  93.2289820  84.6462490  56.0225500
  91.9128910  83.9646020  56.3310010  96.5321120  84.3134680  38.2430090
  97.3249730  84.6023510  37.7911880  96.0125470  83.8826850  37.5642570
 101.2641720  80.4330310  55.5565510 100.6579880  80.4561910  54.8161260
 100.9595830  79.7013350  56.0932760 102.6942090  84.1610600  54.1674920
 103.6463840  84.0768620  54.1175160 102.5470310  84.8252310  54.8408710
 105.5851290  83.5404810  39.6666830 105.2992800  83.1269950  38.8521010
 105.3870840  84.4692520  39.5467350  90.1474900  76.8123900  54.5526150
  90.6513920  76.2331180  55.1242380  89.4082320  77.0964130  55.0902520
  97.0498520  79.5338090  38.1072440  96.9449160  78.9190440  38.8333820
  96.8822740  79.0103980  37.3235450  97.2012840  78.2194890  54.0861670
  96.4358510  78.7879890  54.0016340  97.3828800  77.9271100  53.1929900
 100.2901250  78.5958120  38.7114430  99.7411350  79.0427420  39.3557170
 100.9120510  78.0907370  39.2352100 104.3436190  79.9500220  54.6436690
 105.0845660  80.2875980  54.1404150 103.5808870  80.1192280  54.0906460
  92.1797980  74.9553490  55.4476220  92.2203320  74.6567360  56.3561450
  93.0343480  75.3561100  55.2883740  95.9576370  77.5549040  40.6079730
  96.3792790  77.3888910  41.4511120  96.0827210  76.7449270  40.1134870
  94.1203790  73.5345590  53.4150710  93.5900250  73.0436540  52.7874050
  94.7891860  73.9629790  52.8808640  98.4704010  76.5786650  37.8556830
  98.9909670  75.8635670  37.4897980  99.1172410  77.2172520  38.1557340
 103.0181850  78.0015050  53.1791900 103.4322870  78.1560130  54.0282320
 102.0832850  78.1270270  53.3417680 103.4904020  75.3411210  55.1831050
 104.0724790  74.5863530  55.0951530 103.6665790  75.8718650  54.4062530
  94.6076090  70.5007960  53.4948000  94.5132960  69.8828710  52.7698870
  94.0273480  71.2274250  53.2677910  97.7797080  77.9535530  51.1487830
  98.1985190  78.7968260  50.9764070  96.8605710  78.0907570  50.9194610
 100.1160980  75.6851710  52.5325670 100.2357190  75.0892850  53.2720510
 100.9754980  75.7221400  52.1126970 102.4548880  76.2388900  51.1088180
 101.9284100  76.7631520  50.5053320 102.7980220  76.8716290  51.7397910
  94.8535270  73.6282270  37.5537890  94.6524330  72.7649630  37.9151230
  94.6827320  73.5415630  36.6159490  95.6304500  84.2588540  52.2645560
  95.0925590  84.9834600  51.9454260  95.8838460  83.7818880  51.4742900
  96.8829750  72.2273060  53.7901490  97.4729440  71.9188910  54.4779310
  96.0649990  71.7552810  53.9461390 101.7023180  71.8438870  54.0234510
 101.0138700  71.1820410  53.9584500 102.4229200  71.3977140  54.4682970
 102.3323580  68.4390500  40.0824770 102.6125870  67.5958400  40.4384190
 101.5589310  68.6713610  40.5963520  93.6518070  70.7282890  37.5415770
  93.9543970  70.7350320  36.6334920  94.3912660  70.3780750  38.0383430
  98.4866710  85.4939750  52.5232210  98.4125410  86.3974890  52.8304580
  97.5845550  85.1751650  52.4954280  96.8703000  69.6717510  38.5271970
  96.5225000  68.9941500  37.9474420  97.0715770  69.2107020  39.3415360
  99.0352040  84.6598260  40.1458570  99.9302830  84.9983230  40.1677330
  99.0669670  83.9377670  39.5182850  92.6748200  80.0325310  38.3745570
  93.1123070  80.5754980  39.0303150  93.1595930  79.2072260  38.3841910
  89.8894000  82.8214340  45.8265830  90.2197010  81.9535400  45.5944470
  90.3185000  83.0272860  46.6570790  94.4855920  81.1523350  43.4867800
  94.1851460  81.0288320  44.3871710  94.3793410  80.2931940  43.0783530
  90.3784210  83.6884930  48.5647460  89.9415200  83.8685730  49.3971610
  90.9461890  84.4459550  48.4229180 106.0146390  83.1901930  52.8524770
 105.4148380  83.2494490  52.1088690 106.1440290  82.2506910  52.9821620
 107.2547840  80.9319750  38.1894480 106.4240800  80.9996400  38.6601710
 107.4319670  81.8223870  37.8861340 106.7104300  77.6767230  40.6928680
 107.4723210  78.2463880  40.7988370 106.7258670  77.1094430  41.4636990
  90.2108640  76.2005160  44.9236340  89.5557480  75.9316800  44.2796040
  91.0486590  76.0909640  44.4738320 107.7164270  78.5317330  45.5370610
 108.0873100  77.7484650  45.1306580 108.3566200  79.2206430  45.3587910
 104.6998030  79.9153910  50.9500930 103.8857870  80.3451070  51.2126720
 105.1072230  80.5272320  50.3369980 106.7623470  77.9701600  37.8501200
 107.0372310  78.8780480  37.7220420 106.5734210  77.9064130  38.7863190
 103.1599080  70.9946450  39.1454830 103.5783960  70.8077430  38.3051490
 102.8535140  70.1425500  39.4557760 106.6588810  75.9070590  42.8430630
 106.2832410  75.1398520  42.4111920 105.9291930  76.2893290  43.3305560
  91.2484570  76.5857730  49.4639680  91.6157610  76.4985130  50.3435700
  90.6795390  75.8224280  49.3646540 106.0488430  75.0542110  52.4770150
 105.8174520  74.8254860  51.5768100 106.3092980  75.9741660  52.4315040
  90.8000570  73.4966820  53.3698100  89.9056620  73.4633580  53.7091810
  91.3398120  73.6953610  54.1349350 104.4876500  70.2798540  55.2549850
 105.3646680  70.2881940  55.6383850 104.4997340  69.5429380  54.6442200
  89.4246720  73.4104090  40.8661670  88.5210800  73.6734290  40.6913330
  89.9087340  73.6815260  40.0861630 105.9339770  74.1328080  46.1437870
 106.4577250  73.6390730  45.5128040 106.5199190  74.2678440  46.8885440
 106.1129490  74.2167950  49.6657420 105.1632200  74.1831490  49.7802410
 106.2942500  75.1268060  49.4307190  91.9673930  72.4669630  38.7756050
  92.6765630  72.0452850  38.2903330  91.2513870  72.5344860  38.1439400
  91.6148090  68.5208960  37.8158700  92.3376220  69.0617900  38.1339920
  91.8872610  68.2472380  36.9400240 105.4239740  73.3901430  42.0830280
 105.9198860  73.1572300  42.8679160 105.2255810  72.5513270  41.6667920
  91.3040280  67.7715150  47.7181320  91.9516470  67.2212530  47.2776480
  91.7242120  68.0258300  48.5397130 106.8526900  72.0262380  44.6167960
 106.7426180  71.8718420  45.5550230 107.6134490  71.4983320  44.3743370
 105.1992620  67.9656510  51.0750960 105.8364840  68.5790650  51.4410150
 105.3467510  68.0017170  50.1300190 107.7417170  69.8570300  37.8574100
 108.6666480  69.7251480  37.6492390 107.7192960  69.9363120  38.8110550
 107.8155660  70.6280960  40.4830810 107.0207160  70.5626080  41.0123720
 108.0198940  71.5631600  40.4716160 104.7574080  84.6672510  44.4769200
 105.3533150  84.3457080  43.8003620 105.0152230  84.1944330  45.2682470
  91.0572280  67.9270820  50.4606640  90.7087100  68.3834640  51.2264820
  90.7259980  67.0327950  50.5429070  92.6636650  81.0990420  54.6259830
  92.6206280  80.7283330  55.5074290  92.7947660  82.0367990  54.7661650
  96.3642680  82.6550010  50.2269550  96.1234040  82.9224570  49.3400070
  97.3045320  82.8255740  50.2820410 107.6246840  84.6744390  51.0280190
 107.1305120  85.0713260  50.3107320 107.0160130  84.0493600  51.4217470
  91.7292920  67.4547020  53.7357410  92.2775910  67.2735070  52.9723520
  91.7948230  66.6641130  54.2713720  92.5024680  84.0452670  51.7457610
  91.9085000  83.9137370  52.4847650  92.4948520  83.2090810  51.2799710
 101.9479700  67.3384900  49.9487640 101.0739540  67.6720010  49.7460570
 101.8390450  66.8658080  50.7739510 102.8551680  69.5455770  51.3329360
 102.5265040  68.7307530  50.9531090 103.8033980  69.5025580  51.2095050
 105.3086290  85.3167810  48.3066930 104.8489260  86.0683620  47.9324950
 104.6798750  84.5974280  48.2481730  92.1336910  81.4111050  50.6965650
  91.4070970  80.7916340  50.6291600  92.1946060  81.8051660  49.8263730
  95.7382010  83.6256050  47.4815060  96.2547030  83.0143410  46.9563320
  96.3879390  84.1284830  47.9726070  98.4777510  84.5164540  48.3084040
  98.7655320  84.2618840  47.4317050  98.9900730  83.9641900  48.8989610
  99.6954520  68.2554740  48.8880550  98.9126310  68.7300240  49.1677310
  99.4017450  67.3509570  48.7793730 104.2475590  68.9577840  46.9329640
 104.6883680  68.9022940  46.0851240 103.9783180  69.8735850  47.0039820
 106.1114160  68.5893080  44.9438460 106.0502560  67.6454300  44.7969480
 106.8906190  68.6973170  45.4891920  90.4166910  84.7285440  43.9062410
  90.2488950  84.0956120  44.6044300  89.5501420  84.9344840  43.5556600
  91.0394930  68.5602220  41.4094270  91.7974290  68.6731100  40.8358300
  90.5772100  69.3971420  41.3637700  97.5808740  70.6741490  44.3996580
  96.7683250  70.2998380  44.0592460  98.0850380  69.9186570  44.7017770
 102.0833720  67.3383940  45.6379650 102.6863090  67.9104150  46.1128170
 101.3426710  67.9023380  45.4153550 105.2268320  67.7405500  40.9119930
 105.4218950  68.6388950  41.1787360 104.4398190  67.5092580  41.4052880
  92.0229610  83.4218670  41.3512550  91.4977230  83.8026700  40.6474510
  91.9474190  84.0469440  42.0722260  93.4120080  69.0866270  39.9496240
  93.9412840  68.2996070  39.8204190  94.0448400  69.7657460  40.1831770
  95.6057920  68.8241410  43.0041630  94.9760660  68.1228720  43.1711760
  95.0663060  69.5845540  42.7874790  98.5449870  85.4380640  55.6752240
  99.4717180  85.2024910  55.7188200  98.5300300  86.2652640  55.1938270
 106.7794930  84.9806210  42.6726490 106.9547120  84.2943950  42.0287410
 106.0816500  85.5053260  42.2803160  94.6222580  85.3701050  40.2261800
  95.3541400  85.0860330  39.6785690  94.8816250  85.1314330  41.1161180
  93.7837370  81.4865780  40.2308130  93.1546250  81.9550880  40.7793960
  93.8985200  80.6415000  40.6654320 105.1127430  84.6650500  55.4993280
 105.9052750  84.1699730  55.2919240 105.4060580  85.3440640  56.1068890
 101.2387090  75.5371440  26.3809330 101.1581140  74.6226050  26.1101040
 100.8251510  76.0338510  25.6749040  99.3705130  77.3150460  28.2618600
  98.5947230  76.8350900  28.5517170 100.0218060  76.6356110  28.0874760
  93.3870960  77.6270270  29.1394360  92.5555840  77.3718980  29.5390870
  93.9951940  77.6981040  29.8752280 103.3912560  81.7210650  27.0417730
 102.9294090  80.9497890  27.3704900 104.2038110  81.7476720  27.5470180
  93.3672220  81.6610360  29.3352380  93.6700260  80.7708100  29.1562600
  94.1115810  82.2180580  29.1074630  91.7962910  72.5872160  22.9236750
  90.9079610  72.9288130  22.8216630  92.0804100  72.3872480  22.0317580
  89.7595920  75.1877810  28.8076450  90.3312030  74.4200010  28.8080090
  89.7597460  75.4866570  27.8983060  99.6175870  84.0068660  26.6621720
  98.9987310  84.4626160  26.0916160 100.4727650  84.1620120  26.2611420
  98.8114120  79.9907650  28.2688760  98.7422400  79.0497590  28.1077890
  99.5733980  80.0809060  28.8411330  91.0020790  70.5962170  30.5945380
  90.8223630  69.6987920  30.8748140  90.6000870  71.1434040  31.2692330
  99.8419290  72.7978030  28.4957690 100.2184110  71.9249910  28.3831360
  99.7438800  73.1336730  27.6048130  93.9724300  71.1703660  23.9575130
  94.0791050  72.0707390  24.2643890  93.0616660  71.1221630  23.6669780
 103.6243410  70.2928470  25.4286030 104.4453030  69.8025040  25.4711510
 103.6577490  70.8826130  26.1817870  91.6207460  73.0922670  29.2027720
  92.3017570  73.3561040  29.8215120  91.3055510  72.2523540  29.5365730
  95.8132030  74.1390030  28.2900310  96.3210250  74.6371000  28.9305330
  96.3445270  73.3625230  28.1139670 107.9142960  72.3095220  31.9929660
 107.2095130  72.6976930  31.4744770 108.1800880  73.0045510  32.5950590
  94.0968130  68.7788590  32.5563730  94.0986570  69.2960980  31.7509630
  93.2672440  68.3018770  32.5333660 100.4839220  78.8907900  24.0553630
  99.8656490  79.3557350  23.4916350 100.9962470  79.5835380  24.4723140
  95.3470980  78.4183770  30.7337230  95.0140360  79.0452690  31.3758300
  95.5237660  78.9445650  29.9538900 103.8604890  72.2328850  28.2013570
 103.1560460  72.5213740  28.7816680 104.2217050  73.0428960  27.8413130
  93.7783460  70.4898550  30.5634180  94.1200270  71.3340600  30.2688050
  92.8399270  70.6382290  30.6799520  94.5590080  80.3864570  32.5486410
  95.1764080  81.0615650  32.2670860  93.6983200  80.7952550  32.4573910
  89.8522420  79.5764430  21.4293260  89.4750400  80.0651530  20.6978160
  90.1095490  80.2489710  22.0599790 105.4767670  81.8503980  30.4641050
 104.7931190  82.5203090  30.4557720 106.0161960  82.0484630  29.6985910
 106.9291810  71.6783640  28.5922780 105.9816720  71.7122620  28.7238210
 107.2541800  72.4922590  28.9772140  97.4611350  67.9780820  26.8878770
  97.7686330  67.4227710  26.1714270  96.5312050  68.1125280  26.7051760
 103.0126410  83.6948110  29.1786230 103.0253570  83.2910400  28.3108490
 102.4601630  84.4695400  29.0747660 104.3071830  80.4164330  24.2676400
 104.1968160  79.4738660  24.3925820 104.3040080  80.7779970  25.1539160
 102.4111850  78.5977950  30.5068840 102.8280640  78.3838060  29.6722300
 103.1351670  78.8550740  31.0777460  99.8492110  76.0429650  23.6238890
  98.9221390  75.9767030  23.8527360 100.0016930  76.9809780  23.5094130
  99.8361190  72.3146650  20.6206050  98.8964860  72.4760610  20.7058510
 100.1544450  73.0332330  20.0742040 106.3573950  76.9965170  30.5985080
 105.5292580  77.0658260  30.1235210 106.9524430  77.5819480  30.1300910
 103.8789400  77.6049950  24.1274140 103.2601820  77.2669500  23.4800440
 103.8613850  76.9609710  24.8353330 103.3215960  73.7834490  31.5439950
 102.9087140  74.6088200  31.7979940 102.5891910  73.1979530  31.3516310
  95.4548750  76.5694390  26.4058620  95.0505750  75.8571640  25.9104520
  95.5411870  76.2247630  27.2946660  95.9230450  80.2561950  28.5697830
  95.6258740  79.6507420  27.8905610  96.8730270  80.2939260  28.4587190
  94.1677370  73.3437600  30.1857660  94.7191960  73.4532940  29.4110910
  94.6820880  73.7175200  30.9012890 104.0116060  83.8293820  32.2320930
 103.5346620  84.6366010  32.0393540 103.3277850  83.1772150  32.3847140
  95.0148880  79.9943640  35.2205630  94.1177410  80.2183610  35.4679030
  95.0401750  80.1178580  34.2717030 102.0554100  76.8436760  21.1346890
 102.4947380  76.0059190  20.9884710 102.7682520  77.4766160  21.2211030
  93.8420100  76.8656960  33.7963000  93.7027870  77.7379760  34.1650400
  92.9601460  76.5229770  33.6510940 100.1649480  81.7832830  25.1028130
 100.6045390  82.5257160  24.6883520 100.1036370  82.0259400  26.0267090
  95.6400450  82.8078660  36.0048150  95.6115880  83.2121610  35.1376580
  95.4765420  81.8789020  35.8419750 105.6371240  68.0979570  19.4487930
 105.3243900  68.1906400  20.3487000 106.3983710  68.6760600  19.3985360
  92.1553380  75.4639370  23.9065270  92.0350980  76.1901460  23.2946540
  91.8454270  74.6942280  23.4293180 107.5915270  83.5905760  37.3012320
 108.0674990  84.0688650  37.9801400 108.2122430  83.5223250  36.5757820
  89.7938750  78.6354510  29.7133910  89.8719170  78.7703280  28.7689630
  90.4080430  77.9270400  29.9062030  91.0386380  80.3354700  26.1240090
  90.6314460  80.4769290  25.2693690  91.9299390  80.0514860  25.9211300
 106.9948520  80.7818610  34.4612330 107.1211580  80.5430490  33.5429510
 107.0369900  79.9503150  34.9334410 100.8565260  84.4846610  33.0307140
 101.3709930  84.3954620  33.8329570 100.0134340  84.8306310  33.3235050
 102.8319660  84.7701950  22.4591140 102.6720800  84.4804890  23.3572970
 102.6666370  83.9942080  21.9236370  95.3108040  84.5500480  24.2362760
  95.1350520  83.6336020  24.0230560  94.4563780  84.9087770  24.4760560
 102.5345790  82.2789510  21.0189140 101.8410950  82.2766800  20.3591420
 103.2768650  81.8548830  20.5883310 102.0995720  83.9052220  25.0937630
 102.5552670  83.1241600  25.4076250 102.4388240  84.6159040  25.6378810
 106.8472530  72.8351070  35.4262070 106.2316800  73.3430740  34.8977530
 106.5268950  71.9349400  35.3688010  89.8498270  79.6768680  32.2528370
  90.0129310  79.2074040  31.4347740  90.3150720  79.1692240  32.9177210
  94.6217040  68.8074440  27.2888940  94.1785190  69.5883980  26.9573460
  95.1802030  69.1304330  27.9959880  98.9086850  71.6742960  32.8924260
  98.4466220  71.8825980  33.7044200  98.5064960  70.8602310  32.5894930
 103.9091360  72.8951910  34.0220920 103.0584950  72.5957660  34.3429990
 103.7493150  73.1393920  33.1104740 101.0041070  74.3953660  36.1219710
 101.3294480  73.5617410  35.7821940 101.7921400  74.9182180  36.2698040
  97.7375860  68.4285140  22.1694770  97.1130040  68.4245010  22.8948080
  97.6505980  67.5616100  21.7730740  96.6592940  69.3521770  29.1478540
  96.9565270  70.2584600  29.0670560  97.2078500  68.8640550  28.5338110
  94.4131260  73.9308010  25.0170190  94.1872180  73.7145180  25.9216810
  93.6323790  74.3636470  24.6716160 101.6429020  73.9371380  23.6160840
 101.0437910  74.6607180  23.4324460 102.1908630  73.8748160  22.8337290
  96.8530470  74.8293590  35.6830460  96.7574070  73.8888320  35.5330860
  97.6962450  75.0508660  35.2878530 100.2493890  72.5734920  25.6464120
 100.6423460  72.8907120  24.8332810 100.6110740  71.6946800  25.7608640
  91.9841010  71.2407260  33.8364240  91.5904400  72.0882470  34.0437020
  91.2959410  70.6033630  34.0272880  98.5586060  71.3242230  36.9060980
  97.8684380  71.1314430  37.5407070  99.3018360  71.6076870  37.4385280
  89.2858060  69.1635720  27.8694320  88.9971110  69.7338580  28.5819300
  90.0303820  68.6840170  28.2325550  89.4728290  73.1055840  19.0797040
  89.3902960  74.0486600  19.2212030  89.1211350  72.9630750  18.2009390
 100.8349030  75.1640670  29.7414900 100.1030150  75.6727480  30.0905000
 100.4373370  74.3470650  29.4403680  97.2726420  71.8394870  28.1467390
  97.2762480  71.3984820  27.2971930  98.1677540  72.1612200  28.2539210
  93.1228800  71.7221360  27.1061600  92.7828850  72.1996590  27.8628650
  92.3606120  71.2686480  26.7462700  97.3346570  72.8406950  21.1374150
  97.4559390  72.7993430  22.0859970  96.9495080  73.7031100  20.9820880
 101.2974940  70.6174350  29.1537840 101.3147680  71.0683000  29.9979690
 101.0490520  69.7179990  29.3671280  96.3468070  75.1508090  20.5357450
  95.7784970  74.7026340  19.9093360  97.0557070  75.5100870  20.0022600
 104.7245690  68.0306530  34.9924220 105.0491460  67.2996190  35.5182200
 104.7602200  67.7120170  34.0905210  91.4237250  79.0520110  34.4124180
  91.0392040  78.4113780  35.0107140  91.7349440  79.7556230  34.9818910
  97.5734390  75.8996650  29.8932800  97.9404520  75.4255220  30.6394140
  97.3839450  76.7738220  30.2341140  90.4374880  70.6440340  26.0226270
  90.1521800  70.2796010  26.8604890  90.3753740  69.9120800  25.4089410
  95.3633760  74.9405290  32.2117010  95.0590830  75.8197270  32.4367370
  96.3180220  75.0005080  32.2474450  93.8915550  79.1466280  22.8083860
  93.1177810  78.6063900  22.6482580  94.6210180  78.6272890  22.4701620
 104.6503530  78.1431640  28.6010250 105.3702650  78.6386930  28.2106360
 104.4485350  77.4649530  27.9564120 100.1113470  69.5369600  22.7439640
  99.2978080  69.0382770  22.6684950  99.9175420  70.3767850  22.3275990
 100.0322330  78.2140700  34.4879250  99.9659640  77.2936370  34.2336840
  99.4027470  78.3116140  35.2023890 102.8261860  73.9089250  21.0401800
 103.7141480  74.2206480  20.8653140 102.7966950  73.0361500  20.6482380
  93.9352950  78.8146660  26.4462670  94.4531620  78.0114920  26.3919560
  93.4836970  78.7525800  27.2879500  98.8222450  80.0812940  21.7189970
  99.1638150  80.8255170  21.2233290  97.9935160  80.3944060  22.0814800
  91.4197490  75.7808030  33.3588370  91.0612430  76.4461880  33.9461710
  91.1252050  74.9491580  33.7300990  94.6210610  76.2392270  36.2427920
  94.3210750  76.3849450  35.3455740  95.3921850  75.6797560  36.1501310
  99.9639060  81.0361270  34.2383050  99.9783600  80.1042230  34.0201960
  99.2564160  81.1221030  34.8772820 105.0976130  75.2201090  20.5081660
 105.0139850  75.6515310  19.6578100 105.8170320  75.6799440  20.9408480
 106.1750270  77.6768610  33.5851630 105.4498460  78.2697390  33.3881020
 106.7025730  77.6692150  32.7865000 106.1263380  82.0743350  23.2363790
 105.4839540  81.4198970  23.5107510 105.7394040  82.4798440  22.4604460
 101.7049860  79.4028780  27.0835480 102.0573680  78.8056910  26.4236850
 100.8212190  79.0773010  27.2543730  97.7913140  80.1626470  24.4905890
  98.4784270  80.7095680  24.8713480  97.0045560  80.7067200  24.5255500
  89.9305540  75.7799290  19.9822970  90.8000390  76.0624090  20.2658890
  89.4395860  76.5935160  19.8671780  97.0940350  77.1672500  24.1031250
  97.5503130  77.9777750  24.3291440  96.7428560  76.8495640  24.9349740
  99.3972960  82.6778840  31.3323550 100.0415180  82.8838220  32.0096970
  99.7602400  81.9167240  30.8794400  92.9952130  67.5110150  24.5753770
  92.8666760  67.5028050  25.5238690  92.1714150  67.8493240  24.2244780
 100.6705040  80.6811190  30.0501000 101.3127270  79.9804350  30.1633170
 101.1954390  81.4609630  29.8697890 104.5160760  80.9659810  19.7740140
 104.2898340  80.2490250  20.3664780 104.1256960  80.7172250  18.9361890
 102.4442660  81.4806090  33.2537060 102.7798900  82.0672780  33.9314980
 101.5243000  81.3498800  33.4834850  90.2976790  84.9926670  20.5484600
  90.6574430  85.5916010  19.8941870  90.1569130  85.5386560  21.3219630
  89.9946060  69.2701270  34.0360470  89.2804580  69.4698190  34.6413080
  90.4141100  68.4940840  34.4075270 104.0977010  78.8831750  21.4354300
 103.8098710  79.3444440  22.2232180 104.8929180  78.4229520  21.7038520
  90.2818650  83.2581530  35.0227000  90.3909770  82.3176270  34.8822390
  89.6299210  83.5236280  34.3740730  98.2731240  81.5297420  36.4225120
  97.9528110  80.8106660  36.9670810  97.5989600  82.2052490  36.4961180
  96.3145410  82.3757870  21.3658270  96.3055510  83.1087560  20.7502780
  95.3943770  82.1289450  21.4585230  91.9152050  77.5972760  22.1105030
  91.3080000  78.3371660  22.1200330  92.3901400  77.6872120  21.2843230
 101.4884840  71.7623580  31.7861920 101.8565660  70.9418790  32.1141490
 100.6283040  71.8225470  32.2017570 104.8546870  70.7180520  22.5949480
 104.2260030  70.8226190  21.8807710 104.3598790  70.9377300  23.3843360
  99.3005010  82.4386110  20.0283460  99.4016990  82.2350100  19.0985440
  98.4006750  82.1844390  20.2331240  96.8230900  72.9966470  24.0107360
  96.1147050  73.4652810  24.4520970  97.1075380  72.3388480  24.6452550
  98.4486830  74.4163170  32.0099890  98.9472080  74.8908990  32.6751740
  98.5909780  73.4926690  32.2169920 100.8546330  69.7217130  25.4503150
 100.7314110  69.7403260  24.5012660 101.8030890  69.7696070  25.5701550
  97.9423120  84.9572430  24.7231130  98.1964620  84.9193820  23.8010500
  96.9935600  84.8305760  24.7159380  95.0265920  71.3051550  21.3858070
  95.8756450  71.7421700  21.3198260  94.6597190  71.6171810  22.2130130
 105.6553690  70.6331130  32.8528280 105.1527290  71.3736530  33.1922090
 106.4710350  71.0215130  32.5365070 103.9475700  75.8764310  26.2989640
 103.0065840  75.8914540  26.4737330 104.2619770  75.0900270  26.7449940
  93.9257340  77.5583910  19.8593600  94.6920610  77.4465270  20.4219030
  94.0032030  76.8621880  19.2070370  92.6204100  74.9908980  20.5426490
  92.7007690  74.0436490  20.6543890  93.5123850  75.3215860  20.6487150
 105.9501280  83.0473160  27.9743900 106.0748700  83.8704330  28.4467710
 106.8166840  82.8363890  27.6268050  93.4218810  85.1404370  27.6461030
  94.1581290  84.5919830  27.9169600  93.8059730  86.0060380  27.5067020
  90.3064290  81.2077940  23.5202540  89.3804070  81.4499080  23.5107950
  90.7720720  82.0352200  23.3987290  92.4277090  84.3250440  36.8346610
  93.2289820  84.6462490  37.2482010  91.9128910  83.9646020  37.5566520
  96.5321120  84.3134680  19.4686600  97.3249730  84.6023510  19.0168390
  96.0125470  83.8826850  18.7899080 101.2641720  80.4330310  36.7822020
 100.6579880  80.4561910  36.0417770 100.9595830  79.7013350  37.3189270
 102.6942090  84.1610600  35.3931430 103.6463840  84.0768620  35.3431670
 102.5470310  84.8252310  36.0665220 105.5851290  83.5404810  20.8923340
 105.2992800  83.1269950  20.0777520 105.3870840  84.4692520  20.7723860
  90.1474900  76.8123900  35.7782660  90.6513920  76.2331180  36.3498890
  89.4082320  77.0964130  36.3159030  97.0498520  79.5338090  19.3328950
  96.9449160  78.9190440  20.0590330  96.8822740  79.0103980  18.5491960
  97.2012840  78.2194890  35.3118180  96.4358510  78.7879890  35.2272850
  97.3828800  77.9271100  34.4186410 100.2901250  78.5958120  19.9370940
  99.7411350  79.0427420  20.5813680 100.9120510  78.0907370  20.4608610
 104.3436190  79.9500220  35.8693200 105.0845660  80.2875980  35.3660660
 103.5808870  80.1192280  35.3162970  92.1797980  74.9553490  36.6732730
  92.2203320  74.6567360  37.5817960  93.0343480  75.3561100  36.5140250
  95.9576370  77.5549040  21.8336240  96.3792790  77.3888910  22.6767630
  96.0827210  76.7449270  21.3391380  94.1203790  73.5345590  34.6407220
  93.5900250  73.0436540  34.0130560  94.7891860  73.9629790  34.1065150
  98.4704010  76.5786650  19.0813340  98.9909670  75.8635670  18.7154490
  99.1172410  77.2172520  19.3813850 103.0181850  78.0015050  34.4048410
 103.4322870  78.1560130  35.2538830 102.0832850  78.1270270  34.5674190
 103.4904020  75.3411210  36.4087560 104.0724790  74.5863530  36.3208040
 103.6665790  75.8718650  35.6319040  94.6076090  70.5007960  34.7204510
  94.5132960  69.8828710  33.9955380  94.0273480  71.2274250  34.4934420
  97.3737530  69.0581200  31.7531900  96.9254830  69.0805460  30.9077450
  96.7402730  68.6600220  32.3502200  97.7797080  77.9535530  32.3744340
  98.1985190  78.7968260  32.2020580  96.8605710  78.0907570  32.1451120
 100.1160980  75.6851710  33.7582180 100.2357190  75.0892850  34.4977020
 100.9754980  75.7221400  33.3383480 102.4548880  76.2388900  32.3344690
 101.9284100  76.7631520  31.7309830 102.7980220  76.8716290  32.9654420
  94.8535270  73.6282270  18.7794400  94.6524330  72.7649630  19.1407740
  94.6827320  73.5415630  17.8416000  95.6304500  84.2588540  33.4902070
  95.0925590  84.9834600  33.1710770  95.8838460  83.7818880  32.6999410
  96.8829750  72.2273060  35.0158000  97.4729440  71.9188910  35.7035820
  96.0649990  71.7552810  35.1717900 101.7023180  71.8438870  35.2491020
 101.0138700  71.1820410  35.1841010 102.4229200  71.3977140  35.6939480
 102.3323580  68.4390500  21.3081280 102.6125870  67.5958400  21.6640700
 101.5589310  68.6713610  21.8220030  93.6518070  70.7282890  18.7672280
  93.9543970  70.7350320  17.8591430  94.3912660  70.3780750  19.2639940
  98.4866710  85.4939750  33.7488720  98.4125410  86.3974890  34.0561090
  97.5845550  85.1751650  33.7210790  96.8703000  69.6717510  19.7528480
  96.5225000  68.9941500  19.1730930  97.0715770  69.2107020  20.5671870
  99.0352040  84.6598260  21.3715080  99.9302830  84.9983230  21.3933840
  99.0669670  83.9377670  20.7439360  92.6748200  80.0325310  19.6002080
  93.1123070  80.5754980  20.2559660  93.1595930  79.2072260  19.6098420
  89.8894000  82.8214340  27.0522340  90.2197010  81.9535400  26.8200980
  90.3185000  83.0272860  27.8827300  94.4855920  81.1523350  24.7124310
  94.1851460  81.0288320  25.6128220  94.3793410  80.2931940  24.3040040
  90.3784210  83.6884930  29.7903970  89.9415200  83.8685730  30.6228120
  90.9461890  84.4459550  29.6485690 106.0146390  83.1901930  34.0781280
 105.4148380  83.2494490  33.3345200 106.1440290  82.2506910  34.2078130
 107.2547840  80.9319750  19.4150990 106.4240800  80.9996400  19.8858220
 107.4319670  81.8223870  19.1117850 106.7104300  77.6767230  21.9185190
 107.4723210  78.2463880  22.0244880 106.7258670  77.1094430  22.6893500
  90.2108640  76.2005160  26.1492850  89.5557480  75.9316800  25.5052550
  91.0486590  76.0909640  25.6994830 107.7164270  78.5317330  26.7627120
 108.0873100  77.7484650  26.3563090 108.3566200  79.2206430  26.5844420
 104.6998030  79.9153910  32.1757440 103.8857870  80.3451070  32.4383230
 105.1072230  80.5272320  31.5626490 106.7623470  77.9701600  19.0757710
 107.0372310  78.8780480  18.9476930 106.5734210  77.9064130  20.0119700
 103.1599080  70.9946450  20.3711340 103.5783960  70.8077430  19.5308000
 102.8535140  70.1425500  20.6814270 106.6588810  75.9070590  24.0687140
 106.2832410  75.1398520  23.6368430 105.9291930  76.2893290  24.5562070
  91.2484570  76.5857730  30.6896190  91.6157610  76.4985130  31.5692210
  90.6795390  75.8224280  30.5903050 106.0488430  75.0542110  33.7026660
 105.8174520  74.8254860  32.8024610 106.3092980  75.9741660  33.6571550
  90.8000570  73.4966820  34.5954610  89.9056620  73.4633580  34.9348320
  91.3398120  73.6953610  35.3605860 104.4876500  70.2798540  36.4806360
 105.3646680  70.2881940  36.8640360 104.4997340  69.5429380  35.8698710
  89.4246720  73.4104090  22.0918180  88.5210800  73.6734290  21.9169840
  89.9087340  73.6815260  21.3118140 105.9339770  74.1328080  27.3694380
 106.4577250  73.6390730  26.7384550 106.5199190  74.2678440  28.1141950
 106.1129490  74.2167950  30.8913930 105.1632200  74.1831490  31.0058920
 106.2942500  75.1268060  30.6563700  91.9673930  72.4669630  20.0012560
  92.6765630  72.0452850  19.5159840  91.2513870  72.5344860  19.3695910
  91.6148090  68.5208960  19.0415210  92.3376220  69.0617900  19.3596430
  91.8872610  68.2472380  18.1656750 105.4239740  73.3901430  23.3086790
 105.9198860  73.1572300  24.0935670 105.2255810  72.5513270  22.8924430
  91.3040280  67.7715150  28.9437830  91.9516470  67.2212530  28.5032990
  91.7242120  68.0258300  29.7653640 106.8526900  72.0262380  25.8424470
 106.7426180  71.8718420  26.7806740 107.6134490  71.4983320  25.5999880
 105.1992620  67.9656510  32.3007470 105.8364840  68.5790650  32.6666660
 105.3467510  68.0017170  31.3556700 107.7417170  69.8570300  19.0830610
 108.6666480  69.7251480  18.8748900 107.7192960  69.9363120  20.0367060
 107.8155660  70.6280960  21.7087320 107.0207160  70.5626080  22.2380230
 108.0198940  71.5631600  21.6972670 104.7574080  84.6672510  25.7025710
 105.3533150  84.3457080  25.0260130 105.0152230  84.1944330  26.4938980
  91.0572280  67.9270820  31.6863150  90.7087100  68.3834640  32.4521330
  90.7259980  67.0327950  31.7685580  92.6636650  81.0990420  35.8516340
  92.6206280  80.7283330  36.7330800  92.7947660  82.0367990  35.9918160
  96.3642680  82.6550010  31.4526060  96.1234040  82.9224570  30.5656580
  97.3045320  82.8255740  31.5076920  98.5697100  69.1182700  35.2082570
  98.5085990  69.7104530  35.9577980  99.5097480  69.0108660  35.0632830
 101.2071660  68.7752760  34.8474860 101.8212070  69.0932050  34.1855940
 101.7521220  68.2901350  35.4670720 107.6246840  84.6744390  32.2536700
 107.1305120  85.0713260  31.5363830 107.0160130  84.0493600  32.6473980
  91.7292920  67.4547020  34.9613920  92.2775910  67.2735070  34.1980030
  91.7948230  66.6641130  35.4970230  92.5024680  84.0452670  32.9714120
  91.9085000  83.9137370  33.7104160  92.4948520  83.2090810  32.5056220
 101.9479700  67.3384900  31.1744150 101.0739540  67.6720010  30.9717080
 101.8390450  66.8658080  31.9996020 102.8551680  69.5455770  32.5585870
 102.5265040  68.7307530  32.1787600 103.8033980  69.5025580  32.4351560
 105.3086290  85.3167810  29.5323440 104.8489260  86.0683620  29.1581460
 104.6798750  84.5974280  29.4738240  92.1336910  81.4111050  31.9222160
  91.4070970  80.7916340  31.8548110  92.1946060  81.8051660  31.0520240
  95.7382010  83.6256050  28.7071570  96.2547030  83.0143410  28.1819830
  96.3879390  84.1284830  29.1982580  98.4777510  84.5164540  29.5340550
  98.7655320  84.2618840  28.6573560  98.9900730  83.9641900  30.1246120
  99.6954520  68.2554740  30.1137060  98.9126310  68.7300240  30.3933820
  99.4017450  67.3509570  30.0050240 104.2475590  68.9577840  28.1586150
 104.6883680  68.9022940  27.3107750 103.9783180  69.8735850  28.2296330
 106.1114160  68.5893080  26.1694970 106.0502560  67.6454300  26.0225990
 106.8906190  68.6973170  26.7148430  90.4166910  84.7285440  25.1318920
  90.2488950  84.0956120  25.8300810  89.5501420  84.9344840  24.7813110
  91.0394930  68.5602220  22.6350780  91.7974290  68.6731100  22.0614810
  90.5772100  69.3971420  22.5894210  97.5808740  70.6741490  25.6253090
  96.7683250  70.2998380  25.2848970  98.0850380  69.9186570  25.9274280
 102.0833720  67.3383940  26.8636160 102.6863090  67.9104150  27.3384680
 101.3426710  67.9023380  26.6410060 105.2268320  67.7405500  22.1376440
 105.4218950  68.6388950  22.4043870 104.4398190  67.5092580  22.6309390
  92.0229610  83.4218670  22.5769060  91.4977230  83.8026700  21.8731020
  91.9474190  84.0469440  23.2978770  93.4120080  69.0866270  21.1752750
  93.9412840  68.2996070  21.0460700  94.0448400  69.7657460  21.4088280
  95.6057920  68.8241410  24.2298140  94.9760660  68.1228720  24.3968270
  95.0663060  69.5845540  24.0131300  98.5449870  85.4380640  36.9008750
  99.4717180  85.2024910  36.9444710  98.5300300  86.2652640  36.4194780
 106.7794930  84.9806210  23.8983000 106.9547120  84.2943950  23.2543920
 106.0816500  85.5053260  23.5059670  95.7313480  68.1025390  36.6650630
  95.4497750  68.6058990  35.9011450  96.1133180  67.3047140  36.2992760
  94.6222580  85.3701050  21.4518310  95.3541400  85.0860330  20.9042200
  94.8816250  85.1314330  22.3417690  93.7837370  81.4865780  21.4564640
  93.1546250  81.9550880  22.0050470  93.8985200  80.6415000  21.8910830
 102.3328940  67.5178970  37.2431100 102.2194390  67.8373580  38.1382620
 103.1498680  67.9191480  36.9468380 105.1127430  84.6650500  36.7249790
 105.9052750  84.1699730  36.5175750 105.4060580  85.3440640  37.3325400
 101.2387090  75.5371440   7.6065840 101.1581140  74.6226050   7.3357550
 100.8251510  76.0338510   6.9005550  99.3705130  77.3150460   9.4875110
  98.5947230  76.8350900   9.7773680 100.0218060  76.6356110   9.3131270
  93.3870960  77.6270270  10.3650870  92.5555840  77.3718980  10.7647380
  93.9951940  77.6981040  11.1008790 103.3912560  81.7210650   8.2674240
 102.9294090  80.9497890   8.5961410 104.2038110  81.7476720   8.7726690
  93.3672220  81.6610360  10.5608890  93.6700260  80.7708100  10.3819110
  94.1115810  82.2180580  10.3331140  91.7962910  72.5872160   4.1493260
  90.9079610  72.9288130   4.0473140  92.0804100  72.3872480   3.2574090
  89.7595920  75.1877810  10.0332960  90.3312030  74.4200010  10.0336600
  89.7597460  75.4866570   9.1239570  99.6175870  84.0068660   7.8878230
  98.9987310  84.4626160   7.3172670 100.4727650  84.1620120   7.4867930
  98.8114120  79.9907650   9.4945270  98.7422400  79.0497590   9.3334400
  99.5733980  80.0809060  10.0667840  91.0020790  70.5962170  11.8201890
  90.8223630  69.6987920  12.1004650  90.6000870  71.1434040  12.4948840
  99.8419290  72.7978030   9.7214200 100.2184110  71.9249910   9.6087870
  99.7438800  73.1336730   8.8304640  93.9724300  71.1703660   5.1831640
  94.0791050  72.0707390   5.4900400  93.0616660  71.1221630   4.8926290
 103.6243410  70.2928470   6.6542540 104.4453030  69.8025040   6.6968020
 103.6577490  70.8826130   7.4074380  91.6207460  73.0922670  10.4284230
  92.3017570  73.3561040  11.0471630  91.3055510  72.2523540  10.7622240
  95.8132030  74.1390030   9.5156820  96.3210250  74.6371000  10.1561840
  96.3445270  73.3625230   9.3396180 107.9142960  72.3095220  13.2186170
 107.2095130  72.6976930  12.7001280 108.1800880  73.0045510  13.8207100
  94.0968130  68.7788590  13.7820240  94.0986570  69.2960980  12.9766140
  93.2672440  68.3018770  13.7590170 100.4839220  78.8907900   5.2810140
  99.8656490  79.3557350   4.7172860 100.9962470  79.5835380   5.6979650
  95.3470980  78.4183770  11.9593740  95.0140360  79.0452690  12.6014810
  95.5237660  78.9445650  11.1795410 103.8604890  72.2328850   9.4270080
 103.1560460  72.5213740  10.0073190 104.2217050  73.0428960   9.0669640
  93.7783460  70.4898550  11.7890690  94.1200270  71.3340600  11.4944560
  92.8399270  70.6382290  11.9056030  94.5590080  80.3864570  13.7742920
  95.1764080  81.0615650  13.4927370  93.6983200  80.7952550  13.6830420
  89.8522420  79.5764430   2.6549770  89.4750400  80.0651530   1.9234670
  90.1095490  80.2489710   3.2856300 105.4767670  81.8503980  11.6897560
 104.7931190  82.5203090  11.6814230 106.0161960  82.0484630  10.9242420
 106.9291810  71.6783640   9.8179290 105.9816720  71.7122620   9.9494720
 107.2541800  72.4922590  10.2028650  97.4611350  67.9780820   8.1135280
  97.7686330  67.4227710   7.3970780  96.5312050  68.1125280   7.9308270
 103.0126410  83.6948110  10.4042740 103.0253570  83.2910400   9.5365000
 102.4601630  84.4695400  10.3004170 104.3071830  80.4164330   5.4932910
 104.1968160  79.4738660   5.6182330 104.3040080  80.7779970   6.3795670
 102.4111850  78.5977950  11.7325350 102.8280640  78.3838060  10.8978810
 103.1351670  78.8550740  12.3033970  99.8492110  76.0429650   4.8495400
  98.9221390  75.9767030   5.0783870 100.0016930  76.9809780   4.7350640
  99.8361190  72.3146650   1.8462560  98.8964860  72.4760610   1.9315020
 100.1544450  73.0332330   1.2998550 106.3573950  76.9965170  11.8241590
 105.5292580  77.0658260  11.3491720 106.9524430  77.5819480  11.3557420
 103.8789400  77.6049950   5.3530650 103.2601820  77.2669500   4.7056950
 103.8613850  76.9609710   6.0609840 103.3215960  73.7834490  12.7696460
 102.9087140  74.6088200  13.0236450 102.5891910  73.1979530  12.5772820
  95.4548750  76.5694390   7.6315130  95.0505750  75.8571640   7.1361030
  95.5411870  76.2247630   8.5203170  95.9230450  80.2561950   9.7954340
  95.6258740  79.6507420   9.1162120  96.8730270  80.2939260   9.6843700
  94.1677370  73.3437600  11.4114170  94.7191960  73.4532940  10.6367420
  94.6820880  73.7175200  12.1269400 104.0116060  83.8293820  13.4577440
 103.5346620  84.6366010  13.2650050 103.3277850  83.1772150  13.6103650
  95.0148880  79.9943640  16.4462140  94.1177410  80.2183610  16.6935540
  95.0401750  80.1178580  15.4973540 102.0554100  76.8436760   2.3603400
 102.4947380  76.0059190   2.2141220 102.7682520  77.4766160   2.4467540
  93.8420100  76.8656960  15.0219510  93.7027870  77.7379760  15.3906910
  92.9601460  76.5229770  14.8767450 100.1649480  81.7832830   6.3284640
 100.6045390  82.5257160   5.9140030 100.1036370  82.0259400   7.2523600
  95.6400450  82.8078660  17.2304660  95.6115880  83.2121610  16.3633090
  95.4765420  81.8789020  17.0676260  92.1553380  75.4639370   5.1321780
  92.0350980  76.1901460   4.5203050  91.8454270  74.6942280   4.6549690
 107.5915270  83.5905760  18.5268830 108.0674990  84.0688650  19.2057910
 108.2122430  83.5223250  17.8014330  89.7938750  78.6354510  10.9390420
  89.8719170  78.7703280   9.9946140  90.4080430  77.9270400  11.1318540
  91.0386380  80.3354700   7.3496600  90.6314460  80.4769290   6.4950200
  91.9299390  80.0514860   7.1467810 106.9948520  80.7818610  15.6868840
 107.1211580  80.5430490  14.7686020 107.0369900  79.9503150  16.1590920
 100.8565260  84.4846610  14.2563650 101.3709930  84.3954620  15.0586080
 100.0134340  84.8306310  14.5491560 102.8319660  84.7701950   3.6847650
 102.6720800  84.4804890   4.5829480 102.6666370  83.9942080   3.1492880
  95.3108040  84.5500480   5.4619270  95.1350520  83.6336020   5.2487070
  94.4563780  84.9087770   5.7017070 102.5345790  82.2789510   2.2445650
 101.8410950  82.2766800   1.5847930 103.2768650  81.8548830   1.8139820
 102.0995720  83.9052220   6.3194140 102.5552670  83.1241600   6.6332760
 102.4388240  84.6159040   6.8635320 106.8472530  72.8351070  16.6518580
 106.2316800  73.3430740  16.1234040 106.5268950  71.9349400  16.5944520
  89.8498270  79.6768680  13.4784880  90.0129310  79.2074040  12.6604250
  90.3150720  79.1692240  14.1433720  94.6217040  68.8074440   8.5145450
  94.1785190  69.5883980   8.1829970  95.1802030  69.1304330   9.2216390
  98.9086850  71.6742960  14.1180770  98.4466220  71.8825980  14.9300710
  98.5064960  70.8602310  13.8151440 103.9091360  72.8951910  15.2477430
 103.0584950  72.5957660  15.5686500 103.7493150  73.1393920  14.3361250
 101.0041070  74.3953660  17.3476220 101.3294480  73.5617410  17.0078450
 101.7921400  74.9182180  17.4954550  97.7375860  68.4285140   3.3951280
  97.1130040  68.4245010   4.1204590  97.6505980  67.5616100   2.9987250
  96.6592940  69.3521770  10.3735050  96.9565270  70.2584600  10.2927070
  97.2078500  68.8640550   9.7594620  94.4131260  73.9308010   6.2426700
  94.1872180  73.7145180   7.1473320  93.6323790  74.3636470   5.8972670
 101.6429020  73.9371380   4.8417350 101.0437910  74.6607180   4.6580970
 102.1908630  73.8748160   4.0593800  96.8530470  74.8293590  16.9086970
  96.7574070  73.8888320  16.7587370  97.6962450  75.0508660  16.5135040
 100.2493890  72.5734920   6.8720630 100.6423460  72.8907120   6.0589320
 100.6110740  71.6946800   6.9865150  91.9841010  71.2407260  15.0620750
  91.5904400  72.0882470  15.2693530  91.2959410  70.6033630  15.2529390
  98.5586060  71.3242230  18.1317490  97.8684380  71.1314430  18.7663580
  99.3018360  71.6076870  18.6641790  89.2858060  69.1635720   9.0950830
  88.9971110  69.7338580   9.8075810  90.0303820  68.6840170   9.4582060
 100.8349030  75.1640670  10.9671410 100.1030150  75.6727480  11.3161510
 100.4373370  74.3470650  10.6660190  97.2726420  71.8394870   9.3723900
  97.2762480  71.3984820   8.5228440  98.1677540  72.1612200   9.4795720
  93.1228800  71.7221360   8.3318110  92.7828850  72.1996590   9.0885160
  92.3606120  71.2686480   7.9719210  97.3346570  72.8406950   2.3630660
  97.4559390  72.7993430   3.3116480  96.9495080  73.7031100   2.2077390
 101.2974940  70.6174350  10.3794350 101.3147680  71.0683000  11.2236200
 101.0490520  69.7179990  10.5927790 104.7245690  68.0306530  16.2180730
 105.0491460  67.2996190  16.7438710 104.7602200  67.7120170  15.3161720
  91.4237250  79.0520110  15.6380690  91.0392040  78.4113780  16.2363650
  91.7349440  79.7556230  16.2075420  97.5734390  75.8996650  11.1189310
  97.9404520  75.4255220  11.8650650  97.3839450  76.7738220  11.4597650
  90.4374880  70.6440340   7.2482780  90.1521800  70.2796010   8.0861400
  90.3753740  69.9120800   6.6345920  95.3633760  74.9405290  13.4373520
  95.0590830  75.8197270  13.6623880  96.3180220  75.0005080  13.4730960
  93.8915550  79.1466280   4.0340370  93.1177810  78.6063900   3.8739090
  94.6210180  78.6272890   3.6958130 104.6503530  78.1431640   9.8266760
 105.3702650  78.6386930   9.4362870 104.4485350  77.4649530   9.1820630
 100.1113470  69.5369600   3.9696150  99.2978080  69.0382770   3.8941460
  99.9175420  70.3767850   3.5532500 100.0322330  78.2140700  15.7135760
  99.9659640  77.2936370  15.4593350  99.4027470  78.3116140  16.4280400
 102.8261860  73.9089250   2.2658310 103.7141480  74.2206480   2.0909650
 102.7966950  73.0361500   1.8738890  93.9352950  78.8146660   7.6719180
  94.4531620  78.0114920   7.6176070  93.4836970  78.7525800   8.5136010
  98.8222450  80.0812940   2.9446480  99.1638150  80.8255170   2.4489800
  97.9935160  80.3944060   3.3071310  91.4197490  75.7808030  14.5844880
  91.0612430  76.4461880  15.1718220  91.1252050  74.9491580  14.9557500
  94.6210610  76.2392270  17.4684430  94.3210750  76.3849450  16.5712250
  95.3921850  75.6797560  17.3757820  99.9639060  81.0361270  15.4639560
  99.9783600  80.1042230  15.2458470  99.2564160  81.1221030  16.1029330
 106.1750270  77.6768610  14.8108140 105.4498460  78.2697390  14.6137530
 106.7025730  77.6692150  14.0121510 106.1263380  82.0743350   4.4620300
 105.4839540  81.4198970   4.7364020 105.7394040  82.4798440   3.6860970
 101.7049860  79.4028780   8.3091990 102.0573680  78.8056910   7.6493360
 100.8212190  79.0773010   8.4800240  97.7913140  80.1626470   5.7162400
  98.4784270  80.7095680   6.0969990  97.0045560  80.7067200   5.7512010
  97.0940350  77.1672500   5.3287760  97.5503130  77.9777750   5.5547950
  96.7428560  76.8495640   6.1606250  99.3972960  82.6778840  12.5580060
 100.0415180  82.8838220  13.2353480  99.7602400  81.9167240  12.1050910
  92.9952130  67.5110150   5.8010280  92.8666760  67.5028050   6.7495200
  92.1714150  67.8493240   5.4501290 100.6705040  80.6811190  11.2757510
 101.3127270  79.9804350  11.3889680 101.1954390  81.4609630  11.0954400
 102.4442660  81.4806090  14.4793570 102.7798900  82.0672780  15.1571490
 101.5243000  81.3498800  14.7091360  89.9946060  69.2701270  15.2616980
  89.2804580  69.4698190  15.8669590  90.4141100  68.4940840  15.6331780
 104.0977010  78.8831750   2.6610810 103.8098710  79.3444440   3.4488690
 104.8929180  78.4229520   2.9295030  90.2818650  83.2581530  16.2483510
  90.3909770  82.3176270  16.1078900  89.6299210  83.5236280  15.5997240
  98.2731240  81.5297420  17.6481630  97.9528110  80.8106660  18.1927320
  97.5989600  82.2052490  17.7217690  96.3145410  82.3757870   2.5914780
  96.3055510  83.1087560   1.9759290  95.3943770  82.1289450   2.6841740
  91.9152050  77.5972760   3.3361540  91.3080000  78.3371660   3.3456840
  92.3901400  77.6872120   2.5099740 101.4884840  71.7623580  13.0118430
 101.8565660  70.9418790  13.3398000 100.6283040  71.8225470  13.4274080
 104.8546870  70.7180520   3.8205990 104.2260030  70.8226190   3.1064220
 104.3598790  70.9377300   4.6099870  96.8230900  72.9966470   5.2363870
  96.1147050  73.4652810   5.6777480  97.1075380  72.3388480   5.8709060
  98.4486830  74.4163170  13.2356400  98.9472080  74.8908990  13.9008250
  98.5909780  73.4926690  13.4426430 100.8546330  69.7217130   6.6759660
 100.7314110  69.7403260   5.7269170 101.8030890  69.7696070   6.7958060
  97.9423120  84.9572430   5.9487640  98.1964620  84.9193820   5.0267010
  96.9935600  84.8305760   5.9415890  95.0265920  71.3051550   2.6114580
  95.8756450  71.7421700   2.5454770  94.6597190  71.6171810   3.4386640
 105.6553690  70.6331130  14.0784790 105.1527290  71.3736530  14.4178600
 106.4710350  71.0215130  13.7621580 103.9475700  75.8764310   7.5246150
 103.0065840  75.8914540   7.6993840 104.2619770  75.0900270   7.9706450
  92.6204100  74.9908980   1.7683000  92.7007690  74.0436490   1.8800400
  93.5123850  75.3215860   1.8743660 105.9501280  83.0473160   9.2000410
 106.0748700  83.8704330   9.6724220 106.8166840  82.8363890   8.8524560
  93.4218810  85.1404370   8.8717540  94.1581290  84.5919830   9.1426110
  93.8059730  86.0060380   8.7323530  90.3064290  81.2077940   4.7459050
  89.3804070  81.4499080   4.7364460  90.7720720  82.0352200   4.6243800
  92.4277090  84.3250440  18.0603120  93.2289820  84.6462490  18.4738520
  91.9128910  83.9646020  18.7823030 101.2641720  80.4330310  18.0078530
 100.6579880  80.4561910  17.2674280 100.9595830  79.7013350  18.5445780
 102.6942090  84.1610600  16.6187940 103.6463840  84.0768620  16.5688180
 102.5470310  84.8252310  17.2921730 105.5851290  83.5404810   2.1179850
 105.2992800  83.1269950   1.3034030 105.3870840  84.4692520   1.9980370
  90.1474900  76.8123900  17.0039170  90.6513920  76.2331180  17.5755400
  89.4082320  77.0964130  17.5415540  97.2012840  78.2194890  16.5374690
  96.4358510  78.7879890  16.4529360  97.3828800  77.9271100  15.6442920
 104.3436190  79.9500220  17.0949710 105.0845660  80.2875980  16.5917170
 103.5808870  80.1192280  16.5419480  92.1797980  74.9553490  17.8989240
  92.2203320  74.6567360  18.8074470  93.0343480  75.3561100  17.7396760
  95.9576370  77.5549040   3.0592750  96.3792790  77.3888910   3.9024140
  96.0827210  76.7449270   2.5647890  94.1203790  73.5345590  15.8663730
  93.5900250  73.0436540  15.2387070  94.7891860  73.9629790  15.3321660
 103.0181850  78.0015050  15.6304920 103.4322870  78.1560130  16.4795340
 102.0832850  78.1270270  15.7930700 103.4904020  75.3411210  17.6344070
 104.0724790  74.5863530  17.5464550 103.6665790  75.8718650  16.8575550
  94.6076090  70.5007960  15.9461020  94.5132960  69.8828710  15.2211890
  94.0273480  71.2274250  15.7190930  97.3737530  69.0581200  12.9788410
  96.9254830  69.0805460  12.1333960  96.7402730  68.6600220  13.5758710
  97.7797080  77.9535530  13.6000850  98.1985190  78.7968260  13.4277090
  96.8605710  78.0907570  13.3707630 100.1160980  75.6851710  14.9838690
 100.2357190  75.0892850  15.7233530 100.9754980  75.7221400  14.5639990
 102.4548880  76.2388900  13.5601200 101.9284100  76.7631520  12.9566340
 102.7980220  76.8716290  14.1910930  95.6304500  84.2588540  14.7158580
  95.0925590  84.9834600  14.3967280  95.8838460  83.7818880  13.9255920
  96.8829750  72.2273060  16.2414510  97.4729440  71.9188910  16.9292330
  96.0649990  71.7552810  16.3974410 101.7023180  71.8438870  16.4747530
 101.0138700  71.1820410  16.4097520 102.4229200  71.3977140  16.9195990
 102.3323580  68.4390500   2.5337790 102.6125870  67.5958400   2.8897210
 101.5589310  68.6713610   3.0476540  98.4866710  85.4939750  14.9745230
  98.4125410  86.3974890  15.2817600  97.5845550  85.1751650  14.9467300
  99.0352040  84.6598260   2.5971590  99.9302830  84.9983230   2.6190350
  99.0669670  83.9377670   1.9695870  89.8894000  82.8214340   8.2778850
  90.2197010  81.9535400   8.0457490  90.3185000  83.0272860   9.1083810
  94.4855920  81.1523350   5.9380820  94.1851460  81.0288320   6.8384730
  94.3793410  80.2931940   5.5296550  90.3784210  83.6884930  11.0160480
  89.9415200  83.8685730  11.8484630  90.9461890  84.4459550  10.8742200
 106.0146390  83.1901930  15.3037790 105.4148380  83.2494490  14.5601710
 106.1440290  82.2506910  15.4334640 106.7104300  77.6767230   3.1441700
 107.4723210  78.2463880   3.2501390 106.7258670  77.1094430   3.9150010
  90.2108640  76.2005160   7.3749360  89.5557480  75.9316800   6.7309060
  91.0486590  76.0909640   6.9251340 107.7164270  78.5317330   7.9883630
 108.0873100  77.7484650   7.5819600 108.3566200  79.2206430   7.8100930
 104.6998030  79.9153910  13.4013950 103.8857870  80.3451070  13.6639740
 105.1072230  80.5272320  12.7883000 106.6588810  75.9070590   5.2943650
 106.2832410  75.1398520   4.8624940 105.9291930  76.2893290   5.7818580
  91.2484570  76.5857730  11.9152700  91.6157610  76.4985130  12.7948720
  90.6795390  75.8224280  11.8159560 106.0488430  75.0542110  14.9283170
 105.8174520  74.8254860  14.0281120 106.3092980  75.9741660  14.8828060
  90.8000570  73.4966820  15.8211120  89.9056620  73.4633580  16.1604830
  91.3398120  73.6953610  16.5862370 104.4876500  70.2798540  17.7062870
 105.3646680  70.2881940  18.0896870 104.4997340  69.5429380  17.0955220
  89.4246720  73.4104090   3.3174690  88.5210800  73.6734290   3.1426350
  89.9087340  73.6815260   2.5374650 105.9339770  74.1328080   8.5950890
 106.4577250  73.6390730   7.9641060 106.5199190  74.2678440   9.3398460
 106.1129490  74.2167950  12.1170440 105.1632200  74.1831490  12.2315430
 106.2942500  75.1268060  11.8820210 105.4239740  73.3901430   4.5343300
 105.9198860  73.1572300   5.3192180 105.2255810  72.5513270   4.1180940
  91.3040280  67.7715150  10.1694340  91.9516470  67.2212530   9.7289500
  91.7242120  68.0258300  10.9910150 106.8526900  72.0262380   7.0680980
 106.7426180  71.8718420   8.0063250 107.6134490  71.4983320   6.8256390
 105.1992620  67.9656510  13.5263980 105.8364840  68.5790650  13.8923170
 105.3467510  68.0017170  12.5813210 107.8155660  70.6280960   2.9343830
 107.0207160  70.5626080   3.4636740 108.0198940  71.5631600   2.9229180
 104.7574080  84.6672510   6.9282220 105.3533150  84.3457080   6.2516640
 105.0152230  84.1944330   7.7195490  91.0572280  67.9270820  12.9119660
  90.7087100  68.3834640  13.6777840  90.7259980  67.0327950  12.9942090
  92.6636650  81.0990420  17.0772850  92.6206280  80.7283330  17.9587310
  92.7947660  82.0367990  17.2174670  96.3642680  82.6550010  12.6782570
  96.1234040  82.9224570  11.7913090  97.3045320  82.8255740  12.7333430
  98.5697100  69.1182700  16.4339080  98.5085990  69.7104530  17.1834490
  99.5097480  69.0108660  16.2889340 101.2071660  68.7752760  16.0731370
 101.8212070  69.0932050  15.4112450 101.7521220  68.2901350  16.6927230
 107.6246840  84.6744390  13.4793210 107.1305120  85.0713260  12.7620340
 107.0160130  84.0493600  13.8730490  91.7292920  67.4547020  16.1870430
  92.2775910  67.2735070  15.4236540  91.7948230  66.6641130  16.7226740
  92.5024680  84.0452670  14.1970630  91.9085000  83.9137370  14.9360670
  92.4948520  83.2090810  13.7312730 101.9479700  67.3384900  12.4000660
 101.0739540  67.6720010  12.1973590 101.8390450  66.8658080  13.2252530
 102.8551680  69.5455770  13.7842380 102.5265040  68.7307530  13.4044110
 103.8033980  69.5025580  13.6608070 105.3086290  85.3167810  10.7579950
 104.8489260  86.0683620  10.3837970 104.6798750  84.5974280  10.6994750
  92.1336910  81.4111050  13.1478670  91.4070970  80.7916340  13.0804620
  92.1946060  81.8051660  12.2776750  95.7382010  83.6256050   9.9328080
  96.2547030  83.0143410   9.4076340  96.3879390  84.1284830  10.4239090
  98.4777510  84.5164540  10.7597060  98.7655320  84.2618840   9.8830070
  98.9900730  83.9641900  11.3502630  99.6954520  68.2554740  11.3393570
  98.9126310  68.7300240  11.6190330  99.4017450  67.3509570  11.2306750
 104.2475590  68.9577840   9.3842660 104.6883680  68.9022940   8.5364260
 103.9783180  69.8735850   9.4552840 106.1114160  68.5893080   7.3951480
 106.0502560  67.6454300   7.2482500 106.8906190  68.6973170   7.9404940
  90.4166910  84.7285440   6.3575430  90.2488950  84.0956120   7.0557320
  89.5501420  84.9344840   6.0069620  91.0394930  68.5602220   3.8607290
  91.7974290  68.6731100   3.2871320  90.5772100  69.3971420   3.8150720
  97.5808740  70.6741490   6.8509600  96.7683250  70.2998380   6.5105480
  98.0850380  69.9186570   7.1530790 102.0833720  67.3383940   8.0892670
 102.6863090  67.9104150   8.5641190 101.3426710  67.9023380   7.8666570
 105.2268320  67.7405500   3.3632950 105.4218950  68.6388950   3.6300380
 104.4398190  67.5092580   3.8565900  92.0229610  83.4218670   3.8025570
  91.4977230  83.8026700   3.0987530  91.9474190  84.0469440   4.5235280
  93.4120080  69.0866270   2.4009260  93.9412840  68.2996070   2.2717210
  94.0448400  69.7657460   2.6344790  95.6057920  68.8241410   5.4554650
  94.9760660  68.1228720   5.6224780  95.0663060  69.5845540   5.2387810
  98.5449870  85.4380640  18.1265260  99.4717180  85.2024910  18.1701220
  98.5300300  86.2652640  17.6451290 106.7794930  84.9806210   5.1239510
 106.9547120  84.2943950   4.4800430 106.0816500  85.5053260   4.7316180
  95.7313480  68.1025390  17.8907140  95.4497750  68.6058990  17.1267960
  96.1133180  67.3047140  17.5249270  94.6222580  85.3701050   2.6774820
  95.3541400  85.0860330   2.1298710  94.8816250  85.1314330   3.5674200
  93.7837370  81.4865780   2.6821150  93.1546250  81.9550880   3.2306980
  93.8985200  80.6415000   3.1167340 102.3328940  67.5178970  18.4687610
 102.2194390  67.8373580  19.3639130 103.1498680  67.9191480  18.1724890
 105.1127430  84.6650500  17.9506300 105.9052750  84.1699730  17.7432260
 105.4060580  85.3440640  18.5581910 101.2387090  56.7627950 101.4783290
 101.1581140  55.8482560 101.2075000 100.8251510  57.2595020 100.7723000
  99.3705130  58.5406970 103.3592560  98.5947230  58.0607410 103.6491130
 100.0218060  57.8612620 103.1848720  93.3870960  58.8526780 104.2368320
  92.5555840  58.5975490 104.6364830  93.9951940  58.9237550 104.9726240
 103.3912560  62.9467160 102.1391690 102.9294090  62.1754400 102.4678860
 104.2038110  62.9733230 102.6444140  93.3672220  62.8866870 104.4326340
  93.6700260  61.9964610 104.2536560  94.1115810  63.4437090 104.2048590
  91.7962910  53.8128670  98.0210710  90.9079610  54.1544640  97.9190590
  92.0804100  53.6128990  97.1291540  89.7595920  56.4134320 103.9050410
  90.3312030  55.6456520 103.9054050  89.7597460  56.7123080 102.9957020
  99.6175870  65.2325170 101.7595680  98.9987310  65.6882670 101.1890120
 100.4727650  65.3876630 101.3585380  98.8114120  61.2164160 103.3662720
  98.7422400  60.2754100 103.2051850  99.5733980  61.3065570 103.9385290
  91.0020790  51.8218680 105.6919340  90.8223630  50.9244430 105.9722100
  90.6000870  52.3690550 106.3666290  99.8419290  54.0234540 103.5931650
 100.2184110  53.1506420 103.4805320  99.7438800  54.3593240 102.7022090
  93.9724300  52.3960170  99.0549090  94.0791050  53.2963900  99.3617850
  93.0616660  52.3478140  98.7643740 103.6243410  51.5184980 100.5259990
 104.4453030  51.0281550 100.5685470 103.6577490  52.1082640 101.2791830
  91.6207460  54.3179180 104.3001680  92.3017570  54.5817550 104.9189080
  91.3055510  53.4780050 104.6339690  95.8132030  55.3646540 103.3874270
  96.3210250  55.8627510 104.0279290  96.3445270  54.5881740 103.2113630
 107.9142960  53.5351730 107.0903620 107.2095130  53.9233440 106.5718730
 108.1800880  54.2302020 107.6924550  94.0968130  50.0045100 107.6537690
  94.0986570  50.5217490 106.8483590  93.2672440  49.5275280 107.6307620
 100.4839220  60.1164410  99.1527590  99.8656490  60.5813860  98.5890310
 100.9962470  60.8091890  99.5697100  95.3470980  59.6440280 105.8311190
  95.0140360  60.2709200 106.4732260  95.5237660  60.1702160 105.0512860
 103.8604890  53.4585360 103.2987530 103.1560460  53.7470250 103.8790640
 104.2217050  54.2685470 102.9387090  93.7783460  51.7155060 105.6608140
  94.1200270  52.5597110 105.3662010  92.8399270  51.8638800 105.7773480
  94.5590080  61.6121080 107.6460370  95.1764080  62.2872160 107.3644820
  93.6983200  62.0209060 107.5547870  89.8522420  60.8020940  96.5267220
  89.4750400  61.2908040  95.7952120  90.1095490  61.4746220  97.1573750
 105.4767670  63.0760490 105.5615010 104.7931190  63.7459600 105.5531680
 106.0161960  63.2741140 104.7959870 106.9291810  52.9040150 103.6896740
 105.9816720  52.9379130 103.8212170 107.2541800  53.7179100 104.0746100
  97.4611350  49.2037330 101.9852730  97.7686330  48.6484220 101.2688230
  96.5312050  49.3381790 101.8025720 103.0126410  64.9204620 104.2760190
 103.0253570  64.5166910 103.4082450 102.4601630  65.6951910 104.1721620
 104.3071830  61.6420840  99.3650360 104.1968160  60.6995170  99.4899780
 104.3040080  62.0036480 100.2513120 102.4111850  59.8234460 105.6042800
 102.8280640  59.6094570 104.7696260 103.1351670  60.0807250 106.1751420
  99.8492110  57.2686160  98.7212850  98.9221390  57.2023540  98.9501320
 100.0016930  58.2066290  98.6068090  99.8361190  53.5403160  95.7180010
  98.8964860  53.7017120  95.8032470 100.1544450  54.2588840  95.1716000
 106.3573950  58.2221680 105.6959040 105.5292580  58.2914770 105.2209170
 106.9524430  58.8075990 105.2274870 103.8789400  58.8306460  99.2248100
 103.2601820  58.4926010  98.5774400 103.8613850  58.1866220  99.9327290
 103.3215960  55.0091000 106.6413910 102.9087140  55.8344710 106.8953900
 102.5891910  54.4236040 106.4490270  95.4548750  57.7950900 101.5032580
  95.0505750  57.0828150 101.0078480  95.5411870  57.4504140 102.3920620
  95.9230450  61.4818460 103.6671790  95.6258740  60.8763930 102.9879570
  96.8730270  61.5195770 103.5561150  94.1677370  54.5694110 105.2831620
  94.7191960  54.6789450 104.5084870  94.6820880  54.9431710 105.9986850
 104.0116060  65.0550330 107.3294890 103.5346620  65.8622520 107.1367500
 103.3277850  64.4028660 107.4821100  95.0148880  61.2200150 110.3179590
  94.1177410  61.4440120 110.5652990  95.0401750  61.3435090 109.3690990
 102.0554100  58.0693270  96.2320850 102.4947380  57.2315700  96.0858670
 102.7682520  58.7022670  96.3184990  93.8420100  58.0913470 108.8936960
  93.7027870  58.9636270 109.2624360  92.9601460  57.7486280 108.7484900
 100.1649480  63.0089340 100.2002090 100.6045390  63.7513670  99.7857480
 100.1036370  63.2515910 101.1241050 105.6371240  49.3236080  94.5461890
 105.3243900  49.4162910  95.4460960 106.3983710  49.9017110  94.4959320
  92.1553380  56.6895880  99.0039230  92.0350980  57.4157970  98.3920500
  91.8454270  55.9198790  98.5267140  89.7938750  59.8611020 104.8107870
  89.8719170  59.9959790 103.8663590  90.4080430  59.1526910 105.0035990
  91.0386380  61.5611210 101.2214050  90.6314460  61.7025800 100.3667650
  91.9299390  61.2771370 101.0185260 106.9948520  62.0075120 109.5586290
 107.1211580  61.7687000 108.6403470 107.0369900  61.1759660 110.0308370
 100.8565260  65.7103120 108.1281100 101.3709930  65.6211130 108.9303530
 100.0134340  66.0562820 108.4209010 102.8319660  65.9958460  97.5565100
 102.6720800  65.7061400  98.4546930 102.6666370  65.2198590  97.0210330
  95.3108040  65.7756990  99.3336720  95.1350520  64.8592530  99.1204520
  94.4563780  66.1344280  99.5734520 102.5345790  63.5046020  96.1163100
 101.8410950  63.5023310  95.4565380 103.2768650  63.0805340  95.6857270
 102.0995720  65.1308730 100.1911590 102.5552670  64.3498110 100.5050210
 102.4388240  65.8415550 100.7352770 106.8472530  54.0607580 110.5236030
 106.2316800  54.5687250 109.9951490 106.5268950  53.1605910 110.4661970
  89.8498270  60.9025190 107.3502330  90.0129310  60.4330550 106.5321700
  90.3150720  60.3948750 108.0151170  94.6217040  50.0330950 102.3862900
  94.1785190  50.8140490 102.0547420  95.1802030  50.3560840 103.0933840
  98.9086850  52.8999470 107.9898220  98.4466220  53.1082490 108.8018160
  98.5064960  52.0858820 107.6868890 103.9091360  54.1208420 109.1194880
 103.0584950  53.8214170 109.4403950 103.7493150  54.3650430 108.2078700
  97.7375860  49.6541650  97.2668730  97.1130040  49.6501520  97.9922040
  97.6505980  48.7872610  96.8704700  96.6592940  50.5778280 104.2452500
  96.9565270  51.4841110 104.1644520  97.2078500  50.0897060 103.6312070
  94.4131260  55.1564520 100.1144150  94.1872180  54.9401690 101.0190770
  93.6323790  55.5892980  99.7690120 101.6429020  55.1627890  98.7134800
 101.0437910  55.8863690  98.5298420 102.1908630  55.1004670  97.9311250
  96.8530470  56.0550100 110.7804420  96.7574070  55.1144830 110.6304820
  97.6962450  56.2765170 110.3852490 100.2493890  53.7991430 100.7438080
 100.6423460  54.1163630  99.9306770 100.6110740  52.9203310 100.8582600
  91.9841010  52.4663770 108.9338200  91.5904400  53.3138980 109.1410980
  91.2959410  51.8290140 109.1246840  89.2858060  50.3892230 102.9668280
  88.9971110  50.9595090 103.6793260  90.0303820  49.9096680 103.3299510
  89.4728290  54.3312350  94.1771000  89.3902960  55.2743110  94.3185990
  89.1211350  54.1887260  93.2983350 100.8349030  56.3897180 104.8388860
 100.1030150  56.8983990 105.1878960 100.4373370  55.5727160 104.5377640
  97.2726420  53.0651380 103.2441350  97.2762480  52.6241330 102.3945890
  98.1677540  53.3868710 103.3513170  93.1228800  52.9477870 102.2035560
  92.7828850  53.4253100 102.9602610  92.3606120  52.4942990 101.8436660
  97.3346570  54.0663460  96.2348110  97.4559390  54.0249940  97.1833930
  96.9495080  54.9287610  96.0794840 101.2974940  51.8430860 104.2511800
 101.3147680  52.2939510 105.0953650 101.0490520  50.9436500 104.4645240
  96.3468070  56.3764600  95.6331410  95.7784970  55.9282850  95.0067320
  97.0557070  56.7357380  95.0996560 104.7245690  49.2563040 110.0898180
 105.0491460  48.5252700 110.6156160 104.7602200  48.9376680 109.1879170
  91.4237250  60.2776620 109.5098140  91.0392040  59.6370290 110.1081100
  91.7349440  60.9812740 110.0792870  97.5734390  57.1253160 104.9906760
  97.9404520  56.6511730 105.7368100  97.3839450  57.9994730 105.3315100
  90.4374880  51.8696850 101.1200230  90.1521800  51.5052520 101.9578850
  90.3753740  51.1377310 100.5063370  95.3633760  56.1661800 107.3090970
  95.0590830  57.0453780 107.5341330  96.3180220  56.2261590 107.3448410
  93.8915550  60.3722790  97.9057820  93.1177810  59.8320410  97.7456540
  94.6210180  59.8529400  97.5675580 104.6503530  59.3688150 103.6984210
 105.3702650  59.8643440 103.3080320 104.4485350  58.6906040 103.0538080
 100.1113470  50.7626110  97.8413600  99.2978080  50.2639280  97.7658910
  99.9175420  51.6024360  97.4249950 100.0322330  59.4397210 109.5853210
  99.9659640  58.5192880 109.3310800  99.4027470  59.5372650 110.2997850
 102.8261860  55.1345760  96.1375760 103.7141480  55.4462990  95.9627100
 102.7966950  54.2618010  95.7456340  93.9352950  60.0403170 101.5436630
  94.4531620  59.2371430 101.4893520  93.4836970  59.9782310 102.3853460
  98.8222450  61.3069450  96.8163930  99.1638150  62.0511680  96.3207250
  97.9935160  61.6200570  97.1788760  91.4197490  57.0064540 108.4562330
  91.0612430  57.6718390 109.0435670  91.1252050  56.1748090 108.8274950
  99.9639060  62.2617780 109.3357010  99.9783600  61.3298740 109.1175920
  99.2564160  62.3477540 109.9746780 105.0976130  56.4457600  95.6055620
 105.0139850  56.8771820  94.7552060 105.8170320  56.9055950  96.0382440
 106.1750270  58.9025120 108.6825590 105.4498460  59.4953900 108.4854980
 106.7025730  58.8948660 107.8838960 106.1263380  63.2999860  98.3337750
 105.4839540  62.6455480  98.6081470 105.7394040  63.7054950  97.5578420
 101.7049860  60.6285290 102.1809440 102.0573680  60.0313420 101.5210810
 100.8212190  60.3029520 102.3517690  97.7913140  61.3882980  99.5879850
  98.4784270  61.9352190  99.9687440  97.0045560  61.9323710  99.6229460
  89.9305540  57.0055800  95.0796930  90.8000390  57.2880600  95.3632850
  89.4395860  57.8191670  94.9645740  97.0940350  58.3929010  99.2005210
  97.5503130  59.2034260  99.4265400  96.7428560  58.0752150 100.0323700
  99.3972960  63.9035350 106.4297510 100.0415180  64.1094730 107.1070930
  99.7602400  63.1423750 105.9768360  92.9952130  48.7366660  99.6727730
  92.8666760  48.7284560 100.6212650  92.1714150  49.0749750  99.3218740
 100.6705040  61.9067700 105.1474960 101.3127270  61.2060860 105.2607130
 101.1954390  62.6866140 104.9671850 104.5160760  62.1916320  94.8714100
 104.2898340  61.4746760  95.4638740 104.1256960  61.9428760  94.0335850
 102.4442660  62.7062600 108.3511020 102.7798900  63.2929290 109.0288940
 101.5243000  62.5755310 108.5808810  90.2976790  66.2183180  95.6458560
  90.6574430  66.8172520  94.9915830  90.1569130  66.7643070  96.4193590
  89.9946060  50.4957780 109.1334430  89.2804580  50.6954700 109.7387040
  90.4141100  49.7197350 109.5049230 104.0977010  60.1088260  96.5328260
 103.8098710  60.5700950  97.3206140 104.8929180  59.6486030  96.8012480
  90.2818650  64.4838040 110.1200960  90.3909770  63.5432780 109.9796350
  89.6299210  64.7492790 109.4714690  96.3145410  63.6014380  96.4632230
  96.3055510  64.3344070  95.8476740  95.3943770  63.3545960  96.5559190
  91.9152050  58.8229270  97.2078990  91.3080000  59.5628170  97.2174290
  92.3901400  58.9128630  96.3817190 101.4884840  52.9880090 106.8835880
 101.8565660  52.1675300 107.2115450 100.6283040  53.0481980 107.2991530
 104.8546870  51.9437030  97.6923440 104.2260030  52.0482700  96.9781670
 104.3598790  52.1633810  98.4817320  99.3005010  63.6642620  95.1257420
  99.4016990  63.4606610  94.1959400  98.4006750  63.4100900  95.3305200
  96.8230900  54.2222980  99.1081320  96.1147050  54.6909320  99.5494930
  97.1075380  53.5644990  99.7426510  98.4486830  55.6419680 107.1073850
  98.9472080  56.1165500 107.7725700  98.5909780  54.7183200 107.3143880
 100.8546330  50.9473640 100.5477110 100.7314110  50.9659770  99.5986620
 101.8030890  50.9952580 100.6675510  97.9423120  66.1828940  99.8205090
  98.1964620  66.1450330  98.8984460  96.9935600  66.0562270  99.8133340
  95.0265920  52.5308060  96.4832030  95.8756450  52.9678210  96.4172220
  94.6597190  52.8428320  97.3104090 105.6553690  51.8587640 107.9502240
 105.1527290  52.5993040 108.2896050 106.4710350  52.2471640 107.6339030
 103.9475700  57.1020820 101.3963600 103.0065840  57.1171050 101.5711290
 104.2619770  56.3156780 101.8423900  93.9257340  58.7840420  94.9567560
  94.6920610  58.6721780  95.5192990  94.0032030  58.0878390  94.3044330
  92.6204100  56.2165490  95.6400450  92.7007690  55.2693000  95.7517850
  93.5123850  56.5472370  95.7461110 105.9501280  64.2729670 103.0717860
 106.0748700  65.0960840 103.5441670 106.8166840  64.0620400 102.7242010
  93.4218810  66.3660880 102.7434990  94.1581290  65.8176340 103.0143560
  93.8059730  67.2316890 102.6040980  90.3064290  62.4334450  98.6176500
  89.3804070  62.6755590  98.6081910  90.7720720  63.2608710  98.4961250
  96.5321120  65.5391190  94.5660560  97.3249730  65.8280020  94.1142350
  96.0125470  65.1083360  93.8873040 105.5851290  64.7661320  95.9897300
 105.2992800  64.3526460  95.1751480 105.3870840  65.6949030  95.8697820
  97.0498520  60.7594600  94.4302910  96.9449160  60.1446950  95.1564290
  96.8822740  60.2360490  93.6465920  97.2012840  59.4451400 110.4092140
  96.4358510  60.0136400 110.3246810  97.3828800  59.1527610 109.5160370
 100.2901250  59.8214630  95.0344900  99.7411350  60.2683930  95.6787640
 100.9120510  59.3163880  95.5582570 104.3436190  61.1756730 110.9667160
 105.0845660  61.5132490 110.4634620 103.5808870  61.3448790 110.4136930
  95.9576370  58.7805550  96.9310200  96.3792790  58.6145420  97.7741590
  96.0827210  57.9705780  96.4365340  94.1203790  54.7602100 109.7381180
  93.5900250  54.2693050 109.1104520  94.7891860  55.1886300 109.2039110
  98.4704010  57.8043160  94.1787300  98.9909670  57.0892180  93.8128450
  99.1172410  58.4429030  94.4787810 103.0181850  59.2271560 109.5022370
 103.4322870  59.3816640 110.3512790 102.0832850  59.3526780 109.6648150
  94.6076090  51.7264470 109.8178470  94.5132960  51.1085220 109.0929340
  94.0273480  52.4530760 109.5908380  97.3737530  50.2837710 106.8505860
  96.9254830  50.3061970 106.0051410  96.7402730  49.8856730 107.4476160
  97.7797080  59.1792040 107.4718300  98.1985190  60.0224770 107.2994540
  96.8605710  59.3164080 107.2425080 100.1160980  56.9108220 108.8556140
 100.2357190  56.3149360 109.5950980 100.9754980  56.9477910 108.4357440
 102.4548880  57.4645410 107.4318650 101.9284100  57.9888030 106.8283790
 102.7980220  58.0972800 108.0628380  94.8535270  54.8538780  93.8768360
  94.6524330  53.9906140  94.2381700  94.6827320  54.7672140  92.9389960
  95.6304500  65.4845050 108.5876030  95.0925590  66.2091110 108.2684730
  95.8838460  65.0075390 107.7973370  96.8829750  53.4529570 110.1131960
  97.4729440  53.1445420 110.8009780  96.0649990  52.9809320 110.2691860
 101.7023180  53.0695380 110.3464980 101.0138700  52.4076920 110.2814970
 102.4229200  52.6233650 110.7913440 102.3323580  49.6647010  96.4055240
 102.6125870  48.8214910  96.7614660 101.5589310  49.8970120  96.9193990
  93.6518070  51.9539400  93.8646240  93.9543970  51.9606830  92.9565390
  94.3912660  51.6037260  94.3613900  98.4866710  66.7196260 108.8462680
  98.4125410  67.6231400 109.1535050  97.5845550  66.4008160 108.8184750
  96.8703000  50.8974020  94.8502440  96.5225000  50.2198010  94.2704890
  97.0715770  50.4363530  95.6645830  99.0352040  65.8854770  96.4689040
  99.9302830  66.2239740  96.4907800  99.0669670  65.1634180  95.8413320
  92.6748200  61.2581820  94.6976040  93.1123070  61.8011490  95.3533620
  93.1595930  60.4328770  94.7072380  89.8894000  64.0470850 102.1496300
  90.2197010  63.1791910 101.9174940  90.3185000  64.2529370 102.9801260
  94.4855920  62.3779860  99.8098270  94.1851460  62.2544830 100.7102180
  94.3793410  61.5188450  99.4014000  90.3784210  64.9141440 104.8877930
  89.9415200  65.0942240 105.7202080  90.9461890  65.6716060 104.7459650
 106.0146390  64.4158440 109.1755240 105.4148380  64.4751000 108.4319160
 106.1440290  63.4763420 109.3052090 107.2547840  62.1576260  94.5124950
 106.4240800  62.2252910  94.9832180 107.4319670  63.0480380  94.2091810
 106.7104300  58.9023740  97.0159150 107.4723210  59.4720390  97.1218840
 106.7258670  58.3350940  97.7867460  90.2108640  57.4261670 101.2466810
  89.5557480  57.1573310 100.6026510  91.0486590  57.3166150 100.7968790
 107.7164270  59.7573840 101.8601080 108.0873100  58.9741160 101.4537050
 108.3566200  60.4462940 101.6818380 104.6998030  61.1410420 107.2731400
 103.8857870  61.5707580 107.5357190 105.1072230  61.7528830 106.6600450
 106.7623470  59.1958110  94.1731670 107.0372310  60.1036990  94.0450890
 106.5734210  59.1320640  95.1093660 103.1599080  52.2202960  95.4685300
 103.5783960  52.0333940  94.6281960 102.8535140  51.3682010  95.7788230
 106.6588810  57.1327100  99.1661100 106.2832410  56.3655030  98.7342390
 105.9291930  57.5149800  99.6536030  91.2484570  57.8114240 105.7870150
  91.6157610  57.7241640 106.6666170  90.6795390  57.0480790 105.6877010
 106.0488430  56.2798620 108.8000620 105.8174520  56.0511370 107.8998570
 106.3092980  57.1998170 108.7545510  90.8000570  54.7223330 109.6928570
  89.9056620  54.6890090 110.0322280  91.3398120  54.9210120 110.4579820
  89.4246720  54.6360600  97.1892140  88.5210800  54.8990800  97.0143800
  89.9087340  54.9071770  96.4092100 105.9339770  55.3584590 102.4668340
 106.4577250  54.8647240 101.8358510 106.5199190  55.4934950 103.2115910
 106.1129490  55.4424460 105.9887890 105.1632200  55.4088000 106.1032880
 106.2942500  56.3524570 105.7537660  91.9673930  53.6926140  95.0986520
  92.6765630  53.2709360  94.6133800  91.2513870  53.7601370  94.4669870
  91.6148090  49.7465470  94.1389170  92.3376220  50.2874410  94.4570390
  91.8872610  49.4728890  93.2630710 105.4239740  54.6157940  98.4060750
 105.9198860  54.3828810  99.1909630 105.2255810  53.7769780  97.9898390
  91.3040280  48.9971660 104.0411790  91.9516470  48.4469040 103.6006950
  91.7242120  49.2514810 104.8627600 106.8526900  53.2518890 100.9398430
 106.7426180  53.0974930 101.8780700 107.6134490  52.7239830 100.6973840
 105.1992620  49.1913020 107.3981430 105.8364840  49.8047160 107.7640620
 105.3467510  49.2273680 106.4530660 107.7417170  51.0826810  94.1804570
 108.6666480  50.9507990  93.9722860 107.7192960  51.1619630  95.1341020
 107.8155660  51.8537470  96.8061280 107.0207160  51.7882590  97.3354190
 108.0198940  52.7888110  96.7946630 104.7574080  65.8929020 100.7999670
 105.3533150  65.5713590 100.1234090 105.0152230  65.4200840 101.5912940
  91.0572280  49.1527330 106.7837110  90.7087100  49.6091150 107.5495290
  90.7259980  48.2584460 106.8659540  96.3642680  63.8806520 106.5500020
  96.1234040  64.1481080 105.6630540  97.3045320  64.0512250 106.6050880
 101.2071660  50.0009270 109.9448820 101.8212070  50.3188560 109.2829900
 101.7521220  49.5157860 110.5644680 107.6246840  65.9000900 107.3510660
 107.1305120  66.2969770 106.6337790 107.0160130  65.2750110 107.7447940
  91.7292920  48.6803530 110.0587880  92.2775910  48.4991580 109.2953990
  91.7948230  47.8897640 110.5944190  92.5024680  65.2709180 108.0688080
  91.9085000  65.1393880 108.8078120  92.4948520  64.4347320 107.6030180
 101.9479700  48.5641410 106.2718110 101.0739540  48.8976520 106.0691040
 101.8390450  48.0914590 107.0969980 102.8551680  50.7712280 107.6559830
 102.5265040  49.9564040 107.2761560 103.8033980  50.7282090 107.5325520
 105.3086290  66.5424320 104.6297400 104.8489260  67.2940130 104.2555420
 104.6798750  65.8230790 104.5712200  92.1336910  62.6367560 107.0196120
  91.4070970  62.0172850 106.9522070  92.1946060  63.0308170 106.1494200
  95.7382010  64.8512560 103.8045530  96.2547030  64.2399920 103.2793790
  96.3879390  65.3541340 104.2956540  98.4777510  65.7421050 104.6314510
  98.7655320  65.4875350 103.7547520  98.9900730  65.1898410 105.2220080
  99.6954520  49.4811250 105.2111020  98.9126310  49.9556750 105.4907780
  99.4017450  48.5766080 105.1024200 104.2475590  50.1834350 103.2560110
 104.6883680  50.1279450 102.4081710 103.9783180  51.0992360 103.3270290
 106.1114160  49.8149590 101.2668930 106.0502560  48.8710810 101.1199950
 106.8906190  49.9229680 101.8122390  90.4166910  65.9541950 100.2292880
  90.2488950  65.3212630 100.9274770  89.5501420  66.1601350  99.8787070
  91.0394930  49.7858730  97.7324740  91.7974290  49.8987610  97.1588770
  90.5772100  50.6227930  97.6868170  97.5808740  51.8998000 100.7227050
  96.7683250  51.5254890 100.3822930  98.0850380  51.1443080 101.0248240
 102.0833720  48.5640450 101.9610120 102.6863090  49.1360660 102.4358640
 101.3426710  49.1279890 101.7384020 105.2268320  48.9662010  97.2350400
 105.4218950  49.8645460  97.5017830 104.4398190  48.7349090  97.7283350
  92.0229610  64.6475180  97.6743020  91.4977230  65.0283210  96.9704980
  91.9474190  65.2725950  98.3952730  93.4120080  50.3122780  96.2726710
  93.9412840  49.5252580  96.1434660  94.0448400  50.9913970  96.5062240
  95.6057920  50.0497920  99.3272100  94.9760660  49.3485230  99.4942230
  95.0663060  50.8102050  99.1105260 106.7794930  66.2062720  98.9956960
 106.9547120  65.5200460  98.3517880 106.0816500  66.7309770  98.6033630
  94.6222580  66.5957560  96.5492270  95.3541400  66.3116840  96.0016160
  94.8816250  66.3570840  97.4391650  93.7837370  62.7122290  96.5538600
  93.1546250  63.1807390  97.1024430  93.8985200  61.8671510  96.9884790
 101.2387090  56.7627950  82.7039800 101.1581140  55.8482560  82.4331510
 100.8251510  57.2595020  81.9979510  99.3705130  58.5406970  84.5849070
  98.5947230  58.0607410  84.8747640 100.0218060  57.8612620  84.4105230
  93.3870960  58.8526780  85.4624830  92.5555840  58.5975490  85.8621340
  93.9951940  58.9237550  86.1982750 103.3912560  62.9467160  83.3648200
 102.9294090  62.1754400  83.6935370 104.2038110  62.9733230  83.8700650
  93.3672220  62.8866870  85.6582850  93.6700260  61.9964610  85.4793070
  94.1115810  63.4437090  85.4305100  91.7962910  53.8128670  79.2467220
  90.9079610  54.1544640  79.1447100  92.0804100  53.6128990  78.3548050
  89.7595920  56.4134320  85.1306920  90.3312030  55.6456520  85.1310560
  89.7597460  56.7123080  84.2213530  99.6175870  65.2325170  82.9852190
  98.9987310  65.6882670  82.4146630 100.4727650  65.3876630  82.5841890
  98.8114120  61.2164160  84.5919230  98.7422400  60.2754100  84.4308360
  99.5733980  61.3065570  85.1641800  91.0020790  51.8218680  86.9175850
  90.8223630  50.9244430  87.1978610  90.6000870  52.3690550  87.5922800
  99.8419290  54.0234540  84.8188160 100.2184110  53.1506420  84.7061830
  99.7438800  54.3593240  83.9278600  93.9724300  52.3960170  80.2805600
  94.0791050  53.2963900  80.5874360  93.0616660  52.3478140  79.9900250
 103.6243410  51.5184980  81.7516500 104.4453030  51.0281550  81.7941980
 103.6577490  52.1082640  82.5048340  91.6207460  54.3179180  85.5258190
  92.3017570  54.5817550  86.1445590  91.3055510  53.4780050  85.8596200
  95.8132030  55.3646540  84.6130780  96.3210250  55.8627510  85.2535800
  96.3445270  54.5881740  84.4370140 107.9142960  53.5351730  88.3160130
 107.2095130  53.9233440  87.7975240 108.1800880  54.2302020  88.9181060
  94.0968130  50.0045100  88.8794200  94.0986570  50.5217490  88.0740100
  93.2672440  49.5275280  88.8564130 100.4839220  60.1164410  80.3784100
  99.8656490  60.5813860  79.8146820 100.9962470  60.8091890  80.7953610
  95.3470980  59.6440280  87.0567700  95.0140360  60.2709200  87.6988770
  95.5237660  60.1702160  86.2769370 103.8604890  53.4585360  84.5244040
 103.1560460  53.7470250  85.1047150 104.2217050  54.2685470  84.1643600
  93.7783460  51.7155060  86.8864650  94.1200270  52.5597110  86.5918520
  92.8399270  51.8638800  87.0029990  94.5590080  61.6121080  88.8716880
  95.1764080  62.2872160  88.5901330  93.6983200  62.0209060  88.7804380
  89.8522420  60.8020940  77.7523730  89.4750400  61.2908040  77.0208630
  90.1095490  61.4746220  78.3830260 105.4767670  63.0760490  86.7871520
 104.7931190  63.7459600  86.7788190 106.0161960  63.2741140  86.0216380
 106.9291810  52.9040150  84.9153250 105.9816720  52.9379130  85.0468680
 107.2541800  53.7179100  85.3002610  97.4611350  49.2037330  83.2109240
  97.7686330  48.6484220  82.4944740  96.5312050  49.3381790  83.0282230
 103.0126410  64.9204620  85.5016700 103.0253570  64.5166910  84.6338960
 102.4601630  65.6951910  85.3978130 104.3071830  61.6420840  80.5906870
 104.1968160  60.6995170  80.7156290 104.3040080  62.0036480  81.4769630
 102.4111850  59.8234460  86.8299310 102.8280640  59.6094570  85.9952770
 103.1351670  60.0807250  87.4007930  99.8492110  57.2686160  79.9469360
  98.9221390  57.2023540  80.1757830 100.0016930  58.2066290  79.8324600
  99.8361190  53.5403160  76.9436520  98.8964860  53.7017120  77.0288980
 100.1544450  54.2588840  76.3972510 106.3573950  58.2221680  86.9215550
 105.5292580  58.2914770  86.4465680 106.9524430  58.8075990  86.4531380
 103.8789400  58.8306460  80.4504610 103.2601820  58.4926010  79.8030910
 103.8613850  58.1866220  81.1583800 103.3215960  55.0091000  87.8670420
 102.9087140  55.8344710  88.1210410 102.5891910  54.4236040  87.6746780
  95.4548750  57.7950900  82.7289090  95.0505750  57.0828150  82.2334990
  95.5411870  57.4504140  83.6177130  95.9230450  61.4818460  84.8928300
  95.6258740  60.8763930  84.2136080  96.8730270  61.5195770  84.7817660
  94.1677370  54.5694110  86.5088130  94.7191960  54.6789450  85.7341380
  94.6820880  54.9431710  87.2243360 104.0116060  65.0550330  88.5551400
 103.5346620  65.8622520  88.3624010 103.3277850  64.4028660  88.7077610
  95.0148880  61.2200150  91.5436100  94.1177410  61.4440120  91.7909500
  95.0401750  61.3435090  90.5947500 102.0554100  58.0693270  77.4577360
 102.4947380  57.2315700  77.3115180 102.7682520  58.7022670  77.5441500
  93.8420100  58.0913470  90.1193470  93.7027870  58.9636270  90.4880870
  92.9601460  57.7486280  89.9741410 100.1649480  63.0089340  81.4258600
 100.6045390  63.7513670  81.0113990 100.1036370  63.2515910  82.3497560
  95.6400450  64.0335170  92.3278620  95.6115880  64.4378120  91.4607050
  95.4765420  63.1045530  92.1650220 105.6371240  49.3236080  75.7718400
 105.3243900  49.4162910  76.6717470 106.3983710  49.9017110  75.7215830
  92.1553380  56.6895880  80.2295740  92.0350980  57.4157970  79.6177010
  91.8454270  55.9198790  79.7523650 107.5915270  64.8162270  93.6242790
 108.0674990  65.2945160  94.3031870 108.2122430  64.7479760  92.8988290
  89.7938750  59.8611020  86.0364380  89.8719170  59.9959790  85.0920100
  90.4080430  59.1526910  86.2292500  91.0386380  61.5611210  82.4470560
  90.6314460  61.7025800  81.5924160  91.9299390  61.2771370  82.2441770
 106.9948520  62.0075120  90.7842800 107.1211580  61.7687000  89.8659980
 107.0369900  61.1759660  91.2564880 100.8565260  65.7103120  89.3537610
 101.3709930  65.6211130  90.1560040 100.0134340  66.0562820  89.6465520
 102.8319660  65.9958460  78.7821610 102.6720800  65.7061400  79.6803440
 102.6666370  65.2198590  78.2466840  95.3108040  65.7756990  80.5593230
  95.1350520  64.8592530  80.3461030  94.4563780  66.1344280  80.7991030
 102.5345790  63.5046020  77.3419610 101.8410950  63.5023310  76.6821890
 103.2768650  63.0805340  76.9113780 102.0995720  65.1308730  81.4168100
 102.5552670  64.3498110  81.7306720 102.4388240  65.8415550  81.9609280
 106.8472530  54.0607580  91.7492540 106.2316800  54.5687250  91.2208000
 106.5268950  53.1605910  91.6918480  89.8498270  60.9025190  88.5758840
  90.0129310  60.4330550  87.7578210  90.3150720  60.3948750  89.2407680
  94.6217040  50.0330950  83.6119410  94.1785190  50.8140490  83.2803930
  95.1802030  50.3560840  84.3190350  98.9086850  52.8999470  89.2154730
  98.4466220  53.1082490  90.0274670  98.5064960  52.0858820  88.9125400
 103.9091360  54.1208420  90.3451390 103.0584950  53.8214170  90.6660460
 103.7493150  54.3650430  89.4335210 101.0041070  55.6210170  92.4450180
 101.3294480  54.7873920  92.1052410 101.7921400  56.1438690  92.5928510
  97.7375860  49.6541650  78.4925240  97.1130040  49.6501520  79.2178550
  97.6505980  48.7872610  78.0961210  96.6592940  50.5778280  85.4709010
  96.9565270  51.4841110  85.3901030  97.2078500  50.0897060  84.8568580
  94.4131260  55.1564520  81.3400660  94.1872180  54.9401690  82.2447280
  93.6323790  55.5892980  80.9946630 101.6429020  55.1627890  79.9391310
 101.0437910  55.8863690  79.7554930 102.1908630  55.1004670  79.1567760
  96.8530470  56.0550100  92.0060930  96.7574070  55.1144830  91.8561330
  97.6962450  56.2765170  91.6109000 100.2493890  53.7991430  81.9694590
 100.6423460  54.1163630  81.1563280 100.6110740  52.9203310  82.0839110
  91.9841010  52.4663770  90.1594710  91.5904400  53.3138980  90.3667490
  91.2959410  51.8290140  90.3503350  98.5586060  52.5498740  93.2291450
  97.8684380  52.3570940  93.8637540  99.3018360  52.8333380  93.7615750
  89.2858060  50.3892230  84.1924790  88.9971110  50.9595090  84.9049770
  90.0303820  49.9096680  84.5556020  89.4728290  54.3312350  75.4027510
  89.3902960  55.2743110  75.5442500  89.1211350  54.1887260  74.5239860
 100.8349030  56.3897180  86.0645370 100.1030150  56.8983990  86.4135470
 100.4373370  55.5727160  85.7634150  97.2726420  53.0651380  84.4697860
  97.2762480  52.6241330  83.6202400  98.1677540  53.3868710  84.5769680
  93.1228800  52.9477870  83.4292070  92.7828850  53.4253100  84.1859120
  92.3606120  52.4942990  83.0693170  97.3346570  54.0663460  77.4604620
  97.4559390  54.0249940  78.4090440  96.9495080  54.9287610  77.3051350
 101.2974940  51.8430860  85.4768310 101.3147680  52.2939510  86.3210160
 101.0490520  50.9436500  85.6901750  96.3468070  56.3764600  76.8587920
  95.7784970  55.9282850  76.2323830  97.0557070  56.7357380  76.3253070
 104.7245690  49.2563040  91.3154690 105.0491460  48.5252700  91.8412670
 104.7602200  48.9376680  90.4135680  91.4237250  60.2776620  90.7354650
  91.0392040  59.6370290  91.3337610  91.7349440  60.9812740  91.3049380
  97.5734390  57.1253160  86.2163270  97.9404520  56.6511730  86.9624610
  97.3839450  57.9994730  86.5571610  90.4374880  51.8696850  82.3456740
  90.1521800  51.5052520  83.1835360  90.3753740  51.1377310  81.7319880
  95.3633760  56.1661800  88.5347480  95.0590830  57.0453780  88.7597840
  96.3180220  56.2261590  88.5704920  93.8915550  60.3722790  79.1314330
  93.1177810  59.8320410  78.9713050  94.6210180  59.8529400  78.7932090
 104.6503530  59.3688150  84.9240720 105.3702650  59.8643440  84.5336830
 104.4485350  58.6906040  84.2794590 100.1113470  50.7626110  79.0670110
  99.2978080  50.2639280  78.9915420  99.9175420  51.6024360  78.6506460
 100.0322330  59.4397210  90.8109720  99.9659640  58.5192880  90.5567310
  99.4027470  59.5372650  91.5254360 102.8261860  55.1345760  77.3632270
 103.7141480  55.4462990  77.1883610 102.7966950  54.2618010  76.9712850
  93.9352950  60.0403170  82.7693140  94.4531620  59.2371430  82.7150030
  93.4836970  59.9782310  83.6109970  98.8222450  61.3069450  78.0420440
  99.1638150  62.0511680  77.5463760  97.9935160  61.6200570  78.4045270
  91.4197490  57.0064540  89.6818840  91.0612430  57.6718390  90.2692180
  91.1252050  56.1748090  90.0531460  94.6210610  57.4648780  92.5658390
  94.3210750  57.6105960  91.6686210  95.3921850  56.9054070  92.4731780
  99.9639060  62.2617780  90.5613520  99.9783600  61.3298740  90.3432430
  99.2564160  62.3477540  91.2003290 105.0976130  56.4457600  76.8312130
 105.0139850  56.8771820  75.9808570 105.8170320  56.9055950  77.2638950
 106.1750270  58.9025120  89.9082100 105.4498460  59.4953900  89.7111490
 106.7025730  58.8948660  89.1095470 106.1263380  63.2999860  79.5594260
 105.4839540  62.6455480  79.8337980 105.7394040  63.7054950  78.7834930
 101.7049860  60.6285290  83.4065950 102.0573680  60.0313420  82.7467320
 100.8212190  60.3029520  83.5774200  97.7913140  61.3882980  80.8136360
  98.4784270  61.9352190  81.1943950  97.0045560  61.9323710  80.8485970
  89.9305540  57.0055800  76.3053440  90.8000390  57.2880600  76.5889360
  89.4395860  57.8191670  76.1902250  97.0940350  58.3929010  80.4261720
  97.5503130  59.2034260  80.6521910  96.7428560  58.0752150  81.2580210
  99.3972960  63.9035350  87.6554020 100.0415180  64.1094730  88.3327440
  99.7602400  63.1423750  87.2024870  92.9952130  48.7366660  80.8984240
  92.8666760  48.7284560  81.8469160  92.1714150  49.0749750  80.5475250
 100.6705040  61.9067700  86.3731470 101.3127270  61.2060860  86.4863640
 101.1954390  62.6866140  86.1928360 104.5160760  62.1916320  76.0970610
 104.2898340  61.4746760  76.6895250 104.1256960  61.9428760  75.2592360
 102.4442660  62.7062600  89.5767530 102.7798900  63.2929290  90.2545450
 101.5243000  62.5755310  89.8065320  90.2976790  66.2183180  76.8715070
  90.6574430  66.8172520  76.2172340  90.1569130  66.7643070  77.6450100
  89.9946060  50.4957780  90.3590940  89.2804580  50.6954700  90.9643550
  90.4141100  49.7197350  90.7305740 104.0977010  60.1088260  77.7584770
 103.8098710  60.5700950  78.5462650 104.8929180  59.6486030  78.0268990
  90.2818650  64.4838040  91.3457470  90.3909770  63.5432780  91.2052860
  89.6299210  64.7492790  90.6971200  98.2731240  62.7553930  92.7455590
  97.9528110  62.0363170  93.2901280  97.5989600  63.4309000  92.8191650
  96.3145410  63.6014380  77.6888740  96.3055510  64.3344070  77.0733250
  95.3943770  63.3545960  77.7815700  91.9152050  58.8229270  78.4335500
  91.3080000  59.5628170  78.4430800  92.3901400  58.9128630  77.6073700
 101.4884840  52.9880090  88.1092390 101.8565660  52.1675300  88.4371960
 100.6283040  53.0481980  88.5248040 104.8546870  51.9437030  78.9179950
 104.2260030  52.0482700  78.2038180 104.3598790  52.1633810  79.7073830
  99.3005010  63.6642620  76.3513930  99.4016990  63.4606610  75.4215910
  98.4006750  63.4100900  76.5561710  96.8230900  54.2222980  80.3337830
  96.1147050  54.6909320  80.7751440  97.1075380  53.5644990  80.9683020
  98.4486830  55.6419680  88.3330360  98.9472080  56.1165500  88.9982210
  98.5909780  54.7183200  88.5400390 100.8546330  50.9473640  81.7733620
 100.7314110  50.9659770  80.8243130 101.8030890  50.9952580  81.8932020
  97.9423120  66.1828940  81.0461600  98.1964620  66.1450330  80.1240970
  96.9935600  66.0562270  81.0389850  95.0265920  52.5308060  77.7088540
  95.8756450  52.9678210  77.6428730  94.6597190  52.8428320  78.5360600
 105.6553690  51.8587640  89.1758750 105.1527290  52.5993040  89.5152560
 106.4710350  52.2471640  88.8595540 103.9475700  57.1020820  82.6220110
 103.0065840  57.1171050  82.7967800 104.2619770  56.3156780  83.0680410
  93.9257340  58.7840420  76.1824070  94.6920610  58.6721780  76.7449500
  94.0032030  58.0878390  75.5300840  92.6204100  56.2165490  76.8656960
  92.7007690  55.2693000  76.9774360  93.5123850  56.5472370  76.9717620
 105.9501280  64.2729670  84.2974370 106.0748700  65.0960840  84.7698180
 106.8166840  64.0620400  83.9498520  93.4218810  66.3660880  83.9691500
  94.1581290  65.8176340  84.2400070  93.8059730  67.2316890  83.8297490
  90.3064290  62.4334450  79.8433010  89.3804070  62.6755590  79.8338420
  90.7720720  63.2608710  79.7217760  92.4277090  65.5506950  93.1577080
  93.2289820  65.8719000  93.5712480  91.9128910  65.1902530  93.8796990
  96.5321120  65.5391190  75.7917070  97.3249730  65.8280020  75.3398860
  96.0125470  65.1083360  75.1129550 101.2641720  61.6586820  93.1052490
 100.6579880  61.6818420  92.3648240 100.9595830  60.9269860  93.6419740
 102.6942090  65.3867110  91.7161900 103.6463840  65.3025130  91.6662140
 102.5470310  66.0508820  92.3895690 105.5851290  64.7661320  77.2153810
 105.2992800  64.3526460  76.4007990 105.3870840  65.6949030  77.0954330
  90.1474900  58.0380410  92.1013130  90.6513920  57.4587690  92.6729360
  89.4082320  58.3220640  92.6389500  97.0498520  60.7594600  75.6559420
  96.9449160  60.1446950  76.3820800  96.8822740  60.2360490  74.8722430
  97.2012840  59.4451400  91.6348650  96.4358510  60.0136400  91.5503320
  97.3828800  59.1527610  90.7416880 100.2901250  59.8214630  76.2601410
  99.7411350  60.2683930  76.9044150 100.9120510  59.3163880  76.7839080
 104.3436190  61.1756730  92.1923670 105.0845660  61.5132490  91.6891130
 103.5808870  61.3448790  91.6393440  92.1797980  56.1810000  92.9963200
  92.2203320  55.8823870  93.9048430  93.0343480  56.5817610  92.8370720
  95.9576370  58.7805550  78.1566710  96.3792790  58.6145420  78.9998100
  96.0827210  57.9705780  77.6621850  94.1203790  54.7602100  90.9637690
  93.5900250  54.2693050  90.3361030  94.7891860  55.1886300  90.4295620
  98.4704010  57.8043160  75.4043810  98.9909670  57.0892180  75.0384960
  99.1172410  58.4429030  75.7044320 103.0181850  59.2271560  90.7278880
 103.4322870  59.3816640  91.5769300 102.0832850  59.3526780  90.8904660
 103.4904020  56.5667720  92.7318030 104.0724790  55.8120040  92.6438510
 103.6665790  57.0975160  91.9549510  94.6076090  51.7264470  91.0434980
  94.5132960  51.1085220  90.3185850  94.0273480  52.4530760  90.8164890
  97.3737530  50.2837710  88.0762370  96.9254830  50.3061970  87.2307920
  96.7402730  49.8856730  88.6732670  97.7797080  59.1792040  88.6974810
  98.1985190  60.0224770  88.5251050  96.8605710  59.3164080  88.4681590
 100.1160980  56.9108220  90.0812650 100.2357190  56.3149360  90.8207490
 100.9754980  56.9477910  89.6613950 102.4548880  57.4645410  88.6575160
 101.9284100  57.9888030  88.0540300 102.7980220  58.0972800  89.2884890
  94.8535270  54.8538780  75.1024870  94.6524330  53.9906140  75.4638210
  94.6827320  54.7672140  74.1646470  95.6304500  65.4845050  89.8132540
  95.0925590  66.2091110  89.4941240  95.8838460  65.0075390  89.0229880
  96.8829750  53.4529570  91.3388470  97.4729440  53.1445420  92.0266290
  96.0649990  52.9809320  91.4948370 101.7023180  53.0695380  91.5721490
 101.0138700  52.4076920  91.5071480 102.4229200  52.6233650  92.0169950
 102.3323580  49.6647010  77.6311750 102.6125870  48.8214910  77.9871170
 101.5589310  49.8970120  78.1450500  93.6518070  51.9539400  75.0902750
  93.9543970  51.9606830  74.1821900  94.3912660  51.6037260  75.5870410
  98.4866710  66.7196260  90.0719190  98.4125410  67.6231400  90.3791560
  97.5845550  66.4008160  90.0441260  96.8703000  50.8974020  76.0758950
  96.5225000  50.2198010  75.4961400  97.0715770  50.4363530  76.8902340
  99.0352040  65.8854770  77.6945550  99.9302830  66.2239740  77.7164310
  99.0669670  65.1634180  77.0669830  92.6748200  61.2581820  75.9232550
  93.1123070  61.8011490  76.5790130  93.1595930  60.4328770  75.9328890
  89.8894000  64.0470850  83.3752810  90.2197010  63.1791910  83.1431450
  90.3185000  64.2529370  84.2057770  94.4855920  62.3779860  81.0354780
  94.1851460  62.2544830  81.9358690  94.3793410  61.5188450  80.6270510
  90.3784210  64.9141440  86.1134440  89.9415200  65.0942240  86.9458590
  90.9461890  65.6716060  85.9716160 106.0146390  64.4158440  90.4011750
 105.4148380  64.4751000  89.6575670 106.1440290  63.4763420  90.5308600
 107.2547840  62.1576260  75.7381460 106.4240800  62.2252910  76.2088690
 107.4319670  63.0480380  75.4348320 106.7104300  58.9023740  78.2415660
 107.4723210  59.4720390  78.3475350 106.7258670  58.3350940  79.0123970
  90.2108640  57.4261670  82.4723320  89.5557480  57.1573310  81.8283020
  91.0486590  57.3166150  82.0225300 107.7164270  59.7573840  83.0857590
 108.0873100  58.9741160  82.6793560 108.3566200  60.4462940  82.9074890
 104.6998030  61.1410420  88.4987910 103.8857870  61.5707580  88.7613700
 105.1072230  61.7528830  87.8856960 106.7623470  59.1958110  75.3988180
 107.0372310  60.1036990  75.2707400 106.5734210  59.1320640  76.3350170
 103.1599080  52.2202960  76.6941810 103.5783960  52.0333940  75.8538470
 102.8535140  51.3682010  77.0044740 106.6588810  57.1327100  80.3917610
 106.2832410  56.3655030  79.9598900 105.9291930  57.5149800  80.8792540
  91.2484570  57.8114240  87.0126660  91.6157610  57.7241640  87.8922680
  90.6795390  57.0480790  86.9133520 106.0488430  56.2798620  90.0257130
 105.8174520  56.0511370  89.1255080 106.3092980  57.1998170  89.9802020
  90.8000570  54.7223330  90.9185080  89.9056620  54.6890090  91.2578790
  91.3398120  54.9210120  91.6836330 104.4876500  51.5055050  92.8036830
 105.3646680  51.5138450  93.1870830 104.4997340  50.7685890  92.1929180
  89.4246720  54.6360600  78.4148650  88.5210800  54.8990800  78.2400310
  89.9087340  54.9071770  77.6348610 105.9339770  55.3584590  83.6924850
 106.4577250  54.8647240  83.0615020 106.5199190  55.4934950  84.4372420
 106.1129490  55.4424460  87.2144400 105.1632200  55.4088000  87.3289390
 106.2942500  56.3524570  86.9794170  91.9673930  53.6926140  76.3243030
  92.6765630  53.2709360  75.8390310  91.2513870  53.7601370  75.6926380
 105.4239740  54.6157940  79.6317260 105.9198860  54.3828810  80.4166140
 105.2255810  53.7769780  79.2154900  91.3040280  48.9971660  85.2668300
  91.9516470  48.4469040  84.8263460  91.7242120  49.2514810  86.0884110
 106.8526900  53.2518890  82.1654940 106.7426180  53.0974930  83.1037210
 107.6134490  52.7239830  81.9230350 105.1992620  49.1913020  88.6237940
 105.8364840  49.8047160  88.9897130 105.3467510  49.2273680  87.6787170
 107.7417170  51.0826810  75.4061080 108.6666480  50.9507990  75.1979370
 107.7192960  51.1619630  76.3597530 107.8155660  51.8537470  78.0317790
 107.0207160  51.7882590  78.5610700 108.0198940  52.7888110  78.0203140
 104.7574080  65.8929020  82.0256180 105.3533150  65.5713590  81.3490600
 105.0152230  65.4200840  82.8169450  91.0572280  49.1527330  88.0093620
  90.7087100  49.6091150  88.7751800  90.7259980  48.2584460  88.0916050
  92.6636650  62.3246930  92.1746810  92.6206280  61.9539840  93.0561270
  92.7947660  63.2624500  92.3148630  96.3642680  63.8806520  87.7756530
  96.1234040  64.1481080  86.8887050  97.3045320  64.0512250  87.8307390
  98.5697100  50.3439210  91.5313040  98.5085990  50.9361040  92.2808450
  99.5097480  50.2365170  91.3863300 101.2071660  50.0009270  91.1705330
 101.8212070  50.3188560  90.5086410 101.7521220  49.5157860  91.7901190
 107.6246840  65.9000900  88.5767170 107.1305120  66.2969770  87.8594300
 107.0160130  65.2750110  88.9704450  91.7292920  48.6803530  91.2844390
  92.2775910  48.4991580  90.5210500  91.7948230  47.8897640  91.8200700
  92.5024680  65.2709180  89.2944590  91.9085000  65.1393880  90.0334630
  92.4948520  64.4347320  88.8286690 101.9479700  48.5641410  87.4974620
 101.0739540  48.8976520  87.2947550 101.8390450  48.0914590  88.3226490
 102.8551680  50.7712280  88.8816340 102.5265040  49.9564040  88.5018070
 103.8033980  50.7282090  88.7582030 105.3086290  66.5424320  85.8553910
 104.8489260  67.2940130  85.4811930 104.6798750  65.8230790  85.7968710
  92.1336910  62.6367560  88.2452630  91.4070970  62.0172850  88.1778580
  92.1946060  63.0308170  87.3750710  95.7382010  64.8512560  85.0302040
  96.2547030  64.2399920  84.5050300  96.3879390  65.3541340  85.5213050
  98.4777510  65.7421050  85.8571020  98.7655320  65.4875350  84.9804030
  98.9900730  65.1898410  86.4476590  99.6954520  49.4811250  86.4367530
  98.9126310  49.9556750  86.7164290  99.4017450  48.5766080  86.3280710
 104.2475590  50.1834350  84.4816620 104.6883680  50.1279450  83.6338220
 103.9783180  51.0992360  84.5526800 106.1114160  49.8149590  82.4925440
 106.0502560  48.8710810  82.3456460 106.8906190  49.9229680  83.0378900
  90.4166910  65.9541950  81.4549390  90.2488950  65.3212630  82.1531280
  89.5501420  66.1601350  81.1043580  91.0394930  49.7858730  78.9581250
  91.7974290  49.8987610  78.3845280  90.5772100  50.6227930  78.9124680
  97.5808740  51.8998000  81.9483560  96.7683250  51.5254890  81.6079440
  98.0850380  51.1443080  82.2504750 102.0833720  48.5640450  83.1866630
 102.6863090  49.1360660  83.6615150 101.3426710  49.1279890  82.9640530
 105.2268320  48.9662010  78.4606910 105.4218950  49.8645460  78.7274340
 104.4398190  48.7349090  78.9539860  92.0229610  64.6475180  78.8999530
  91.4977230  65.0283210  78.1961490  91.9474190  65.2725950  79.6209240
  93.4120080  50.3122780  77.4983220  93.9412840  49.5252580  77.3691170
  94.0448400  50.9913970  77.7318750  95.6057920  50.0497920  80.5528610
  94.9760660  49.3485230  80.7198740  95.0663060  50.8102050  80.3361770
  98.5449870  66.6637150  93.2239220  99.4717180  66.4281420  93.2675180
  98.5300300  67.4909150  92.7425250 106.7794930  66.2062720  80.2213470
 106.9547120  65.5200460  79.5774390 106.0816500  66.7309770  79.8290140
  95.7313480  49.3281900  92.9881100  95.4497750  49.8315500  92.2241920
  96.1133180  48.5303650  92.6223230  94.6222580  66.5957560  77.7748780
  95.3541400  66.3116840  77.2272670  94.8816250  66.3570840  78.6648160
  93.7837370  62.7122290  77.7795110  93.1546250  63.1807390  78.3280940
  93.8985200  61.8671510  78.2141300 102.3328940  48.7435480  93.5661570
 102.2194390  49.0630090  94.4613090 103.1498680  49.1447990  93.2698850
 105.1127430  65.8907010  93.0480260 105.9052750  65.3956240  92.8406220
 105.4060580  66.5697150  93.6555870  99.6175870  65.2325170  64.2108700
  98.9987310  65.6882670  63.6403140 100.4727650  65.3876630  63.8098400
  99.8419290  54.0234540  66.0444670 100.2184110  53.1506420  65.9318340
  99.7438800  54.3593240  65.1535110 103.6243410  51.5184980  62.9773010
 104.4453030  51.0281550  63.0198490 103.6577490  52.1082640  63.7304850
  91.6207460  54.3179180  66.7514700  92.3017570  54.5817550  67.3702100
  91.3055510  53.4780050  67.0852710  95.8132030  55.3646540  65.8387290
  96.3210250  55.8627510  66.4792310  96.3445270  54.5881740  65.6626650
 107.9142960  53.5351730  69.5416640 107.2095130  53.9233440  69.0231750
 108.1800880  54.2302020  70.1437570  94.0968130  50.0045100  70.1050710
  94.0986570  50.5217490  69.2996610  93.2672440  49.5275280  70.0820640
 103.8604890  53.4585360  65.7500550 103.1560460  53.7470250  66.3303660
 104.2217050  54.2685470  65.3900110  93.7783460  51.7155060  68.1121160
  94.1200270  52.5597110  67.8175030  92.8399270  51.8638800  68.2286500
  94.5590080  61.6121080  70.0973390  95.1764080  62.2872160  69.8157840
  93.6983200  62.0209060  70.0060890 105.4767670  63.0760490  68.0128030
 104.7931190  63.7459600  68.0044700 106.0161960  63.2741140  67.2472890
 106.9291810  52.9040150  66.1409760 105.9816720  52.9379130  66.2725190
 107.2541800  53.7179100  66.5259120  97.4611350  49.2037330  64.4365750
  97.7686330  48.6484220  63.7201250  96.5312050  49.3381790  64.2538740
 103.0126410  64.9204620  66.7273210 103.0253570  64.5166910  65.8595470
 102.4601630  65.6951910  66.6234640 102.4111850  59.8234460  68.0555820
 102.8280640  59.6094570  67.2209280 103.1351670  60.0807250  68.6264440
 106.3573950  58.2221680  68.1472060 105.5292580  58.2914770  67.6722190
 106.9524430  58.8075990  67.6787890 103.3215960  55.0091000  69.0926930
 102.9087140  55.8344710  69.3466920 102.5891910  54.4236040  68.9003290
  94.1677370  54.5694110  67.7344640  94.7191960  54.6789450  66.9597890
  94.6820880  54.9431710  68.4499870 104.0116060  65.0550330  69.7807910
 103.5346620  65.8622520  69.5880520 103.3277850  64.4028660  69.9334120
  95.0148880  61.2200150  72.7692610  94.1177410  61.4440120  73.0166010
  95.0401750  61.3435090  71.8204010  93.8420100  58.0913470  71.3449980
  93.7027870  58.9636270  71.7137380  92.9601460  57.7486280  71.1997920
  95.6400450  64.0335170  73.5535130  95.6115880  64.4378120  72.6863560
  95.4765420  63.1045530  73.3906730 105.6371240  49.3236080  56.9974910
 105.3243900  49.4162910  57.8973980 106.3983710  49.9017110  56.9472340
 107.5915270  64.8162270  74.8499300 108.0674990  65.2945160  75.5288380
 108.2122430  64.7479760  74.1244800  89.7938750  59.8611020  67.2620890
  89.8719170  59.9959790  66.3176610  90.4080430  59.1526910  67.4549010
 106.9948520  62.0075120  72.0099310 107.1211580  61.7687000  71.0916490
 107.0369900  61.1759660  72.4821390 100.8565260  65.7103120  70.5794120
 101.3709930  65.6211130  71.3816550 100.0134340  66.0562820  70.8722030
 102.8319660  65.9958460  60.0078120 102.6720800  65.7061400  60.9059950
 102.6666370  65.2198590  59.4723350  95.3108040  65.7756990  61.7849740
  95.1350520  64.8592530  61.5717540  94.4563780  66.1344280  62.0247540
 102.5345790  63.5046020  58.5676120 101.8410950  63.5023310  57.9078400
 103.2768650  63.0805340  58.1370290 102.0995720  65.1308730  62.6424610
 102.5552670  64.3498110  62.9563230 102.4388240  65.8415550  63.1865790
 106.8472530  54.0607580  72.9749050 106.2316800  54.5687250  72.4464510
 106.5268950  53.1605910  72.9174990  89.8498270  60.9025190  69.8015350
  90.0129310  60.4330550  68.9834720  90.3150720  60.3948750  70.4664190
  94.6217040  50.0330950  64.8375920  94.1785190  50.8140490  64.5060440
  95.1802030  50.3560840  65.5446860  98.9086850  52.8999470  70.4411240
  98.4466220  53.1082490  71.2531180  98.5064960  52.0858820  70.1381910
 103.9091360  54.1208420  71.5707900 103.0584950  53.8214170  71.8916970
 103.7493150  54.3650430  70.6591720 101.0041070  55.6210170  73.6706690
 101.3294480  54.7873920  73.3308920 101.7921400  56.1438690  73.8185020
  96.6592940  50.5778280  66.6965520  96.9565270  51.4841110  66.6157540
  97.2078500  50.0897060  66.0825090  96.8530470  56.0550100  73.2317440
  96.7574070  55.1144830  73.0817840  97.6962450  56.2765170  72.8365510
 100.2493890  53.7991430  63.1951100 100.6423460  54.1163630  62.3819790
 100.6110740  52.9203310  63.3095620  98.5586060  52.5498740  74.4547960
  97.8684380  52.3570940  75.0894050  99.3018360  52.8333380  74.9872260
 100.8349030  56.3897180  67.2901880 100.1030150  56.8983990  67.6391980
 100.4373370  55.5727160  66.9890660  97.2726420  53.0651380  65.6954370
  97.2762480  52.6241330  64.8458910  98.1677540  53.3868710  65.8026190
  93.1228800  52.9477870  64.6548580  92.7828850  53.4253100  65.4115630
  92.3606120  52.4942990  64.2949680 101.2974940  51.8430860  66.7024820
 101.3147680  52.2939510  67.5466670 101.0490520  50.9436500  66.9158260
 104.7245690  49.2563040  72.5411200 105.0491460  48.5252700  73.0669180
 104.7602200  48.9376680  71.6392190  91.4237250  60.2776620  71.9611160
  91.0392040  59.6370290  72.5594120  91.7349440  60.9812740  72.5305890
  97.5734390  57.1253160  67.4419780  97.9404520  56.6511730  68.1881120
  97.3839450  57.9994730  67.7828120  95.3633760  56.1661800  69.7603990
  95.0590830  57.0453780  69.9854350  96.3180220  56.2261590  69.7961430
 104.6503530  59.3688150  66.1497230 105.3702650  59.8643440  65.7593340
 104.4485350  58.6906040  65.5051100  91.4197490  57.0064540  70.9075350
  91.0612430  57.6718390  71.4948690  91.1252050  56.1748090  71.2787970
  94.6210610  57.4648780  73.7914900  94.3210750  57.6105960  72.8942720
  95.3921850  56.9054070  73.6988290 106.1750270  58.9025120  71.1338610
 105.4498460  59.4953900  70.9368000 106.7025730  58.8948660  70.3351980
 106.1263380  63.2999860  60.7850770 105.4839540  62.6455480  61.0594490
 105.7394040  63.7054950  60.0091440  99.3972960  63.9035350  68.8810530
 100.0415180  64.1094730  69.5583950  99.7602400  63.1423750  68.4281380
 102.4442660  62.7062600  70.8024040 102.7798900  63.2929290  71.4801960
 101.5243000  62.5755310  71.0321830  90.2976790  66.2183180  58.0971580
  90.6574430  66.8172520  57.4428850  90.1569130  66.7643070  58.8706610
  98.2731240  62.7553930  73.9712100  97.9528110  62.0363170  74.5157790
  97.5989600  63.4309000  74.0448160  96.3145410  63.6014380  58.9145250
  96.3055510  64.3344070  58.2989760  95.3943770  63.3545960  59.0072210
 101.4884840  52.9880090  69.3348900 101.8565660  52.1675300  69.6628470
 100.6283040  53.0481980  69.7504550  98.4486830  55.6419680  69.5586870
  98.9472080  56.1165500  70.2238720  98.5909780  54.7183200  69.7656900
 100.8546330  50.9473640  62.9990130 100.7314110  50.9659770  62.0499640
 101.8030890  50.9952580  63.1188530  97.9423120  66.1828940  62.2718110
  98.1964620  66.1450330  61.3497480  96.9935600  66.0562270  62.2646360
 105.6553690  51.8587640  70.4015260 105.1527290  52.5993040  70.7409070
 106.4710350  52.2471640  70.0852050 105.9501280  64.2729670  65.5230880
 106.0748700  65.0960840  65.9954690 106.8166840  64.0620400  65.1755030
  93.4218810  66.3660880  65.1948010  94.1581290  65.8176340  65.4656580
  93.8059730  67.2316890  65.0554000  92.4277090  65.5506950  74.3833590
  93.2289820  65.8719000  74.7968990  91.9128910  65.1902530  75.1053500
 101.2641720  61.6586820  74.3309000 100.6579880  61.6818420  73.5904750
 100.9595830  60.9269860  74.8676250 102.6942090  65.3867110  72.9418410
 103.6463840  65.3025130  72.8918650 102.5470310  66.0508820  73.6152200
 105.5851290  64.7661320  58.4410320 105.2992800  64.3526460  57.6264500
 105.3870840  65.6949030  58.3210840  90.1474900  58.0380410  73.3269640
  90.6513920  57.4587690  73.8985870  89.4082320  58.3220640  73.8646010
  97.2012840  59.4451400  72.8605160  96.4358510  60.0136400  72.7759830
  97.3828800  59.1527610  71.9673390 104.3436190  61.1756730  73.4180180
 105.0845660  61.5132490  72.9147640 103.5808870  61.3448790  72.8649950
  92.1797980  56.1810000  74.2219710  92.2203320  55.8823870  75.1304940
  93.0343480  56.5817610  74.0627230  94.1203790  54.7602100  72.1894200
  93.5900250  54.2693050  71.5617540  94.7891860  55.1886300  71.6552130
 103.0181850  59.2271560  71.9535390 103.4322870  59.3816640  72.8025810
 102.0832850  59.3526780  72.1161170 103.4904020  56.5667720  73.9574540
 104.0724790  55.8120040  73.8695020 103.6665790  57.0975160  73.1806020
  94.6076090  51.7264470  72.2691490  94.5132960  51.1085220  71.5442360
  94.0273480  52.4530760  72.0421400  97.3737530  50.2837710  69.3018880
  96.9254830  50.3061970  68.4564430  96.7402730  49.8856730  69.8989180
 100.1160980  56.9108220  71.3069160 100.2357190  56.3149360  72.0464000
 100.9754980  56.9477910  70.8870460 102.4548880  57.4645410  69.8831670
 101.9284100  57.9888030  69.2796810 102.7980220  58.0972800  70.5141400
  95.6304500  65.4845050  71.0389050  95.0925590  66.2091110  70.7197750
  95.8838460  65.0075390  70.2486390  96.8829750  53.4529570  72.5644980
  97.4729440  53.1445420  73.2522800  96.0649990  52.9809320  72.7204880
 101.7023180  53.0695380  72.7978000 101.0138700  52.4076920  72.7327990
 102.4229200  52.6233650  73.2426460 102.3323580  49.6647010  58.8568260
 102.6125870  48.8214910  59.2127680 101.5589310  49.8970120  59.3707010
  98.4866710  66.7196260  71.2975700  98.4125410  67.6231400  71.6048070
  97.5845550  66.4008160  71.2697770  99.0352040  65.8854770  58.9202060
  99.9302830  66.2239740  58.9420820  99.0669670  65.1634180  58.2926340
  90.3784210  64.9141440  67.3390950  89.9415200  65.0942240  68.1715100
  90.9461890  65.6716060  67.1972670 106.0146390  64.4158440  71.6268260
 105.4148380  64.4751000  70.8832180 106.1440290  63.4763420  71.7565110
 107.2547840  62.1576260  56.9637970 106.4240800  62.2252910  57.4345200
 107.4319670  63.0480380  56.6604830 107.7164270  59.7573840  64.3114100
 108.0873100  58.9741160  63.9050070 108.3566200  60.4462940  64.1331400
 104.6998030  61.1410420  69.7244420 103.8857870  61.5707580  69.9870210
 105.1072230  61.7528830  69.1113470  91.2484570  57.8114240  68.2383170
  91.6157610  57.7241640  69.1179190  90.6795390  57.0480790  68.1390030
 106.0488430  56.2798620  71.2513640 105.8174520  56.0511370  70.3511590
 106.3092980  57.1998170  71.2058530 104.4876500  51.5055050  74.0293340
 105.3646680  51.5138450  74.4127340 104.4997340  50.7685890  73.4185690
 106.1129490  55.4424460  68.4400910 105.1632200  55.4088000  68.5545900
 106.2942500  56.3524570  68.2050680 105.1992620  49.1913020  69.8494450
 105.8364840  49.8047160  70.2153640 105.3467510  49.2273680  68.9043680
 104.7574080  65.8929020  63.2512690 105.3533150  65.5713590  62.5747110
 105.0152230  65.4200840  64.0425960  92.6636650  62.3246930  73.4003320
  92.6206280  61.9539840  74.2817780  92.7947660  63.2624500  73.5405140
  96.3642680  63.8806520  69.0013040  96.1234040  64.1481080  68.1143560
  97.3045320  64.0512250  69.0563900  98.5697100  50.3439210  72.7569550
  98.5085990  50.9361040  73.5064960  99.5097480  50.2365170  72.6119810
 101.2071660  50.0009270  72.3961840 101.8212070  50.3188560  71.7342920
 101.7521220  49.5157860  73.0157700 107.6246840  65.9000900  69.8023680
 107.1305120  66.2969770  69.0850810 107.0160130  65.2750110  70.1960960
  92.5024680  65.2709180  70.5201100  91.9085000  65.1393880  71.2591140
  92.4948520  64.4347320  70.0543200 101.9479700  48.5641410  68.7231130
 101.0739540  48.8976520  68.5204060 101.8390450  48.0914590  69.5483000
 102.8551680  50.7712280  70.1072850 102.5265040  49.9564040  69.7274580
 103.8033980  50.7282090  69.9838540 105.3086290  66.5424320  67.0810420
 104.8489260  67.2940130  66.7068440 104.6798750  65.8230790  67.0225220
  92.1336910  62.6367560  69.4709140  91.4070970  62.0172850  69.4035090
  92.1946060  63.0308170  68.6007220  98.4777510  65.7421050  67.0827530
  98.7655320  65.4875350  66.2060540  98.9900730  65.1898410  67.6733100
  99.6954520  49.4811250  67.6624040  98.9126310  49.9556750  67.9420800
  99.4017450  48.5766080  67.5537220 104.2475590  50.1834350  65.7073130
 104.6883680  50.1279450  64.8594730 103.9783180  51.0992360  65.7783310
 106.1114160  49.8149590  63.7181950 106.0502560  48.8710810  63.5712970
 106.8906190  49.9229680  64.2635410  90.4166910  65.9541950  62.6805900
  90.2488950  65.3212630  63.3787790  89.5501420  66.1601350  62.3300090
  97.5808740  51.8998000  63.1740070  96.7683250  51.5254890  62.8335950
  98.0850380  51.1443080  63.4761260 102.0833720  48.5640450  64.4123140
 102.6863090  49.1360660  64.8871660 101.3426710  49.1279890  64.1897040
 105.2268320  48.9662010  59.6863420 105.4218950  49.8645460  59.9530850
 104.4398190  48.7349090  60.1796370  95.6057920  50.0497920  61.7785120
  94.9760660  49.3485230  61.9455250  95.0663060  50.8102050  61.5618280
  98.5449870  66.6637150  74.4495730  99.4717180  66.4281420  74.4931690
  98.5300300  67.4909150  73.9681760 106.7794930  66.2062720  61.4469980
 106.9547120  65.5200460  60.8030900 106.0816500  66.7309770  61.0546650
  95.7313480  49.3281900  74.2137610  95.4497750  49.8315500  73.4498430
  96.1133180  48.5303650  73.8479740  94.6222580  66.5957560  59.0005290
  95.3541400  66.3116840  58.4529180  94.8816250  66.3570840  59.8904670
 102.3328940  48.7435480  74.7918080 102.2194390  49.0630090  75.6869600
 103.1498680  49.1447990  74.4955360 105.1127430  65.8907010  74.2736770
 105.9052750  65.3956240  74.0662730 105.4060580  66.5697150  74.8812380
 101.2387090  56.7627950  45.1552820 101.1581140  55.8482560  44.8844530
 100.8251510  57.2595020  44.4492530  99.3705130  58.5406970  47.0362090
  98.5947230  58.0607410  47.3260660 100.0218060  57.8612620  46.8618250
 103.3912560  62.9467160  45.8161220 102.9294090  62.1754400  46.1448390
 104.2038110  62.9733230  46.3213670  91.7962910  53.8128670  41.6980240
  90.9079610  54.1544640  41.5960120  92.0804100  53.6128990  40.8061070
  99.6175870  65.2325170  45.4365210  98.9987310  65.6882670  44.8659650
 100.4727650  65.3876630  45.0354910  99.8419290  54.0234540  47.2701180
 100.2184110  53.1506420  47.1574850  99.7438800  54.3593240  46.3791620
  93.9724300  52.3960170  42.7318620  94.0791050  53.2963900  43.0387380
  93.0616660  52.3478140  42.4413270 103.6243410  51.5184980  44.2029520
 104.4453030  51.0281550  44.2455000 103.6577490  52.1082640  44.9561360
 107.9142960  53.5351730  50.7673150 107.2095130  53.9233440  50.2488260
 108.1800880  54.2302020  51.3694080 100.4839220  60.1164410  42.8297120
  99.8656490  60.5813860  42.2659840 100.9962470  60.8091890  43.2466630
 103.8604890  53.4585360  46.9757060 103.1560460  53.7470250  47.5560170
 104.2217050  54.2685470  46.6156620  89.8522420  60.8020940  40.2036750
  89.4750400  61.2908040  39.4721650  90.1095490  61.4746220  40.8343280
 105.4767670  63.0760490  49.2384540 104.7931190  63.7459600  49.2301210
 106.0161960  63.2741140  48.4729400 106.9291810  52.9040150  47.3666270
 105.9816720  52.9379130  47.4981700 107.2541800  53.7179100  47.7515630
  97.4611350  49.2037330  45.6622260  97.7686330  48.6484220  44.9457760
  96.5312050  49.3381790  45.4795250 103.0126410  64.9204620  47.9529720
 103.0253570  64.5166910  47.0851980 102.4601630  65.6951910  47.8491150
 104.3071830  61.6420840  43.0419890 104.1968160  60.6995170  43.1669310
 104.3040080  62.0036480  43.9282650  99.8492110  57.2686160  42.3982380
  98.9221390  57.2023540  42.6270850 100.0016930  58.2066290  42.2837620
  99.8361190  53.5403160  39.3949540  98.8964860  53.7017120  39.4802000
 100.1544450  54.2588840  38.8485530 106.3573950  58.2221680  49.3728570
 105.5292580  58.2914770  48.8978700 106.9524430  58.8075990  48.9044400
 103.8789400  58.8306460  42.9017630 103.2601820  58.4926010  42.2543930
 103.8613850  58.1866220  43.6096820 103.3215960  55.0091000  50.3183440
 102.9087140  55.8344710  50.5723430 102.5891910  54.4236040  50.1259800
  95.4548750  57.7950900  45.1802110  95.0505750  57.0828150  44.6848010
  95.5411870  57.4504140  46.0690150 104.0116060  65.0550330  51.0064420
 103.5346620  65.8622520  50.8137030 103.3277850  64.4028660  51.1590630
 102.0554100  58.0693270  39.9090380 102.4947380  57.2315700  39.7628200
 102.7682520  58.7022670  39.9954520 100.1649480  63.0089340  43.8771620
 100.6045390  63.7513670  43.4627010 100.1036370  63.2515910  44.8010580
 105.6371240  49.3236080  38.2231420 105.3243900  49.4162910  39.1230490
 106.3983710  49.9017110  38.1728850  92.1553380  56.6895880  42.6808760
  92.0350980  57.4157970  42.0690030  91.8454270  55.9198790  42.2036670
 107.5915270  64.8162270  56.0755810 108.0674990  65.2945160  56.7544890
 108.2122430  64.7479760  55.3501310 106.9948520  62.0075120  53.2355820
 107.1211580  61.7687000  52.3173000 107.0369900  61.1759660  53.7077900
 102.8319660  65.9958460  41.2334630 102.6720800  65.7061400  42.1316460
 102.6666370  65.2198590  40.6979860  95.3108040  65.7756990  43.0106250
  95.1350520  64.8592530  42.7974050  94.4563780  66.1344280  43.2504050
 102.5345790  63.5046020  39.7932630 101.8410950  63.5023310  39.1334910
 103.2768650  63.0805340  39.3626800 102.0995720  65.1308730  43.8681120
 102.5552670  64.3498110  44.1819740 102.4388240  65.8415550  44.4122300
  94.6217040  50.0330950  46.0632430  94.1785190  50.8140490  45.7316950
  95.1802030  50.3560840  46.7703370  98.9086850  52.8999470  51.6667750
  98.4466220  53.1082490  52.4787690  98.5064960  52.0858820  51.3638420
  97.7375860  49.6541650  40.9438260  97.1130040  49.6501520  41.6691570
  97.6505980  48.7872610  40.5474230  96.6592940  50.5778280  47.9222030
  96.9565270  51.4841110  47.8414050  97.2078500  50.0897060  47.3081600
  94.4131260  55.1564520  43.7913680  94.1872180  54.9401690  44.6960300
  93.6323790  55.5892980  43.4459650 101.6429020  55.1627890  42.3904330
 101.0437910  55.8863690  42.2067950 102.1908630  55.1004670  41.6080780
 100.2493890  53.7991430  44.4207610 100.6423460  54.1163630  43.6076300
 100.6110740  52.9203310  44.5352130  89.4728290  54.3312350  37.8540530
  89.3902960  55.2743110  37.9955520  89.1211350  54.1887260  36.9752880
 100.8349030  56.3897180  48.5158390 100.1030150  56.8983990  48.8648490
 100.4373370  55.5727160  48.2147170  97.2726420  53.0651380  46.9210880
  97.2762480  52.6241330  46.0715420  98.1677540  53.3868710  47.0282700
  97.3346570  54.0663460  39.9117640  97.4559390  54.0249940  40.8603460
  96.9495080  54.9287610  39.7564370 101.2974940  51.8430860  47.9281330
 101.3147680  52.2939510  48.7723180 101.0490520  50.9436500  48.1414770
  96.3468070  56.3764600  39.3100940  95.7784970  55.9282850  38.6836850
  97.0557070  56.7357380  38.7766090 104.7245690  49.2563040  53.7667710
 105.0491460  48.5252700  54.2925690 104.7602200  48.9376680  52.8648700
  93.8915550  60.3722790  41.5827350  93.1177810  59.8320410  41.4226070
  94.6210180  59.8529400  41.2445110 104.6503530  59.3688150  47.3753740
 105.3702650  59.8643440  46.9849850 104.4485350  58.6906040  46.7307610
 100.1113470  50.7626110  41.5183130  99.2978080  50.2639280  41.4428440
  99.9175420  51.6024360  41.1019480 102.8261860  55.1345760  39.8145290
 103.7141480  55.4462990  39.6396630 102.7966950  54.2618010  39.4225870
  93.9352950  60.0403170  45.2206160  94.4531620  59.2371430  45.1663050
  93.4836970  59.9782310  46.0622990  98.8222450  61.3069450  40.4933460
  99.1638150  62.0511680  39.9976780  97.9935160  61.6200570  40.8558290
 105.0976130  56.4457600  39.2825150 105.0139850  56.8771820  38.4321590
 105.8170320  56.9055950  39.7151970 106.1750270  58.9025120  52.3595120
 105.4498460  59.4953900  52.1624510 106.7025730  58.8948660  51.5608490
 106.1263380  63.2999860  42.0107280 105.4839540  62.6455480  42.2851000
 105.7394040  63.7054950  41.2347950 101.7049860  60.6285290  45.8578970
 102.0573680  60.0313420  45.1980340 100.8212190  60.3029520  46.0287220
  97.7913140  61.3882980  43.2649380  98.4784270  61.9352190  43.6456970
  97.0045560  61.9323710  43.2998990  89.9305540  57.0055800  38.7566460
  90.8000390  57.2880600  39.0402380  89.4395860  57.8191670  38.6415270
  97.0940350  58.3929010  42.8774740  97.5503130  59.2034260  43.1034930
  96.7428560  58.0752150  43.7093230  92.9952130  48.7366660  43.3497260
  92.8666760  48.7284560  44.2982180  92.1714150  49.0749750  42.9988270
 104.5160760  62.1916320  38.5483630 104.2898340  61.4746760  39.1408270
 104.1256960  61.9428760  37.7105380  90.2976790  66.2183180  39.3228090
  90.6574430  66.8172520  38.6685360  90.1569130  66.7643070  40.0963120
 104.0977010  60.1088260  40.2097790 103.8098710  60.5700950  40.9975670
 104.8929180  59.6486030  40.4782010  96.3145410  63.6014380  40.1401760
  96.3055510  64.3344070  39.5246270  95.3943770  63.3545960  40.2328720
  91.9152050  58.8229270  40.8848520  91.3080000  59.5628170  40.8943820
  92.3901400  58.9128630  40.0586720 101.4884840  52.9880090  50.5605410
 101.8565660  52.1675300  50.8884980 100.6283040  53.0481980  50.9761060
 104.8546870  51.9437030  41.3692970 104.2260030  52.0482700  40.6551200
 104.3598790  52.1633810  42.1586850  99.3005010  63.6642620  38.8026950
  99.4016990  63.4606610  37.8728930  98.4006750  63.4100900  39.0074730
  96.8230900  54.2222980  42.7850850  96.1147050  54.6909320  43.2264460
  97.1075380  53.5644990  43.4196040 100.8546330  50.9473640  44.2246640
 100.7314110  50.9659770  43.2756150 101.8030890  50.9952580  44.3445040
  97.9423120  66.1828940  43.4974620  98.1964620  66.1450330  42.5753990
  96.9935600  66.0562270  43.4902870  95.0265920  52.5308060  40.1601560
  95.8756450  52.9678210  40.0941750  94.6597190  52.8428320  40.9873620
 105.6553690  51.8587640  51.6271770 105.1527290  52.5993040  51.9665580
 106.4710350  52.2471640  51.3108560 103.9475700  57.1020820  45.0733130
 103.0065840  57.1171050  45.2480820 104.2619770  56.3156780  45.5193430
  93.9257340  58.7840420  38.6337090  94.6920610  58.6721780  39.1962520
  94.0032030  58.0878390  37.9813860  92.6204100  56.2165490  39.3169980
  92.7007690  55.2693000  39.4287380  93.5123850  56.5472370  39.4230640
 105.9501280  64.2729670  46.7487390 106.0748700  65.0960840  47.2211200
 106.8166840  64.0620400  46.4011540  93.4218810  66.3660880  46.4204520
  94.1581290  65.8176340  46.6913090  93.8059730  67.2316890  46.2810510
  90.3064290  62.4334450  42.2946030  89.3804070  62.6755590  42.2851440
  90.7720720  63.2608710  42.1730780  92.4277090  65.5506950  55.6090100
  93.2289820  65.8719000  56.0225500  91.9128910  65.1902530  56.3310010
  96.5321120  65.5391190  38.2430090  97.3249730  65.8280020  37.7911880
  96.0125470  65.1083360  37.5642570 105.5851290  64.7661320  39.6666830
 105.2992800  64.3526460  38.8521010 105.3870840  65.6949030  39.5467350
  97.0498520  60.7594600  38.1072440  96.9449160  60.1446950  38.8333820
  96.8822740  60.2360490  37.3235450 100.2901250  59.8214630  38.7114430
  99.7411350  60.2683930  39.3557170 100.9120510  59.3163880  39.2352100
  95.9576370  58.7805550  40.6079730  96.3792790  58.6145420  41.4511120
  96.0827210  57.9705780  40.1134870  98.4704010  57.8043160  37.8556830
  98.9909670  57.0892180  37.4897980  99.1172410  58.4429030  38.1557340
  97.3737530  50.2837710  50.5275390  96.9254830  50.3061970  49.6820940
  96.7402730  49.8856730  51.1245690  94.8535270  54.8538780  37.5537890
  94.6524330  53.9906140  37.9151230  94.6827320  54.7672140  36.6159490
 102.3323580  49.6647010  40.0824770 102.6125870  48.8214910  40.4384190
 101.5589310  49.8970120  40.5963520  93.6518070  51.9539400  37.5415770
  93.9543970  51.9606830  36.6334920  94.3912660  51.6037260  38.0383430
  96.8703000  50.8974020  38.5271970  96.5225000  50.2198010  37.9474420
  97.0715770  50.4363530  39.3415360  99.0352040  65.8854770  40.1458570
  99.9302830  66.2239740  40.1677330  99.0669670  65.1634180  39.5182850
  92.6748200  61.2581820  38.3745570  93.1123070  61.8011490  39.0303150
  93.1595930  60.4328770  38.3841910  89.8894000  64.0470850  45.8265830
  90.2197010  63.1791910  45.5944470  90.3185000  64.2529370  46.6570790
  94.4855920  62.3779860  43.4867800  94.1851460  62.2544830  44.3871710
  94.3793410  61.5188450  43.0783530 106.0146390  64.4158440  52.8524770
 105.4148380  64.4751000  52.1088690 106.1440290  63.4763420  52.9821620
 107.2547840  62.1576260  38.1894480 106.4240800  62.2252910  38.6601710
 107.4319670  63.0480380  37.8861340 106.7104300  58.9023740  40.6928680
 107.4723210  59.4720390  40.7988370 106.7258670  58.3350940  41.4636990
  90.2108640  57.4261670  44.9236340  89.5557480  57.1573310  44.2796040
  91.0486590  57.3166150  44.4738320 107.7164270  59.7573840  45.5370610
 108.0873100  58.9741160  45.1306580 108.3566200  60.4462940  45.3587910
 104.6998030  61.1410420  50.9500930 103.8857870  61.5707580  51.2126720
 105.1072230  61.7528830  50.3369980 106.7623470  59.1958110  37.8501200
 107.0372310  60.1036990  37.7220420 106.5734210  59.1320640  38.7863190
 103.1599080  52.2202960  39.1454830 103.5783960  52.0333940  38.3051490
 102.8535140  51.3682010  39.4557760 106.6588810  57.1327100  42.8430630
 106.2832410  56.3655030  42.4111920 105.9291930  57.5149800  43.3305560
 104.4876500  51.5055050  55.2549850 105.3646680  51.5138450  55.6383850
 104.4997340  50.7685890  54.6442200  89.4246720  54.6360600  40.8661670
  88.5210800  54.8990800  40.6913330  89.9087340  54.9071770  40.0861630
 105.9339770  55.3584590  46.1437870 106.4577250  54.8647240  45.5128040
 106.5199190  55.4934950  46.8885440 106.1129490  55.4424460  49.6657420
 105.1632200  55.4088000  49.7802410 106.2942500  56.3524570  49.4307190
  91.9673930  53.6926140  38.7756050  92.6765630  53.2709360  38.2903330
  91.2513870  53.7601370  38.1439400  91.6148090  49.7465470  37.8158700
  92.3376220  50.2874410  38.1339920  91.8872610  49.4728890  36.9400240
 105.4239740  54.6157940  42.0830280 105.9198860  54.3828810  42.8679160
 105.2255810  53.7769780  41.6667920 106.8526900  53.2518890  44.6167960
 106.7426180  53.0974930  45.5550230 107.6134490  52.7239830  44.3743370
 105.1992620  49.1913020  51.0750960 105.8364840  49.8047160  51.4410150
 105.3467510  49.2273680  50.1300190 107.7417170  51.0826810  37.8574100
 108.6666480  50.9507990  37.6492390 107.7192960  51.1619630  38.8110550
 107.8155660  51.8537470  40.4830810 107.0207160  51.7882590  41.0123720
 108.0198940  52.7888110  40.4716160 104.7574080  65.8929020  44.4769200
 105.3533150  65.5713590  43.8003620 105.0152230  65.4200840  45.2682470
  98.5697100  50.3439210  53.9826060  98.5085990  50.9361040  54.7321470
  99.5097480  50.2365170  53.8376320 101.2071660  50.0009270  53.6218350
 101.8212070  50.3188560  52.9599430 101.7521220  49.5157860  54.2414210
 107.6246840  65.9000900  51.0280190 107.1305120  66.2969770  50.3107320
 107.0160130  65.2750110  51.4217470 101.9479700  48.5641410  49.9487640
 101.0739540  48.8976520  49.7460570 101.8390450  48.0914590  50.7739510
 102.8551680  50.7712280  51.3329360 102.5265040  49.9564040  50.9531090
 103.8033980  50.7282090  51.2095050 105.3086290  66.5424320  48.3066930
 104.8489260  67.2940130  47.9324950 104.6798750  65.8230790  48.2481730
  99.6954520  49.4811250  48.8880550  98.9126310  49.9556750  49.1677310
  99.4017450  48.5766080  48.7793730 104.2475590  50.1834350  46.9329640
 104.6883680  50.1279450  46.0851240 103.9783180  51.0992360  47.0039820
 106.1114160  49.8149590  44.9438460 106.0502560  48.8710810  44.7969480
 106.8906190  49.9229680  45.4891920  90.4166910  65.9541950  43.9062410
  90.2488950  65.3212630  44.6044300  89.5501420  66.1601350  43.5556600
  91.0394930  49.7858730  41.4094270  91.7974290  49.8987610  40.8358300
  90.5772100  50.6227930  41.3637700  97.5808740  51.8998000  44.3996580
  96.7683250  51.5254890  44.0592460  98.0850380  51.1443080  44.7017770
 102.0833720  48.5640450  45.6379650 102.6863090  49.1360660  46.1128170
 101.3426710  49.1279890  45.4153550 105.2268320  48.9662010  40.9119930
 105.4218950  49.8645460  41.1787360 104.4398190  48.7349090  41.4052880
  92.0229610  64.6475180  41.3512550  91.4977230  65.0283210  40.6474510
  91.9474190  65.2725950  42.0722260  93.4120080  50.3122780  39.9496240
  93.9412840  49.5252580  39.8204190  94.0448400  50.9913970  40.1831770
  95.6057920  50.0497920  43.0041630  94.9760660  49.3485230  43.1711760
  95.0663060  50.8102050  42.7874790 106.7794930  66.2062720  42.6726490
 106.9547120  65.5200460  42.0287410 106.0816500  66.7309770  42.2803160
  94.6222580  66.5957560  40.2261800  95.3541400  66.3116840  39.6785690
  94.8816250  66.3570840  41.1161180  93.7837370  62.7122290  40.2308130
  93.1546250  63.1807390  40.7793960  93.8985200  61.8671510  40.6654320
 102.3328940  48.7435480  56.0174590 102.2194390  49.0630090  56.9126110
 103.1498680  49.1447990  55.7211870 105.1127430  65.8907010  55.4993280
 105.9052750  65.3956240  55.2919240 105.4060580  66.5697150  56.1068890
 101.2387090  56.7627950  26.3809330 101.1581140  55.8482560  26.1101040
 100.8251510  57.2595020  25.6749040  99.3705130  58.5406970  28.2618600
  98.5947230  58.0607410  28.5517170 100.0218060  57.8612620  28.0874760
  93.3870960  58.8526780  29.1394360  92.5555840  58.5975490  29.5390870
  93.9951940  58.9237550  29.8752280 103.3912560  62.9467160  27.0417730
 102.9294090  62.1754400  27.3704900 104.2038110  62.9733230  27.5470180
  93.3672220  62.8866870  29.3352380  93.6700260  61.9964610  29.1562600
  94.1115810  63.4437090  29.1074630  91.7962910  53.8128670  22.9236750
  90.9079610  54.1544640  22.8216630  92.0804100  53.6128990  22.0317580
  89.7595920  56.4134320  28.8076450  90.3312030  55.6456520  28.8080090
  89.7597460  56.7123080  27.8983060  99.6175870  65.2325170  26.6621720
  98.9987310  65.6882670  26.0916160 100.4727650  65.3876630  26.2611420
  98.8114120  61.2164160  28.2688760  98.7422400  60.2754100  28.1077890
  99.5733980  61.3065570  28.8411330  91.0020790  51.8218680  30.5945380
  90.8223630  50.9244430  30.8748140  90.6000870  52.3690550  31.2692330
  99.8419290  54.0234540  28.4957690 100.2184110  53.1506420  28.3831360
  99.7438800  54.3593240  27.6048130  93.9724300  52.3960170  23.9575130
  94.0791050  53.2963900  24.2643890  93.0616660  52.3478140  23.6669780
 103.6243410  51.5184980  25.4286030 104.4453030  51.0281550  25.4711510
 103.6577490  52.1082640  26.1817870  91.6207460  54.3179180  29.2027720
  92.3017570  54.5817550  29.8215120  91.3055510  53.4780050  29.5365730
  95.8132030  55.3646540  28.2900310  96.3210250  55.8627510  28.9305330
  96.3445270  54.5881740  28.1139670 107.9142960  53.5351730  31.9929660
 107.2095130  53.9233440  31.4744770 108.1800880  54.2302020  32.5950590
  94.0968130  50.0045100  32.5563730  94.0986570  50.5217490  31.7509630
  93.2672440  49.5275280  32.5333660 100.4839220  60.1164410  24.0553630
  99.8656490  60.5813860  23.4916350 100.9962470  60.8091890  24.4723140
  95.3470980  59.6440280  30.7337230  95.0140360  60.2709200  31.3758300
  95.5237660  60.1702160  29.9538900 103.8604890  53.4585360  28.2013570
 103.1560460  53.7470250  28.7816680 104.2217050  54.2685470  27.8413130
  93.7783460  51.7155060  30.5634180  94.1200270  52.5597110  30.2688050
  92.8399270  51.8638800  30.6799520  94.5590080  61.6121080  32.5486410
  95.1764080  62.2872160  32.2670860  93.6983200  62.0209060  32.4573910
  89.8522420  60.8020940  21.4293260  89.4750400  61.2908040  20.6978160
  90.1095490  61.4746220  22.0599790 105.4767670  63.0760490  30.4641050
 104.7931190  63.7459600  30.4557720 106.0161960  63.2741140  29.6985910
 106.9291810  52.9040150  28.5922780 105.9816720  52.9379130  28.7238210
 107.2541800  53.7179100  28.9772140  97.4611350  49.2037330  26.8878770
  97.7686330  48.6484220  26.1714270  96.5312050  49.3381790  26.7051760
 103.0126410  64.9204620  29.1786230 103.0253570  64.5166910  28.3108490
 102.4601630  65.6951910  29.0747660 104.3071830  61.6420840  24.2676400
 104.1968160  60.6995170  24.3925820 104.3040080  62.0036480  25.1539160
 102.4111850  59.8234460  30.5068840 102.8280640  59.6094570  29.6722300
 103.1351670  60.0807250  31.0777460  99.8492110  57.2686160  23.6238890
  98.9221390  57.2023540  23.8527360 100.0016930  58.2066290  23.5094130
  99.8361190  53.5403160  20.6206050  98.8964860  53.7017120  20.7058510
 100.1544450  54.2588840  20.0742040 106.3573950  58.2221680  30.5985080
 105.5292580  58.2914770  30.1235210 106.9524430  58.8075990  30.1300910
 103.8789400  58.8306460  24.1274140 103.2601820  58.4926010  23.4800440
 103.8613850  58.1866220  24.8353330 103.3215960  55.0091000  31.5439950
 102.9087140  55.8344710  31.7979940 102.5891910  54.4236040  31.3516310
  95.4548750  57.7950900  26.4058620  95.0505750  57.0828150  25.9104520
  95.5411870  57.4504140  27.2946660  95.9230450  61.4818460  28.5697830
  95.6258740  60.8763930  27.8905610  96.8730270  61.5195770  28.4587190
  94.1677370  54.5694110  30.1857660  94.7191960  54.6789450  29.4110910
  94.6820880  54.9431710  30.9012890 104.0116060  65.0550330  32.2320930
 103.5346620  65.8622520  32.0393540 103.3277850  64.4028660  32.3847140
  95.0148880  61.2200150  35.2205630  94.1177410  61.4440120  35.4679030
  95.0401750  61.3435090  34.2717030 102.0554100  58.0693270  21.1346890
 102.4947380  57.2315700  20.9884710 102.7682520  58.7022670  21.2211030
  93.8420100  58.0913470  33.7963000  93.7027870  58.9636270  34.1650400
  92.9601460  57.7486280  33.6510940 100.1649480  63.0089340  25.1028130
 100.6045390  63.7513670  24.6883520 100.1036370  63.2515910  26.0267090
  95.6400450  64.0335170  36.0048150  95.6115880  64.4378120  35.1376580
  95.4765420  63.1045530  35.8419750 105.6371240  49.3236080  19.4487930
 105.3243900  49.4162910  20.3487000 106.3983710  49.9017110  19.3985360
  92.1553380  56.6895880  23.9065270  92.0350980  57.4157970  23.2946540
  91.8454270  55.9198790  23.4293180 107.5915270  64.8162270  37.3012320
 108.0674990  65.2945160  37.9801400 108.2122430  64.7479760  36.5757820
  89.7938750  59.8611020  29.7133910  89.8719170  59.9959790  28.7689630
  90.4080430  59.1526910  29.9062030  91.0386380  61.5611210  26.1240090
  90.6314460  61.7025800  25.2693690  91.9299390  61.2771370  25.9211300
 106.9948520  62.0075120  34.4612330 107.1211580  61.7687000  33.5429510
 107.0369900  61.1759660  34.9334410 100.8565260  65.7103120  33.0307140
 101.3709930  65.6211130  33.8329570 100.0134340  66.0562820  33.3235050
 102.8319660  65.9958460  22.4591140 102.6720800  65.7061400  23.3572970
 102.6666370  65.2198590  21.9236370  95.3108040  65.7756990  24.2362760
  95.1350520  64.8592530  24.0230560  94.4563780  66.1344280  24.4760560
 102.5345790  63.5046020  21.0189140 101.8410950  63.5023310  20.3591420
 103.2768650  63.0805340  20.5883310 102.0995720  65.1308730  25.0937630
 102.5552670  64.3498110  25.4076250 102.4388240  65.8415550  25.6378810
 106.8472530  54.0607580  35.4262070 106.2316800  54.5687250  34.8977530
 106.5268950  53.1605910  35.3688010  89.8498270  60.9025190  32.2528370
  90.0129310  60.4330550  31.4347740  90.3150720  60.3948750  32.9177210
  94.6217040  50.0330950  27.2888940  94.1785190  50.8140490  26.9573460
  95.1802030  50.3560840  27.9959880  98.9086850  52.8999470  32.8924260
  98.4466220  53.1082490  33.7044200  98.5064960  52.0858820  32.5894930
 103.9091360  54.1208420  34.0220920 103.0584950  53.8214170  34.3429990
 103.7493150  54.3650430  33.1104740 101.0041070  55.6210170  36.1219710
 101.3294480  54.7873920  35.7821940 101.7921400  56.1438690  36.2698040
  97.7375860  49.6541650  22.1694770  97.1130040  49.6501520  22.8948080
  97.6505980  48.7872610  21.7730740  96.6592940  50.5778280  29.1478540
  96.9565270  51.4841110  29.0670560  97.2078500  50.0897060  28.5338110
  94.4131260  55.1564520  25.0170190  94.1872180  54.9401690  25.9216810
  93.6323790  55.5892980  24.6716160 101.6429020  55.1627890  23.6160840
 101.0437910  55.8863690  23.4324460 102.1908630  55.1004670  22.8337290
  96.8530470  56.0550100  35.6830460  96.7574070  55.1144830  35.5330860
  97.6962450  56.2765170  35.2878530 100.2493890  53.7991430  25.6464120
 100.6423460  54.1163630  24.8332810 100.6110740  52.9203310  25.7608640
  91.9841010  52.4663770  33.8364240  91.5904400  53.3138980  34.0437020
  91.2959410  51.8290140  34.0272880  98.5586060  52.5498740  36.9060980
  97.8684380  52.3570940  37.5407070  99.3018360  52.8333380  37.4385280
  89.2858060  50.3892230  27.8694320  88.9971110  50.9595090  28.5819300
  90.0303820  49.9096680  28.2325550  89.4728290  54.3312350  19.0797040
  89.3902960  55.2743110  19.2212030  89.1211350  54.1887260  18.2009390
 100.8349030  56.3897180  29.7414900 100.1030150  56.8983990  30.0905000
 100.4373370  55.5727160  29.4403680  97.2726420  53.0651380  28.1467390
  97.2762480  52.6241330  27.2971930  98.1677540  53.3868710  28.2539210
  93.1228800  52.9477870  27.1061600  92.7828850  53.4253100  27.8628650
  92.3606120  52.4942990  26.7462700  97.3346570  54.0663460  21.1374150
  97.4559390  54.0249940  22.0859970  96.9495080  54.9287610  20.9820880
 101.2974940  51.8430860  29.1537840 101.3147680  52.2939510  29.9979690
 101.0490520  50.9436500  29.3671280  96.3468070  56.3764600  20.5357450
  95.7784970  55.9282850  19.9093360  97.0557070  56.7357380  20.0022600
 104.7245690  49.2563040  34.9924220 105.0491460  48.5252700  35.5182200
 104.7602200  48.9376680  34.0905210  91.4237250  60.2776620  34.4124180
  91.0392040  59.6370290  35.0107140  91.7349440  60.9812740  34.9818910
  97.5734390  57.1253160  29.8932800  97.9404520  56.6511730  30.6394140
  97.3839450  57.9994730  30.2341140  90.4374880  51.8696850  26.0226270
  90.1521800  51.5052520  26.8604890  90.3753740  51.1377310  25.4089410
  95.3633760  56.1661800  32.2117010  95.0590830  57.0453780  32.4367370
  96.3180220  56.2261590  32.2474450  93.8915550  60.3722790  22.8083860
  93.1177810  59.8320410  22.6482580  94.6210180  59.8529400  22.4701620
 104.6503530  59.3688150  28.6010250 105.3702650  59.8643440  28.2106360
 104.4485350  58.6906040  27.9564120 100.1113470  50.7626110  22.7439640
  99.2978080  50.2639280  22.6684950  99.9175420  51.6024360  22.3275990
 100.0322330  59.4397210  34.4879250  99.9659640  58.5192880  34.2336840
  99.4027470  59.5372650  35.2023890 102.8261860  55.1345760  21.0401800
 103.7141480  55.4462990  20.8653140 102.7966950  54.2618010  20.6482380
  93.9352950  60.0403170  26.4462670  94.4531620  59.2371430  26.3919560
  93.4836970  59.9782310  27.2879500  98.8222450  61.3069450  21.7189970
  99.1638150  62.0511680  21.2233290  97.9935160  61.6200570  22.0814800
  91.4197490  57.0064540  33.3588370  91.0612430  57.6718390  33.9461710
  91.1252050  56.1748090  33.7300990  94.6210610  57.4648780  36.2427920
  94.3210750  57.6105960  35.3455740  95.3921850  56.9054070  36.1501310
  99.9639060  62.2617780  34.2383050  99.9783600  61.3298740  34.0201960
  99.2564160  62.3477540  34.8772820 105.0976130  56.4457600  20.5081660
 105.0139850  56.8771820  19.6578100 105.8170320  56.9055950  20.9408480
 106.1750270  58.9025120  33.5851630 105.4498460  59.4953900  33.3881020
 106.7025730  58.8948660  32.7865000 106.1263380  63.2999860  23.2363790
 105.4839540  62.6455480  23.5107510 105.7394040  63.7054950  22.4604460
 101.7049860  60.6285290  27.0835480 102.0573680  60.0313420  26.4236850
 100.8212190  60.3029520  27.2543730  97.7913140  61.3882980  24.4905890
  98.4784270  61.9352190  24.8713480  97.0045560  61.9323710  24.5255500
  89.9305540  57.0055800  19.9822970  90.8000390  57.2880600  20.2658890
  89.4395860  57.8191670  19.8671780  97.0940350  58.3929010  24.1031250
  97.5503130  59.2034260  24.3291440  96.7428560  58.0752150  24.9349740
  99.3972960  63.9035350  31.3323550 100.0415180  64.1094730  32.0096970
  99.7602400  63.1423750  30.8794400  92.9952130  48.7366660  24.5753770
  92.8666760  48.7284560  25.5238690  92.1714150  49.0749750  24.2244780
 100.6705040  61.9067700  30.0501000 101.3127270  61.2060860  30.1633170
 101.1954390  62.6866140  29.8697890 104.5160760  62.1916320  19.7740140
 104.2898340  61.4746760  20.3664780 104.1256960  61.9428760  18.9361890
 102.4442660  62.7062600  33.2537060 102.7798900  63.2929290  33.9314980
 101.5243000  62.5755310  33.4834850  90.2976790  66.2183180  20.5484600
  90.6574430  66.8172520  19.8941870  90.1569130  66.7643070  21.3219630
  89.9946060  50.4957780  34.0360470  89.2804580  50.6954700  34.6413080
  90.4141100  49.7197350  34.4075270 104.0977010  60.1088260  21.4354300
 103.8098710  60.5700950  22.2232180 104.8929180  59.6486030  21.7038520
  90.2818650  64.4838040  35.0227000  90.3909770  63.5432780  34.8822390
  89.6299210  64.7492790  34.3740730  98.2731240  62.7553930  36.4225120
  97.9528110  62.0363170  36.9670810  97.5989600  63.4309000  36.4961180
  96.3145410  63.6014380  21.3658270  96.3055510  64.3344070  20.7502780
  95.3943770  63.3545960  21.4585230  91.9152050  58.8229270  22.1105030
  91.3080000  59.5628170  22.1200330  92.3901400  58.9128630  21.2843230
 101.4884840  52.9880090  31.7861920 101.8565660  52.1675300  32.1141490
 100.6283040  53.0481980  32.2017570 104.8546870  51.9437030  22.5949480
 104.2260030  52.0482700  21.8807710 104.3598790  52.1633810  23.3843360
  99.3005010  63.6642620  20.0283460  99.4016990  63.4606610  19.0985440
  98.4006750  63.4100900  20.2331240  96.8230900  54.2222980  24.0107360
  96.1147050  54.6909320  24.4520970  97.1075380  53.5644990  24.6452550
  98.4486830  55.6419680  32.0099890  98.9472080  56.1165500  32.6751740
  98.5909780  54.7183200  32.2169920 100.8546330  50.9473640  25.4503150
 100.7314110  50.9659770  24.5012660 101.8030890  50.9952580  25.5701550
  97.9423120  66.1828940  24.7231130  98.1964620  66.1450330  23.8010500
  96.9935600  66.0562270  24.7159380  95.0265920  52.5308060  21.3858070
  95.8756450  52.9678210  21.3198260  94.6597190  52.8428320  22.2130130
 105.6553690  51.8587640  32.8528280 105.1527290  52.5993040  33.1922090
 106.4710350  52.2471640  32.5365070 103.9475700  57.1020820  26.2989640
 103.0065840  57.1171050  26.4737330 104.2619770  56.3156780  26.7449940
  93.9257340  58.7840420  19.8593600  94.6920610  58.6721780  20.4219030
  94.0032030  58.0878390  19.2070370  92.6204100  56.2165490  20.5426490
  92.7007690  55.2693000  20.6543890  93.5123850  56.5472370  20.6487150
 105.9501280  64.2729670  27.9743900 106.0748700  65.0960840  28.4467710
 106.8166840  64.0620400  27.6268050  93.4218810  66.3660880  27.6461030
  94.1581290  65.8176340  27.9169600  93.8059730  67.2316890  27.5067020
  90.3064290  62.4334450  23.5202540  89.3804070  62.6755590  23.5107950
  90.7720720  63.2608710  23.3987290  92.4277090  65.5506950  36.8346610
  93.2289820  65.8719000  37.2482010  91.9128910  65.1902530  37.5566520
  96.5321120  65.5391190  19.4686600  97.3249730  65.8280020  19.0168390
  96.0125470  65.1083360  18.7899080 101.2641720  61.6586820  36.7822020
 100.6579880  61.6818420  36.0417770 100.9595830  60.9269860  37.3189270
 102.6942090  65.3867110  35.3931430 103.6463840  65.3025130  35.3431670
 102.5470310  66.0508820  36.0665220 105.5851290  64.7661320  20.8923340
 105.2992800  64.3526460  20.0777520 105.3870840  65.6949030  20.7723860
  90.1474900  58.0380410  35.7782660  90.6513920  57.4587690  36.3498890
  89.4082320  58.3220640  36.3159030  97.0498520  60.7594600  19.3328950
  96.9449160  60.1446950  20.0590330  96.8822740  60.2360490  18.5491960
  97.2012840  59.4451400  35.3118180  96.4358510  60.0136400  35.2272850
  97.3828800  59.1527610  34.4186410 100.2901250  59.8214630  19.9370940
  99.7411350  60.2683930  20.5813680 100.9120510  59.3163880  20.4608610
 104.3436190  61.1756730  35.8693200 105.0845660  61.5132490  35.3660660
 103.5808870  61.3448790  35.3162970  92.1797980  56.1810000  36.6732730
  92.2203320  55.8823870  37.5817960  93.0343480  56.5817610  36.5140250
  95.9576370  58.7805550  21.8336240  96.3792790  58.6145420  22.6767630
  96.0827210  57.9705780  21.3391380  94.1203790  54.7602100  34.6407220
  93.5900250  54.2693050  34.0130560  94.7891860  55.1886300  34.1065150
  98.4704010  57.8043160  19.0813340  98.9909670  57.0892180  18.7154490
  99.1172410  58.4429030  19.3813850 103.0181850  59.2271560  34.4048410
 103.4322870  59.3816640  35.2538830 102.0832850  59.3526780  34.5674190
 103.4904020  56.5667720  36.4087560 104.0724790  55.8120040  36.3208040
 103.6665790  57.0975160  35.6319040  94.6076090  51.7264470  34.7204510
  94.5132960  51.1085220  33.9955380  94.0273480  52.4530760  34.4934420
  97.3737530  50.2837710  31.7531900  96.9254830  50.3061970  30.9077450
  96.7402730  49.8856730  32.3502200  97.7797080  59.1792040  32.3744340
  98.1985190  60.0224770  32.2020580  96.8605710  59.3164080  32.1451120
 100.1160980  56.9108220  33.7582180 100.2357190  56.3149360  34.4977020
 100.9754980  56.9477910  33.3383480 102.4548880  57.4645410  32.3344690
 101.9284100  57.9888030  31.7309830 102.7980220  58.0972800  32.9654420
  94.8535270  54.8538780  18.7794400  94.6524330  53.9906140  19.1407740
  94.6827320  54.7672140  17.8416000  95.6304500  65.4845050  33.4902070
  95.0925590  66.2091110  33.1710770  95.8838460  65.0075390  32.6999410
  96.8829750  53.4529570  35.0158000  97.4729440  53.1445420  35.7035820
  96.0649990  52.9809320  35.1717900 101.7023180  53.0695380  35.2491020
 101.0138700  52.4076920  35.1841010 102.4229200  52.6233650  35.6939480
 102.3323580  49.6647010  21.3081280 102.6125870  48.8214910  21.6640700
 101.5589310  49.8970120  21.8220030  93.6518070  51.9539400  18.7672280
  93.9543970  51.9606830  17.8591430  94.3912660  51.6037260  19.2639940
  98.4866710  66.7196260  33.7488720  98.4125410  67.6231400  34.0561090
  97.5845550  66.4008160  33.7210790  96.8703000  50.8974020  19.7528480
  96.5225000  50.2198010  19.1730930  97.0715770  50.4363530  20.5671870
  99.0352040  65.8854770  21.3715080  99.9302830  66.2239740  21.3933840
  99.0669670  65.1634180  20.7439360  92.6748200  61.2581820  19.6002080
  93.1123070  61.8011490  20.2559660  93.1595930  60.4328770  19.6098420
  89.8894000  64.0470850  27.0522340  90.2197010  63.1791910  26.8200980
  90.3185000  64.2529370  27.8827300  94.4855920  62.3779860  24.7124310
  94.1851460  62.2544830  25.6128220  94.3793410  61.5188450  24.3040040
  90.3784210  64.9141440  29.7903970  89.9415200  65.0942240  30.6228120
  90.9461890  65.6716060  29.6485690 106.0146390  64.4158440  34.0781280
 105.4148380  64.4751000  33.3345200 106.1440290  63.4763420  34.2078130
 107.2547840  62.1576260  19.4150990 106.4240800  62.2252910  19.8858220
 107.4319670  63.0480380  19.1117850 106.7104300  58.9023740  21.9185190
 107.4723210  59.4720390  22.0244880 106.7258670  58.3350940  22.6893500
  90.2108640  57.4261670  26.1492850  89.5557480  57.1573310  25.5052550
  91.0486590  57.3166150  25.6994830 107.7164270  59.7573840  26.7627120
 108.0873100  58.9741160  26.3563090 108.3566200  60.4462940  26.5844420
 104.6998030  61.1410420  32.1757440 103.8857870  61.5707580  32.4383230
 105.1072230  61.7528830  31.5626490 106.7623470  59.1958110  19.0757710
 107.0372310  60.1036990  18.9476930 106.5734210  59.1320640  20.0119700
 103.1599080  52.2202960  20.3711340 103.5783960  52.0333940  19.5308000
 102.8535140  51.3682010  20.6814270 106.6588810  57.1327100  24.0687140
 106.2832410  56.3655030  23.6368430 105.9291930  57.5149800  24.5562070
  91.2484570  57.8114240  30.6896190  91.6157610  57.7241640  31.5692210
  90.6795390  57.0480790  30.5903050 106.0488430  56.2798620  33.7026660
 105.8174520  56.0511370  32.8024610 106.3092980  57.1998170  33.6571550
  90.8000570  54.7223330  34.5954610  89.9056620  54.6890090  34.9348320
  91.3398120  54.9210120  35.3605860 104.4876500  51.5055050  36.4806360
 105.3646680  51.5138450  36.8640360 104.4997340  50.7685890  35.8698710
  89.4246720  54.6360600  22.0918180  88.5210800  54.8990800  21.9169840
  89.9087340  54.9071770  21.3118140 105.9339770  55.3584590  27.3694380
 106.4577250  54.8647240  26.7384550 106.5199190  55.4934950  28.1141950
 106.1129490  55.4424460  30.8913930 105.1632200  55.4088000  31.0058920
 106.2942500  56.3524570  30.6563700  91.9673930  53.6926140  20.0012560
  92.6765630  53.2709360  19.5159840  91.2513870  53.7601370  19.3695910
  91.6148090  49.7465470  19.0415210  92.3376220  50.2874410  19.3596430
  91.8872610  49.4728890  18.1656750 105.4239740  54.6157940  23.3086790
 105.9198860  54.3828810  24.0935670 105.2255810  53.7769780  22.8924430
  91.3040280  48.9971660  28.9437830  91.9516470  48.4469040  28.5032990
  91.7242120  49.2514810  29.7653640 106.8526900  53.2518890  25.8424470
 106.7426180  53.0974930  26.7806740 107.6134490  52.7239830  25.5999880
 105.1992620  49.1913020  32.3007470 105.8364840  49.8047160  32.6666660
 105.3467510  49.2273680  31.3556700 107.7417170  51.0826810  19.0830610
 108.6666480  50.9507990  18.8748900 107.7192960  51.1619630  20.0367060
 107.8155660  51.8537470  21.7087320 107.0207160  51.7882590  22.2380230
 108.0198940  52.7888110  21.6972670 104.7574080  65.8929020  25.7025710
 105.3533150  65.5713590  25.0260130 105.0152230  65.4200840  26.4938980
  91.0572280  49.1527330  31.6863150  90.7087100  49.6091150  32.4521330
  90.7259980  48.2584460  31.7685580  92.6636650  62.3246930  35.8516340
  92.6206280  61.9539840  36.7330800  92.7947660  63.2624500  35.9918160
  96.3642680  63.8806520  31.4526060  96.1234040  64.1481080  30.5656580
  97.3045320  64.0512250  31.5076920  98.5697100  50.3439210  35.2082570
  98.5085990  50.9361040  35.9577980  99.5097480  50.2365170  35.0632830
 101.2071660  50.0009270  34.8474860 101.8212070  50.3188560  34.1855940
 101.7521220  49.5157860  35.4670720 107.6246840  65.9000900  32.2536700
 107.1305120  66.2969770  31.5363830 107.0160130  65.2750110  32.6473980
  91.7292920  48.6803530  34.9613920  92.2775910  48.4991580  34.1980030
  91.7948230  47.8897640  35.4970230  92.5024680  65.2709180  32.9714120
  91.9085000  65.1393880  33.7104160  92.4948520  64.4347320  32.5056220
 101.9479700  48.5641410  31.1744150 101.0739540  48.8976520  30.9717080
 101.8390450  48.0914590  31.9996020 102.8551680  50.7712280  32.5585870
 102.5265040  49.9564040  32.1787600 103.8033980  50.7282090  32.4351560
 105.3086290  66.5424320  29.5323440 104.8489260  67.2940130  29.1581460
 104.6798750  65.8230790  29.4738240  92.1336910  62.6367560  31.9222160
  91.4070970  62.0172850  31.8548110  92.1946060  63.0308170  31.0520240
  95.7382010  64.8512560  28.7071570  96.2547030  64.2399920  28.1819830
  96.3879390  65.3541340  29.1982580  98.4777510  65.7421050  29.5340550
  98.7655320  65.4875350  28.6573560  98.9900730  65.1898410  30.1246120
  99.6954520  49.4811250  30.1137060  98.9126310  49.9556750  30.3933820
  99.4017450  48.5766080  30.0050240 104.2475590  50.1834350  28.1586150
 104.6883680  50.1279450  27.3107750 103.9783180  51.0992360  28.2296330
 106.1114160  49.8149590  26.1694970 106.0502560  48.8710810  26.0225990
 106.8906190  49.9229680  26.7148430  90.4166910  65.9541950  25.1318920
  90.2488950  65.3212630  25.8300810  89.5501420  66.1601350  24.7813110
  91.0394930  49.7858730  22.6350780  91.7974290  49.8987610  22.0614810
  90.5772100  50.6227930  22.5894210  97.5808740  51.8998000  25.6253090
  96.7683250  51.5254890  25.2848970  98.0850380  51.1443080  25.9274280
 102.0833720  48.5640450  26.8636160 102.6863090  49.1360660  27.3384680
 101.3426710  49.1279890  26.6410060 105.2268320  48.9662010  22.1376440
 105.4218950  49.8645460  22.4043870 104.4398190  48.7349090  22.6309390
  92.0229610  64.6475180  22.5769060  91.4977230  65.0283210  21.8731020
  91.9474190  65.2725950  23.2978770  93.4120080  50.3122780  21.1752750
  93.9412840  49.5252580  21.0460700  94.0448400  50.9913970  21.4088280
  95.6057920  50.0497920  24.2298140  94.9760660  49.3485230  24.3968270
  95.0663060  50.8102050  24.0131300  98.5449870  66.6637150  36.9008750
  99.4717180  66.4281420  36.9444710  98.5300300  67.4909150  36.4194780
 106.7794930  66.2062720  23.8983000 106.9547120  65.5200460  23.2543920
 106.0816500  66.7309770  23.5059670  95.7313480  49.3281900  36.6650630
  95.4497750  49.8315500  35.9011450  96.1133180  48.5303650  36.2992760
  94.6222580  66.5957560  21.4518310  95.3541400  66.3116840  20.9042200
  94.8816250  66.3570840  22.3417690  93.7837370  62.7122290  21.4564640
  93.1546250  63.1807390  22.0050470  93.8985200  61.8671510  21.8910830
 102.3328940  48.7435480  37.2431100 102.2194390  49.0630090  38.1382620
 103.1498680  49.1447990  36.9468380 105.1127430  65.8907010  36.7249790
 105.9052750  65.3956240  36.5175750 105.4060580  66.5697150  37.3325400
 101.2387090  56.7627950   7.6065840 101.1581140  55.8482560   7.3357550
 100.8251510  57.2595020   6.9005550  99.3705130  58.5406970   9.4875110
  98.5947230  58.0607410   9.7773680 100.0218060  57.8612620   9.3131270
  93.3870960  58.8526780  10.3650870  92.5555840  58.5975490  10.7647380
  93.9951940  58.9237550  11.1008790 103.3912560  62.9467160   8.2674240
 102.9294090  62.1754400   8.5961410 104.2038110  62.9733230   8.7726690
  93.3672220  62.8866870  10.5608890  93.6700260  61.9964610  10.3819110
  94.1115810  63.4437090  10.3331140  91.7962910  53.8128670   4.1493260
  90.9079610  54.1544640   4.0473140  92.0804100  53.6128990   3.2574090
  89.7595920  56.4134320  10.0332960  90.3312030  55.6456520  10.0336600
  89.7597460  56.7123080   9.1239570  99.6175870  65.2325170   7.8878230
  98.9987310  65.6882670   7.3172670 100.4727650  65.3876630   7.4867930
  98.8114120  61.2164160   9.4945270  98.7422400  60.2754100   9.3334400
  99.5733980  61.3065570  10.0667840  91.0020790  51.8218680  11.8201890
  90.8223630  50.9244430  12.1004650  90.6000870  52.3690550  12.4948840
  99.8419290  54.0234540   9.7214200 100.2184110  53.1506420   9.6087870
  99.7438800  54.3593240   8.8304640  93.9724300  52.3960170   5.1831640
  94.0791050  53.2963900   5.4900400  93.0616660  52.3478140   4.8926290
 103.6243410  51.5184980   6.6542540 104.4453030  51.0281550   6.6968020
 103.6577490  52.1082640   7.4074380  91.6207460  54.3179180  10.4284230
  92.3017570  54.5817550  11.0471630  91.3055510  53.4780050  10.7622240
  95.8132030  55.3646540   9.5156820  96.3210250  55.8627510  10.1561840
  96.3445270  54.5881740   9.3396180 107.9142960  53.5351730  13.2186170
 107.2095130  53.9233440  12.7001280 108.1800880  54.2302020  13.8207100
  94.0968130  50.0045100  13.7820240  94.0986570  50.5217490  12.9766140
  93.2672440  49.5275280  13.7590170 100.4839220  60.1164410   5.2810140
  99.8656490  60.5813860   4.7172860 100.9962470  60.8091890   5.6979650
  95.3470980  59.6440280  11.9593740  95.0140360  60.2709200  12.6014810
  95.5237660  60.1702160  11.1795410 103.8604890  53.4585360   9.4270080
 103.1560460  53.7470250  10.0073190 104.2217050  54.2685470   9.0669640
  93.7783460  51.7155060  11.7890690  94.1200270  52.5597110  11.4944560
  92.8399270  51.8638800  11.9056030  94.5590080  61.6121080  13.7742920
  95.1764080  62.2872160  13.4927370  93.6983200  62.0209060  13.6830420
  89.8522420  60.8020940   2.6549770  89.4750400  61.2908040   1.9234670
  90.1095490  61.4746220   3.2856300 105.4767670  63.0760490  11.6897560
 104.7931190  63.7459600  11.6814230 106.0161960  63.2741140  10.9242420
 106.9291810  52.9040150   9.8179290 105.9816720  52.9379130   9.9494720
 107.2541800  53.7179100  10.2028650  97.4611350  49.2037330   8.1135280
  97.7686330  48.6484220   7.3970780  96.5312050  49.3381790   7.9308270
 103.0126410  64.9204620  10.4042740 103.0253570  64.5166910   9.5365000
 102.4601630  65.6951910  10.3004170 104.3071830  61.6420840   5.4932910
 104.1968160  60.6995170   5.6182330 104.3040080  62.0036480   6.3795670
 102.4111850  59.8234460  11.7325350 102.8280640  59.6094570  10.8978810
 103.1351670  60.0807250  12.3033970  99.8492110  57.2686160   4.8495400
  98.9221390  57.2023540   5.0783870 100.0016930  58.2066290   4.7350640
  99.8361190  53.5403160   1.8462560  98.8964860  53.7017120   1.9315020
 100.1544450  54.2588840   1.2998550 106.3573950  58.2221680  11.8241590
 105.5292580  58.2914770  11.3491720 106.9524430  58.8075990  11.3557420
 103.8789400  58.8306460   5.3530650 103.2601820  58.4926010   4.7056950
 103.8613850  58.1866220   6.0609840 103.3215960  55.0091000  12.7696460
 102.9087140  55.8344710  13.0236450 102.5891910  54.4236040  12.5772820
  95.4548750  57.7950900   7.6315130  95.0505750  57.0828150   7.1361030
  95.5411870  57.4504140   8.5203170  95.9230450  61.4818460   9.7954340
  95.6258740  60.8763930   9.1162120  96.8730270  61.5195770   9.6843700
  94.1677370  54.5694110  11.4114170  94.7191960  54.6789450  10.6367420
  94.6820880  54.9431710  12.1269400 104.0116060  65.0550330  13.4577440
 103.5346620  65.8622520  13.2650050 103.3277850  64.4028660  13.6103650
  95.0148880  61.2200150  16.4462140  94.1177410  61.4440120  16.6935540
  95.0401750  61.3435090  15.4973540 102.0554100  58.0693270   2.3603400
 102.4947380  57.2315700   2.2141220 102.7682520  58.7022670   2.4467540
  93.8420100  58.0913470  15.0219510  93.7027870  58.9636270  15.3906910
  92.9601460  57.7486280  14.8767450 100.1649480  63.0089340   6.3284640
 100.6045390  63.7513670   5.9140030 100.1036370  63.2515910   7.2523600
  95.6400450  64.0335170  17.2304660  95.6115880  64.4378120  16.3633090
  95.4765420  63.1045530  17.0676260  92.1553380  56.6895880   5.1321780
  92.0350980  57.4157970   4.5203050  91.8454270  55.9198790   4.6549690
 107.5915270  64.8162270  18.5268830 108.0674990  65.2945160  19.2057910
 108.2122430  64.7479760  17.8014330  89.7938750  59.8611020  10.9390420
  89.8719170  59.9959790   9.9946140  90.4080430  59.1526910  11.1318540
  91.0386380  61.5611210   7.3496600  90.6314460  61.7025800   6.4950200
  91.9299390  61.2771370   7.1467810 106.9948520  62.0075120  15.6868840
 107.1211580  61.7687000  14.7686020 107.0369900  61.1759660  16.1590920
 100.8565260  65.7103120  14.2563650 101.3709930  65.6211130  15.0586080
 100.0134340  66.0562820  14.5491560 102.8319660  65.9958460   3.6847650
 102.6720800  65.7061400   4.5829480 102.6666370  65.2198590   3.1492880
  95.3108040  65.7756990   5.4619270  95.1350520  64.8592530   5.2487070
  94.4563780  66.1344280   5.7017070 102.5345790  63.5046020   2.2445650
 101.8410950  63.5023310   1.5847930 103.2768650  63.0805340   1.8139820
 102.0995720  65.1308730   6.3194140 102.5552670  64.3498110   6.6332760
 102.4388240  65.8415550   6.8635320 106.8472530  54.0607580  16.6518580
 106.2316800  54.5687250  16.1234040 106.5268950  53.1605910  16.5944520
  89.8498270  60.9025190  13.4784880  90.0129310  60.4330550  12.6604250
  90.3150720  60.3948750  14.1433720  94.6217040  50.0330950   8.5145450
  94.1785190  50.8140490   8.1829970  95.1802030  50.3560840   9.2216390
  98.9086850  52.8999470  14.1180770  98.4466220  53.1082490  14.9300710
  98.5064960  52.0858820  13.8151440 103.9091360  54.1208420  15.2477430
 103.0584950  53.8214170  15.5686500 103.7493150  54.3650430  14.3361250
 101.0041070  55.6210170  17.3476220 101.3294480  54.7873920  17.0078450
 101.7921400  56.1438690  17.4954550  97.7375860  49.6541650   3.3951280
  97.1130040  49.6501520   4.1204590  97.6505980  48.7872610   2.9987250
  96.6592940  50.5778280  10.3735050  96.9565270  51.4841110  10.2927070
  97.2078500  50.0897060   9.7594620  94.4131260  55.1564520   6.2426700
  94.1872180  54.9401690   7.1473320  93.6323790  55.5892980   5.8972670
 101.6429020  55.1627890   4.8417350 101.0437910  55.8863690   4.6580970
 102.1908630  55.1004670   4.0593800  96.8530470  56.0550100  16.9086970
  96.7574070  55.1144830  16.7587370  97.6962450  56.2765170  16.5135040
 100.2493890  53.7991430   6.8720630 100.6423460  54.1163630   6.0589320
 100.6110740  52.9203310   6.9865150  91.9841010  52.4663770  15.0620750
  91.5904400  53.3138980  15.2693530  91.2959410  51.8290140  15.2529390
  98.5586060  52.5498740  18.1317490  97.8684380  52.3570940  18.7663580
  99.3018360  52.8333380  18.6641790  89.2858060  50.3892230   9.0950830
  88.9971110  50.9595090   9.8075810  90.0303820  49.9096680   9.4582060
 100.8349030  56.3897180  10.9671410 100.1030150  56.8983990  11.3161510
 100.4373370  55.5727160  10.6660190  97.2726420  53.0651380   9.3723900
  97.2762480  52.6241330   8.5228440  98.1677540  53.3868710   9.4795720
  93.1228800  52.9477870   8.3318110  92.7828850  53.4253100   9.0885160
  92.3606120  52.4942990   7.9719210  97.3346570  54.0663460   2.3630660
  97.4559390  54.0249940   3.3116480  96.9495080  54.9287610   2.2077390
 101.2974940  51.8430860  10.3794350 101.3147680  52.2939510  11.2236200
 101.0490520  50.9436500  10.5927790 104.7245690  49.2563040  16.2180730
 105.0491460  48.5252700  16.7438710 104.7602200  48.9376680  15.3161720
  91.4237250  60.2776620  15.6380690  91.0392040  59.6370290  16.2363650
  91.7349440  60.9812740  16.2075420  97.5734390  57.1253160  11.1189310
  97.9404520  56.6511730  11.8650650  97.3839450  57.9994730  11.4597650
  90.4374880  51.8696850   7.2482780  90.1521800  51.5052520   8.0861400
  90.3753740  51.1377310   6.6345920  95.3633760  56.1661800  13.4373520
  95.0590830  57.0453780  13.6623880  96.3180220  56.2261590  13.4730960
  93.8915550  60.3722790   4.0340370  93.1177810  59.8320410   3.8739090
  94.6210180  59.8529400   3.6958130 104.6503530  59.3688150   9.8266760
 105.3702650  59.8643440   9.4362870 104.4485350  58.6906040   9.1820630
 100.1113470  50.7626110   3.9696150  99.2978080  50.2639280   3.8941460
  99.9175420  51.6024360   3.5532500 100.0322330  59.4397210  15.7135760
  99.9659640  58.5192880  15.4593350  99.4027470  59.5372650  16.4280400
 102.8261860  55.1345760   2.2658310 103.7141480  55.4462990   2.0909650
 102.7966950  54.2618010   1.8738890  93.9352950  60.0403170   7.6719180
  94.4531620  59.2371430   7.6176070  93.4836970  59.9782310   8.5136010
  98.8222450  61.3069450   2.9446480  99.1638150  62.0511680   2.4489800
  97.9935160  61.6200570   3.3071310  91.4197490  57.0064540  14.5844880
  91.0612430  57.6718390  15.1718220  91.1252050  56.1748090  14.9557500
  94.6210610  57.4648780  17.4684430  94.3210750  57.6105960  16.5712250
  95.3921850  56.9054070  17.3757820  99.9639060  62.2617780  15.4639560
  99.9783600  61.3298740  15.2458470  99.2564160  62.3477540  16.1029330
 106.1750270  58.9025120  14.8108140 105.4498460  59.4953900  14.6137530
 106.7025730  58.8948660  14.0121510 106.1263380  63.2999860   4.4620300
 105.4839540  62.6455480   4.7364020 105.7394040  63.7054950   3.6860970
 101.7049860  60.6285290   8.3091990 102.0573680  60.0313420   7.6493360
 100.8212190  60.3029520   8.4800240  97.7913140  61.3882980   5.7162400
  98.4784270  61.9352190   6.0969990  97.0045560  61.9323710   5.7512010
  97.0940350  58.3929010   5.3287760  97.5503130  59.2034260   5.5547950
  96.7428560  58.0752150   6.1606250  99.3972960  63.9035350  12.5580060
 100.0415180  64.1094730  13.2353480  99.7602400  63.1423750  12.1050910
  92.9952130  48.7366660   5.8010280  92.8666760  48.7284560   6.7495200
  92.1714150  49.0749750   5.4501290 100.6705040  61.9067700  11.2757510
 101.3127270  61.2060860  11.3889680 101.1954390  62.6866140  11.0954400
 102.4442660  62.7062600  14.4793570 102.7798900  63.2929290  15.1571490
 101.5243000  62.5755310  14.7091360  89.9946060  50.4957780  15.2616980
  89.2804580  50.6954700  15.8669590  90.4141100  49.7197350  15.6331780
 104.0977010  60.1088260   2.6610810 103.8098710  60.5700950   3.4488690
 104.8929180  59.6486030   2.9295030  90.2818650  64.4838040  16.2483510
  90.3909770  63.5432780  16.1078900  89.6299210  64.7492790  15.5997240
  98.2731240  62.7553930  17.6481630  97.9528110  62.0363170  18.1927320
  97.5989600  63.4309000  17.7217690  96.3145410  63.6014380   2.5914780
  96.3055510  64.3344070   1.9759290  95.3943770  63.3545960   2.6841740
  91.9152050  58.8229270   3.3361540  91.3080000  59.5628170   3.3456840
  92.3901400  58.9128630   2.5099740 101.4884840  52.9880090  13.0118430
 101.8565660  52.1675300  13.3398000 100.6283040  53.0481980  13.4274080
 104.8546870  51.9437030   3.8205990 104.2260030  52.0482700   3.1064220
 104.3598790  52.1633810   4.6099870  96.8230900  54.2222980   5.2363870
  96.1147050  54.6909320   5.6777480  97.1075380  53.5644990   5.8709060
  98.4486830  55.6419680  13.2356400  98.9472080  56.1165500  13.9008250
  98.5909780  54.7183200  13.4426430 100.8546330  50.9473640   6.6759660
 100.7314110  50.9659770   5.7269170 101.8030890  50.9952580   6.7958060
  97.9423120  66.1828940   5.9487640  98.1964620  66.1450330   5.0267010
  96.9935600  66.0562270   5.9415890  95.0265920  52.5308060   2.6114580
  95.8756450  52.9678210   2.5454770  94.6597190  52.8428320   3.4386640
 105.6553690  51.8587640  14.0784790 105.1527290  52.5993040  14.4178600
 106.4710350  52.2471640  13.7621580 103.9475700  57.1020820   7.5246150
 103.0065840  57.1171050   7.6993840 104.2619770  56.3156780   7.9706450
  92.6204100  56.2165490   1.7683000  92.7007690  55.2693000   1.8800400
  93.5123850  56.5472370   1.8743660 105.9501280  64.2729670   9.2000410
 106.0748700  65.0960840   9.6724220 106.8166840  64.0620400   8.8524560
  93.4218810  66.3660880   8.8717540  94.1581290  65.8176340   9.1426110
  93.8059730  67.2316890   8.7323530  90.3064290  62.4334450   4.7459050
  89.3804070  62.6755590   4.7364460  90.7720720  63.2608710   4.6243800
  92.4277090  65.5506950  18.0603120  93.2289820  65.8719000  18.4738520
  91.9128910  65.1902530  18.7823030 101.2641720  61.6586820  18.0078530
 100.6579880  61.6818420  17.2674280 100.9595830  60.9269860  18.5445780
 102.6942090  65.3867110  16.6187940 103.6463840  65.3025130  16.5688180
 102.5470310  66.0508820  17.2921730 105.5851290  64.7661320   2.1179850
 105.2992800  64.3526460   1.3034030 105.3870840  65.6949030   1.9980370
  90.1474900  58.0380410  17.0039170  90.6513920  57.4587690  17.5755400
  89.4082320  58.3220640  17.5415540  97.2012840  59.4451400  16.5374690
  96.4358510  60.0136400  16.4529360  97.3828800  59.1527610  15.6442920
 104.3436190  61.1756730  17.0949710 105.0845660  61.5132490  16.5917170
 103.5808870  61.3448790  16.5419480  92.1797980  56.1810000  17.8989240
  92.2203320  55.8823870  18.8074470  93.0343480  56.5817610  17.7396760
  95.9576370  58.7805550   3.0592750  96.3792790  58.6145420   3.9024140
  96.0827210  57.9705780   2.5647890  94.1203790  54.7602100  15.8663730
  93.5900250  54.2693050  15.2387070  94.7891860  55.1886300  15.3321660
 103.0181850  59.2271560  15.6304920 103.4322870  59.3816640  16.4795340
 102.0832850  59.3526780  15.7930700 103.4904020  56.5667720  17.6344070
 104.0724790  55.8120040  17.5464550 103.6665790  57.0975160  16.8575550
  94.6076090  51.7264470  15.9461020  94.5132960  51.1085220  15.2211890
  94.0273480  52.4530760  15.7190930  97.3737530  50.2837710  12.9788410
  96.9254830  50.3061970  12.1333960  96.7402730  49.8856730  13.5758710
  97.7797080  59.1792040  13.6000850  98.1985190  60.0224770  13.4277090
  96.8605710  59.3164080  13.3707630 100.1160980  56.9108220  14.9838690
 100.2357190  56.3149360  15.7233530 100.9754980  56.9477910  14.5639990
 102.4548880  57.4645410  13.5601200 101.9284100  57.9888030  12.9566340
 102.7980220  58.0972800  14.1910930  95.6304500  65.4845050  14.7158580
  95.0925590  66.2091110  14.3967280  95.8838460  65.0075390  13.9255920
  96.8829750  53.4529570  16.2414510  97.4729440  53.1445420  16.9292330
  96.0649990  52.9809320  16.3974410 101.7023180  53.0695380  16.4747530
 101.0138700  52.4076920  16.4097520 102.4229200  52.6233650  16.9195990
 102.3323580  49.6647010   2.5337790 102.6125870  48.8214910   2.8897210
 101.5589310  49.8970120   3.0476540  98.4866710  66.7196260  14.9745230
  98.4125410  67.6231400  15.2817600  97.5845550  66.4008160  14.9467300
  99.0352040  65.8854770   2.5971590  99.9302830  66.2239740   2.6190350
  99.0669670  65.1634180   1.9695870  89.8894000  64.0470850   8.2778850
  90.2197010  63.1791910   8.0457490  90.3185000  64.2529370   9.1083810
  94.4855920  62.3779860   5.9380820  94.1851460  62.2544830   6.8384730
  94.3793410  61.5188450   5.5296550  90.3784210  64.9141440  11.0160480
  89.9415200  65.0942240  11.8484630  90.9461890  65.6716060  10.8742200
 106.0146390  64.4158440  15.3037790 105.4148380  64.4751000  14.5601710
 106.1440290  63.4763420  15.4334640 106.7104300  58.9023740   3.1441700
 107.4723210  59.4720390   3.2501390 106.7258670  58.3350940   3.9150010
  90.2108640  57.4261670   7.3749360  89.5557480  57.1573310   6.7309060
  91.0486590  57.3166150   6.9251340 107.7164270  59.7573840   7.9883630
 108.0873100  58.9741160   7.5819600 108.3566200  60.4462940   7.8100930
 104.6998030  61.1410420  13.4013950 103.8857870  61.5707580  13.6639740
 105.1072230  61.7528830  12.7883000 106.6588810  57.1327100   5.2943650
 106.2832410  56.3655030   4.8624940 105.9291930  57.5149800   5.7818580
  91.2484570  57.8114240  11.9152700  91.6157610  57.7241640  12.7948720
  90.6795390  57.0480790  11.8159560 106.0488430  56.2798620  14.9283170
 105.8174520  56.0511370  14.0281120 106.3092980  57.1998170  14.8828060
  90.8000570  54.7223330  15.8211120  89.9056620  54.6890090  16.1604830
  91.3398120  54.9210120  16.5862370 104.4876500  51.5055050  17.7062870
 105.3646680  51.5138450  18.0896870 104.4997340  50.7685890  17.0955220
  89.4246720  54.6360600   3.3174690  88.5210800  54.8990800   3.1426350
  89.9087340  54.9071770   2.5374650 105.9339770  55.3584590   8.5950890
 106.4577250  54.8647240   7.9641060 106.5199190  55.4934950   9.3398460
 106.1129490  55.4424460  12.1170440 105.1632200  55.4088000  12.2315430
 106.2942500  56.3524570  11.8820210 105.4239740  54.6157940   4.5343300
 105.9198860  54.3828810   5.3192180 105.2255810  53.7769780   4.1180940
  91.3040280  48.9971660  10.1694340  91.9516470  48.4469040   9.7289500
  91.7242120  49.2514810  10.9910150 106.8526900  53.2518890   7.0680980
 106.7426180  53.0974930   8.0063250 107.6134490  52.7239830   6.8256390
 105.1992620  49.1913020  13.5263980 105.8364840  49.8047160  13.8923170
 105.3467510  49.2273680  12.5813210 107.8155660  51.8537470   2.9343830
 107.0207160  51.7882590   3.4636740 108.0198940  52.7888110   2.9229180
 104.7574080  65.8929020   6.9282220 105.3533150  65.5713590   6.2516640
 105.0152230  65.4200840   7.7195490  91.0572280  49.1527330  12.9119660
  90.7087100  49.6091150  13.6777840  90.7259980  48.2584460  12.9942090
  92.6636650  62.3246930  17.0772850  92.6206280  61.9539840  17.9587310
  92.7947660  63.2624500  17.2174670  96.3642680  63.8806520  12.6782570
  96.1234040  64.1481080  11.7913090  97.3045320  64.0512250  12.7333430
  98.5697100  50.3439210  16.4339080  98.5085990  50.9361040  17.1834490
  99.5097480  50.2365170  16.2889340 101.2071660  50.0009270  16.0731370
 101.8212070  50.3188560  15.4112450 101.7521220  49.5157860  16.6927230
 107.6246840  65.9000900  13.4793210 107.1305120  66.2969770  12.7620340
 107.0160130  65.2750110  13.8730490  91.7292920  48.6803530  16.1870430
  92.2775910  48.4991580  15.4236540  91.7948230  47.8897640  16.7226740
  92.5024680  65.2709180  14.1970630  91.9085000  65.1393880  14.9360670
  92.4948520  64.4347320  13.7312730 101.9479700  48.5641410  12.4000660
 101.0739540  48.8976520  12.1973590 101.8390450  48.0914590  13.2252530
 102.8551680  50.7712280  13.7842380 102.5265040  49.9564040  13.4044110
 103.8033980  50.7282090  13.6608070 105.3086290  66.5424320  10.7579950
 104.8489260  67.2940130  10.3837970 104.6798750  65.8230790  10.6994750
  92.1336910  62.6367560  13.1478670  91.4070970  62.0172850  13.0804620
  92.1946060  63.0308170  12.2776750  95.7382010  64.8512560   9.9328080
  96.2547030  64.2399920   9.4076340  96.3879390  65.3541340  10.4239090
  98.4777510  65.7421050  10.7597060  98.7655320  65.4875350   9.8830070
  98.9900730  65.1898410  11.3502630  99.6954520  49.4811250  11.3393570
  98.9126310  49.9556750  11.6190330  99.4017450  48.5766080  11.2306750
 104.2475590  50.1834350   9.3842660 104.6883680  50.1279450   8.5364260
 103.9783180  51.0992360   9.4552840 106.1114160  49.8149590   7.3951480
 106.0502560  48.8710810   7.2482500 106.8906190  49.9229680   7.9404940
  90.4166910  65.9541950   6.3575430  90.2488950  65.3212630   7.0557320
  89.5501420  66.1601350   6.0069620  91.0394930  49.7858730   3.8607290
  91.7974290  49.8987610   3.2871320  90.5772100  50.6227930   3.8150720
  97.5808740  51.8998000   6.8509600  96.7683250  51.5254890   6.5105480
  98.0850380  51.1443080   7.1530790 102.0833720  48.5640450   8.0892670
 102.6863090  49.1360660   8.5641190 101.3426710  49.1279890   7.8666570
 105.2268320  48.9662010   3.3632950 105.4218950  49.8645460   3.6300380
 104.4398190  48.7349090   3.8565900  92.0229610  64.6475180   3.8025570
  91.4977230  65.0283210   3.0987530  91.9474190  65.2725950   4.5235280
  93.4120080  50.3122780   2.4009260  93.9412840  49.5252580   2.2717210
  94.0448400  50.9913970   2.6344790  95.6057920  50.0497920   5.4554650
  94.9760660  49.3485230   5.6224780  95.0663060  50.8102050   5.2387810
  98.5449870  66.6637150  18.1265260  99.4717180  66.4281420  18.1701220
  98.5300300  67.4909150  17.6451290 106.7794930  66.2062720   5.1239510
 106.9547120  65.5200460   4.4800430 106.0816500  66.7309770   4.7316180
  95.7313480  49.3281900  17.8907140  95.4497750  49.8315500  17.1267960
  96.1133180  48.5303650  17.5249270  94.6222580  66.5957560   2.6774820
  95.3541400  66.3116840   2.1298710  94.8816250  66.3570840   3.5674200
  93.7837370  62.7122290   2.6821150  93.1546250  63.1807390   3.2306980
  93.8985200  61.8671510   3.1167340 102.3328940  48.7435480  18.4687610
 102.2194390  49.0630090  19.3639130 103.1498680  49.1447990  18.1724890
 105.1127430  65.8907010  17.9506300 105.9052750  65.3956240  17.7432260
 105.4060580  66.5697150  18.5581910 101.2387090  37.9884460 101.4783290
 101.1581140  37.0739070 101.2075000 100.8251510  38.4851530 100.7723000
  99.3705130  39.7663480 103.3592560  98.5947230  39.2863920 103.6491130
 100.0218060  39.0869130 103.1848720  93.3870960  40.0783290 104.2368320
  92.5555840  39.8232000 104.6364830  93.9951940  40.1494060 104.9726240
 103.3912560  44.1723670 102.1391690 102.9294090  43.4010910 102.4678860
 104.2038110  44.1989740 102.6444140  93.3672220  44.1123380 104.4326340
  93.6700260  43.2221120 104.2536560  94.1115810  44.6693600 104.2048590
  91.7962910  35.0385180  98.0210710  90.9079610  35.3801150  97.9190590
  92.0804100  34.8385500  97.1291540  89.7595920  37.6390830 103.9050410
  90.3312030  36.8713030 103.9054050  89.7597460  37.9379590 102.9957020
  99.6175870  46.4581680 101.7595680  98.9987310  46.9139180 101.1890120
 100.4727650  46.6133140 101.3585380  98.8114120  42.4420670 103.3662720
  98.7422400  41.5010610 103.2051850  99.5733980  42.5322080 103.9385290
  91.0020790  33.0475190 105.6919340  90.8223630  32.1500940 105.9722100
  90.6000870  33.5947060 106.3666290  99.8419290  35.2491050 103.5931650
 100.2184110  34.3762930 103.4805320  99.7438800  35.5849750 102.7022090
  93.9724300  33.6216680  99.0549090  94.0791050  34.5220410  99.3617850
  93.0616660  33.5734650  98.7643740 103.6243410  32.7441490 100.5259990
 104.4453030  32.2538060 100.5685470 103.6577490  33.3339150 101.2791830
  91.6207460  35.5435690 104.3001680  92.3017570  35.8074060 104.9189080
  91.3055510  34.7036560 104.6339690  95.8132030  36.5903050 103.3874270
  96.3210250  37.0884020 104.0279290  96.3445270  35.8138250 103.2113630
 107.9142960  34.7608240 107.0903620 107.2095130  35.1489950 106.5718730
 108.1800880  35.4558530 107.6924550  94.0968130  31.2301610 107.6537690
  94.0986570  31.7474000 106.8483590  93.2672440  30.7531790 107.6307620
 100.4839220  41.3420920  99.1527590  99.8656490  41.8070370  98.5890310
 100.9962470  42.0348400  99.5697100  95.3470980  40.8696790 105.8311190
  95.0140360  41.4965710 106.4732260  95.5237660  41.3958670 105.0512860
 103.8604890  34.6841870 103.2987530 103.1560460  34.9726760 103.8790640
 104.2217050  35.4941980 102.9387090  93.7783460  32.9411570 105.6608140
  94.1200270  33.7853620 105.3662010  92.8399270  33.0895310 105.7773480
  94.5590080  42.8377590 107.6460370  95.1764080  43.5128670 107.3644820
  93.6983200  43.2465570 107.5547870  89.8522420  42.0277450  96.5267220
  89.4750400  42.5164550  95.7952120  90.1095490  42.7002730  97.1573750
 105.4767670  44.3017000 105.5615010 104.7931190  44.9716110 105.5531680
 106.0161960  44.4997650 104.7959870 106.9291810  34.1296660 103.6896740
 105.9816720  34.1635640 103.8212170 107.2541800  34.9435610 104.0746100
  97.4611350  30.4293840 101.9852730  97.7686330  29.8740730 101.2688230
  96.5312050  30.5638300 101.8025720 103.0126410  46.1461130 104.2760190
 103.0253570  45.7423420 103.4082450 102.4601630  46.9208420 104.1721620
 104.3071830  42.8677350  99.3650360 104.1968160  41.9251680  99.4899780
 104.3040080  43.2292990 100.2513120 102.4111850  41.0490970 105.6042800
 102.8280640  40.8351080 104.7696260 103.1351670  41.3063760 106.1751420
  99.8492110  38.4942670  98.7212850  98.9221390  38.4280050  98.9501320
 100.0016930  39.4322800  98.6068090  99.8361190  34.7659670  95.7180010
  98.8964860  34.9273630  95.8032470 100.1544450  35.4845350  95.1716000
 106.3573950  39.4478190 105.6959040 105.5292580  39.5171280 105.2209170
 106.9524430  40.0332500 105.2274870 103.8789400  40.0562970  99.2248100
 103.2601820  39.7182520  98.5774400 103.8613850  39.4122730  99.9327290
 103.3215960  36.2347510 106.6413910 102.9087140  37.0601220 106.8953900
 102.5891910  35.6492550 106.4490270  95.4548750  39.0207410 101.5032580
  95.0505750  38.3084660 101.0078480  95.5411870  38.6760650 102.3920620
  95.9230450  42.7074970 103.6671790  95.6258740  42.1020440 102.9879570
  96.8730270  42.7452280 103.5561150  94.1677370  35.7950620 105.2831620
  94.7191960  35.9045960 104.5084870  94.6820880  36.1688220 105.9986850
 104.0116060  46.2806840 107.3294890 103.5346620  47.0879030 107.1367500
 103.3277850  45.6285170 107.4821100  95.0148880  42.4456660 110.3179590
  94.1177410  42.6696630 110.5652990  95.0401750  42.5691600 109.3690990
 102.0554100  39.2949780  96.2320850 102.4947380  38.4572210  96.0858670
 102.7682520  39.9279180  96.3184990  93.8420100  39.3169980 108.8936960
  93.7027870  40.1892780 109.2624360  92.9601460  38.9742790 108.7484900
 100.1649480  44.2345850 100.2002090 100.6045390  44.9770180  99.7857480
 100.1036370  44.4772420 101.1241050 105.6371240  30.5492590  94.5461890
 105.3243900  30.6419420  95.4460960 106.3983710  31.1273620  94.4959320
  92.1553380  37.9152390  99.0039230  92.0350980  38.6414480  98.3920500
  91.8454270  37.1455300  98.5267140  89.7938750  41.0867530 104.8107870
  89.8719170  41.2216300 103.8663590  90.4080430  40.3783420 105.0035990
  91.0386380  42.7867720 101.2214050  90.6314460  42.9282310 100.3667650
  91.9299390  42.5027880 101.0185260 106.9948520  43.2331630 109.5586290
 107.1211580  42.9943510 108.6403470 107.0369900  42.4016170 110.0308370
 100.8565260  46.9359630 108.1281100 101.3709930  46.8467640 108.9303530
 100.0134340  47.2819330 108.4209010 102.8319660  47.2214970  97.5565100
 102.6720800  46.9317910  98.4546930 102.6666370  46.4455100  97.0210330
  95.3108040  47.0013500  99.3336720  95.1350520  46.0849040  99.1204520
  94.4563780  47.3600790  99.5734520 102.5345790  44.7302530  96.1163100
 101.8410950  44.7279820  95.4565380 103.2768650  44.3061850  95.6857270
 102.0995720  46.3565240 100.1911590 102.5552670  45.5754620 100.5050210
 102.4388240  47.0672060 100.7352770 106.8472530  35.2864090 110.5236030
 106.2316800  35.7943760 109.9951490 106.5268950  34.3862420 110.4661970
  89.8498270  42.1281700 107.3502330  90.0129310  41.6587060 106.5321700
  90.3150720  41.6205260 108.0151170  94.6217040  31.2587460 102.3862900
  94.1785190  32.0397000 102.0547420  95.1802030  31.5817350 103.0933840
  98.9086850  34.1255980 107.9898220  98.4466220  34.3339000 108.8018160
  98.5064960  33.3115330 107.6868890 103.9091360  35.3464930 109.1194880
 103.0584950  35.0470680 109.4403950 103.7493150  35.5906940 108.2078700
  97.7375860  30.8798160  97.2668730  97.1130040  30.8758030  97.9922040
  97.6505980  30.0129120  96.8704700  96.6592940  31.8034790 104.2452500
  96.9565270  32.7097620 104.1644520  97.2078500  31.3153570 103.6312070
  94.4131260  36.3821030 100.1144150  94.1872180  36.1658200 101.0190770
  93.6323790  36.8149490  99.7690120 101.6429020  36.3884400  98.7134800
 101.0437910  37.1120200  98.5298420 102.1908630  36.3261180  97.9311250
  96.8530470  37.2806610 110.7804420  96.7574070  36.3401340 110.6304820
  97.6962450  37.5021680 110.3852490 100.2493890  35.0247940 100.7438080
 100.6423460  35.3420140  99.9306770 100.6110740  34.1459820 100.8582600
  91.9841010  33.6920280 108.9338200  91.5904400  34.5395490 109.1410980
  91.2959410  33.0546650 109.1246840  89.2858060  31.6148740 102.9668280
  88.9971110  32.1851600 103.6793260  90.0303820  31.1353190 103.3299510
  89.4728290  35.5568860  94.1771000  89.3902960  36.4999620  94.3185990
  89.1211350  35.4143770  93.2983350 100.8349030  37.6153690 104.8388860
 100.1030150  38.1240500 105.1878960 100.4373370  36.7983670 104.5377640
  97.2726420  34.2907890 103.2441350  97.2762480  33.8497840 102.3945890
  98.1677540  34.6125220 103.3513170  93.1228800  34.1734380 102.2035560
  92.7828850  34.6509610 102.9602610  92.3606120  33.7199500 101.8436660
  97.3346570  35.2919970  96.2348110  97.4559390  35.2506450  97.1833930
  96.9495080  36.1544120  96.0794840 101.2974940  33.0687370 104.2511800
 101.3147680  33.5196020 105.0953650 101.0490520  32.1693010 104.4645240
  96.3468070  37.6021110  95.6331410  95.7784970  37.1539360  95.0067320
  97.0557070  37.9613890  95.0996560 104.7245690  30.4819550 110.0898180
 105.0491460  29.7509210 110.6156160 104.7602200  30.1633190 109.1879170
  91.4237250  41.5033130 109.5098140  91.0392040  40.8626800 110.1081100
  91.7349440  42.2069250 110.0792870  97.5734390  38.3509670 104.9906760
  97.9404520  37.8768240 105.7368100  97.3839450  39.2251240 105.3315100
  90.4374880  33.0953360 101.1200230  90.1521800  32.7309030 101.9578850
  90.3753740  32.3633820 100.5063370  95.3633760  37.3918310 107.3090970
  95.0590830  38.2710290 107.5341330  96.3180220  37.4518100 107.3448410
  93.8915550  41.5979300  97.9057820  93.1177810  41.0576920  97.7456540
  94.6210180  41.0785910  97.5675580 104.6503530  40.5944660 103.6984210
 105.3702650  41.0899950 103.3080320 104.4485350  39.9162550 103.0538080
 100.1113470  31.9882620  97.8413600  99.2978080  31.4895790  97.7658910
  99.9175420  32.8280870  97.4249950 100.0322330  40.6653720 109.5853210
  99.9659640  39.7449390 109.3310800  99.4027470  40.7629160 110.2997850
 102.8261860  36.3602270  96.1375760 103.7141480  36.6719500  95.9627100
 102.7966950  35.4874520  95.7456340  93.9352950  41.2659680 101.5436630
  94.4531620  40.4627940 101.4893520  93.4836970  41.2038820 102.3853460
  98.8222450  42.5325960  96.8163930  99.1638150  43.2768190  96.3207250
  97.9935160  42.8457080  97.1788760  91.4197490  38.2321050 108.4562330
  91.0612430  38.8974900 109.0435670  91.1252050  37.4004600 108.8274950
  99.9639060  43.4874290 109.3357010  99.9783600  42.5555250 109.1175920
  99.2564160  43.5734050 109.9746780 105.0976130  37.6714110  95.6055620
 105.0139850  38.1028330  94.7552060 105.8170320  38.1312460  96.0382440
 106.1750270  40.1281630 108.6825590 105.4498460  40.7210410 108.4854980
 106.7025730  40.1205170 107.8838960 106.1263380  44.5256370  98.3337750
 105.4839540  43.8711990  98.6081470 105.7394040  44.9311460  97.5578420
 101.7049860  41.8541800 102.1809440 102.0573680  41.2569930 101.5210810
 100.8212190  41.5286030 102.3517690  97.7913140  42.6139490  99.5879850
  98.4784270  43.1608700  99.9687440  97.0045560  43.1580220  99.6229460
  89.9305540  38.2312310  95.0796930  90.8000390  38.5137110  95.3632850
  89.4395860  39.0448180  94.9645740  97.0940350  39.6185520  99.2005210
  97.5503130  40.4290770  99.4265400  96.7428560  39.3008660 100.0323700
  99.3972960  45.1291860 106.4297510 100.0415180  45.3351240 107.1070930
  99.7602400  44.3680260 105.9768360  92.9952130  29.9623170  99.6727730
  92.8666760  29.9541070 100.6212650  92.1714150  30.3006260  99.3218740
 100.6705040  43.1324210 105.1474960 101.3127270  42.4317370 105.2607130
 101.1954390  43.9122650 104.9671850 104.5160760  43.4172830  94.8714100
 104.2898340  42.7003270  95.4638740 104.1256960  43.1685270  94.0335850
 102.4442660  43.9319110 108.3511020 102.7798900  44.5185800 109.0288940
 101.5243000  43.8011820 108.5808810  90.2976790  47.4439690  95.6458560
  90.6574430  48.0429030  94.9915830  90.1569130  47.9899580  96.4193590
  89.9946060  31.7214290 109.1334430  89.2804580  31.9211210 109.7387040
  90.4141100  30.9453860 109.5049230 104.0977010  41.3344770  96.5328260
 103.8098710  41.7957460  97.3206140 104.8929180  40.8742540  96.8012480
  90.2818650  45.7094550 110.1200960  90.3909770  44.7689290 109.9796350
  89.6299210  45.9749300 109.4714690  96.3145410  44.8270890  96.4632230
  96.3055510  45.5600580  95.8476740  95.3943770  44.5802470  96.5559190
  91.9152050  40.0485780  97.2078990  91.3080000  40.7884680  97.2174290
  92.3901400  40.1385140  96.3817190 101.4884840  34.2136600 106.8835880
 101.8565660  33.3931810 107.2115450 100.6283040  34.2738490 107.2991530
 104.8546870  33.1693540  97.6923440 104.2260030  33.2739210  96.9781670
 104.3598790  33.3890320  98.4817320  99.3005010  44.8899130  95.1257420
  99.4016990  44.6863120  94.1959400  98.4006750  44.6357410  95.3305200
  96.8230900  35.4479490  99.1081320  96.1147050  35.9165830  99.5494930
  97.1075380  34.7901500  99.7426510  98.4486830  36.8676190 107.1073850
  98.9472080  37.3422010 107.7725700  98.5909780  35.9439710 107.3143880
 100.8546330  32.1730150 100.5477110 100.7314110  32.1916280  99.5986620
 101.8030890  32.2209090 100.6675510  97.9423120  47.4085450  99.8205090
  98.1964620  47.3706840  98.8984460  96.9935600  47.2818780  99.8133340
  95.0265920  33.7564570  96.4832030  95.8756450  34.1934720  96.4172220
  94.6597190  34.0684830  97.3104090 105.6553690  33.0844150 107.9502240
 105.1527290  33.8249550 108.2896050 106.4710350  33.4728150 107.6339030
 103.9475700  38.3277330 101.3963600 103.0065840  38.3427560 101.5711290
 104.2619770  37.5413290 101.8423900  93.9257340  40.0096930  94.9567560
  94.6920610  39.8978290  95.5192990  94.0032030  39.3134900  94.3044330
  92.6204100  37.4422000  95.6400450  92.7007690  36.4949510  95.7517850
  93.5123850  37.7728880  95.7461110 105.9501280  45.4986180 103.0717860
 106.0748700  46.3217350 103.5441670 106.8166840  45.2876910 102.7242010
  93.4218810  47.5917390 102.7434990  94.1581290  47.0432850 103.0143560
  93.8059730  48.4573400 102.6040980  90.3064290  43.6590960  98.6176500
  89.3804070  43.9012100  98.6081910  90.7720720  44.4865220  98.4961250
  96.5321120  46.7647700  94.5660560  97.3249730  47.0536530  94.1142350
  96.0125470  46.3339870  93.8873040 105.5851290  45.9917830  95.9897300
 105.2992800  45.5782970  95.1751480 105.3870840  46.9205540  95.8697820
  97.0498520  41.9851110  94.4302910  96.9449160  41.3703460  95.1564290
  96.8822740  41.4617000  93.6465920  97.2012840  40.6707910 110.4092140
  96.4358510  41.2392910 110.3246810  97.3828800  40.3784120 109.5160370
 100.2901250  41.0471140  95.0344900  99.7411350  41.4940440  95.6787640
 100.9120510  40.5420390  95.5582570 104.3436190  42.4013240 110.9667160
 105.0845660  42.7389000 110.4634620 103.5808870  42.5705300 110.4136930
  95.9576370  40.0062060  96.9310200  96.3792790  39.8401930  97.7741590
  96.0827210  39.1962290  96.4365340  94.1203790  35.9858610 109.7381180
  93.5900250  35.4949560 109.1104520  94.7891860  36.4142810 109.2039110
  98.4704010  39.0299670  94.1787300  98.9909670  38.3148690  93.8128450
  99.1172410  39.6685540  94.4787810 103.0181850  40.4528070 109.5022370
 103.4322870  40.6073150 110.3512790 102.0832850  40.5783290 109.6648150
  94.6076090  32.9520980 109.8178470  94.5132960  32.3341730 109.0929340
  94.0273480  33.6787270 109.5908380  97.3737530  31.5094220 106.8505860
  96.9254830  31.5318480 106.0051410  96.7402730  31.1113240 107.4476160
  97.7797080  40.4048550 107.4718300  98.1985190  41.2481280 107.2994540
  96.8605710  40.5420590 107.2425080 100.1160980  38.1364730 108.8556140
 100.2357190  37.5405870 109.5950980 100.9754980  38.1734420 108.4357440
 102.4548880  38.6901920 107.4318650 101.9284100  39.2144540 106.8283790
 102.7980220  39.3229310 108.0628380  94.8535270  36.0795290  93.8768360
  94.6524330  35.2162650  94.2381700  94.6827320  35.9928650  92.9389960
  95.6304500  46.7101560 108.5876030  95.0925590  47.4347620 108.2684730
  95.8838460  46.2331900 107.7973370  96.8829750  34.6786080 110.1131960
  97.4729440  34.3701930 110.8009780  96.0649990  34.2065830 110.2691860
 101.7023180  34.2951890 110.3464980 101.0138700  33.6333430 110.2814970
 102.4229200  33.8490160 110.7913440 102.3323580  30.8903520  96.4055240
 102.6125870  30.0471420  96.7614660 101.5589310  31.1226630  96.9193990
  93.6518070  33.1795910  93.8646240  93.9543970  33.1863340  92.9565390
  94.3912660  32.8293770  94.3613900  98.4866710  47.9452770 108.8462680
  98.4125410  48.8487910 109.1535050  97.5845550  47.6264670 108.8184750
  96.8703000  32.1230530  94.8502440  96.5225000  31.4454520  94.2704890
  97.0715770  31.6620040  95.6645830  99.0352040  47.1111280  96.4689040
  99.9302830  47.4496250  96.4907800  99.0669670  46.3890690  95.8413320
  92.6748200  42.4838330  94.6976040  93.1123070  43.0268000  95.3533620
  93.1595930  41.6585280  94.7072380  89.8894000  45.2727360 102.1496300
  90.2197010  44.4048420 101.9174940  90.3185000  45.4785880 102.9801260
  94.4855920  43.6036370  99.8098270  94.1851460  43.4801340 100.7102180
  94.3793410  42.7444960  99.4014000  90.3784210  46.1397950 104.8877930
  89.9415200  46.3198750 105.7202080  90.9461890  46.8972570 104.7459650
 106.0146390  45.6414950 109.1755240 105.4148380  45.7007510 108.4319160
 106.1440290  44.7019930 109.3052090 107.2547840  43.3832770  94.5124950
 106.4240800  43.4509420  94.9832180 107.4319670  44.2736890  94.2091810
 106.7104300  40.1280250  97.0159150 107.4723210  40.6976900  97.1218840
 106.7258670  39.5607450  97.7867460  90.2108640  38.6518180 101.2466810
  89.5557480  38.3829820 100.6026510  91.0486590  38.5422660 100.7968790
 107.7164270  40.9830350 101.8601080 108.0873100  40.1997670 101.4537050
 108.3566200  41.6719450 101.6818380 104.6998030  42.3666930 107.2731400
 103.8857870  42.7964090 107.5357190 105.1072230  42.9785340 106.6600450
 106.7623470  40.4214620  94.1731670 107.0372310  41.3293500  94.0450890
 106.5734210  40.3577150  95.1093660 103.1599080  33.4459470  95.4685300
 103.5783960  33.2590450  94.6281960 102.8535140  32.5938520  95.7788230
 106.6588810  38.3583610  99.1661100 106.2832410  37.5911540  98.7342390
 105.9291930  38.7406310  99.6536030  91.2484570  39.0370750 105.7870150
  91.6157610  38.9498150 106.6666170  90.6795390  38.2737300 105.6877010
 106.0488430  37.5055130 108.8000620 105.8174520  37.2767880 107.8998570
 106.3092980  38.4254680 108.7545510  90.8000570  35.9479840 109.6928570
  89.9056620  35.9146600 110.0322280  91.3398120  36.1466630 110.4579820
  89.4246720  35.8617110  97.1892140  88.5210800  36.1247310  97.0143800
  89.9087340  36.1328280  96.4092100 105.9339770  36.5841100 102.4668340
 106.4577250  36.0903750 101.8358510 106.5199190  36.7191460 103.2115910
 106.1129490  36.6680970 105.9887890 105.1632200  36.6344510 106.1032880
 106.2942500  37.5781080 105.7537660  91.9673930  34.9182650  95.0986520
  92.6765630  34.4965870  94.6133800  91.2513870  34.9857880  94.4669870
  91.6148090  30.9721980  94.1389170  92.3376220  31.5130920  94.4570390
  91.8872610  30.6985400  93.2630710 105.4239740  35.8414450  98.4060750
 105.9198860  35.6085320  99.1909630 105.2255810  35.0026290  97.9898390
  91.3040280  30.2228170 104.0411790  91.9516470  29.6725550 103.6006950
  91.7242120  30.4771320 104.8627600 106.8526900  34.4775400 100.9398430
 106.7426180  34.3231440 101.8780700 107.6134490  33.9496340 100.6973840
 105.1992620  30.4169530 107.3981430 105.8364840  31.0303670 107.7640620
 105.3467510  30.4530190 106.4530660 107.7417170  32.3083320  94.1804570
 108.6666480  32.1764500  93.9722860 107.7192960  32.3876140  95.1341020
 107.8155660  33.0793980  96.8061280 107.0207160  33.0139100  97.3354190
 108.0198940  34.0144620  96.7946630 104.7574080  47.1185530 100.7999670
 105.3533150  46.7970100 100.1234090 105.0152230  46.6457350 101.5912940
  91.0572280  30.3783840 106.7837110  90.7087100  30.8347660 107.5495290
  90.7259980  29.4840970 106.8659540  96.3642680  45.1063030 106.5500020
  96.1234040  45.3737590 105.6630540  97.3045320  45.2768760 106.6050880
 101.2071660  31.2265780 109.9448820 101.8212070  31.5445070 109.2829900
 101.7521220  30.7414370 110.5644680 107.6246840  47.1257410 107.3510660
 107.1305120  47.5226280 106.6337790 107.0160130  46.5006620 107.7447940
  91.7292920  29.9060040 110.0587880  92.2775910  29.7248090 109.2953990
  91.7948230  29.1154150 110.5944190  92.5024680  46.4965690 108.0688080
  91.9085000  46.3650390 108.8078120  92.4948520  45.6603830 107.6030180
 101.9479700  29.7897920 106.2718110 101.0739540  30.1233030 106.0691040
 101.8390450  29.3171100 107.0969980 102.8551680  31.9968790 107.6559830
 102.5265040  31.1820550 107.2761560 103.8033980  31.9538600 107.5325520
 105.3086290  47.7680830 104.6297400 104.8489260  48.5196640 104.2555420
 104.6798750  47.0487300 104.5712200  92.1336910  43.8624070 107.0196120
  91.4070970  43.2429360 106.9522070  92.1946060  44.2564680 106.1494200
  95.7382010  46.0769070 103.8045530  96.2547030  45.4656430 103.2793790
  96.3879390  46.5797850 104.2956540  98.4777510  46.9677560 104.6314510
  98.7655320  46.7131860 103.7547520  98.9900730  46.4154920 105.2220080
  99.6954520  30.7067760 105.2111020  98.9126310  31.1813260 105.4907780
  99.4017450  29.8022590 105.1024200 104.2475590  31.4090860 103.2560110
 104.6883680  31.3535960 102.4081710 103.9783180  32.3248870 103.3270290
 106.1114160  31.0406100 101.2668930 106.0502560  30.0967320 101.1199950
 106.8906190  31.1486190 101.8122390  90.4166910  47.1798460 100.2292880
  90.2488950  46.5469140 100.9274770  89.5501420  47.3857860  99.8787070
  91.0394930  31.0115240  97.7324740  91.7974290  31.1244120  97.1588770
  90.5772100  31.8484440  97.6868170  97.5808740  33.1254510 100.7227050
  96.7683250  32.7511400 100.3822930  98.0850380  32.3699590 101.0248240
 102.0833720  29.7896960 101.9610120 102.6863090  30.3617170 102.4358640
 101.3426710  30.3536400 101.7384020 105.2268320  30.1918520  97.2350400
 105.4218950  31.0901970  97.5017830 104.4398190  29.9605600  97.7283350
  92.0229610  45.8731690  97.6743020  91.4977230  46.2539720  96.9704980
  91.9474190  46.4982460  98.3952730  93.4120080  31.5379290  96.2726710
  93.9412840  30.7509090  96.1434660  94.0448400  32.2170480  96.5062240
  95.6057920  31.2754430  99.3272100  94.9760660  30.5741740  99.4942230
  95.0663060  32.0358560  99.1105260 106.7794930  47.4319230  98.9956960
 106.9547120  46.7456970  98.3517880 106.0816500  47.9566280  98.6033630
  94.6222580  47.8214070  96.5492270  95.3541400  47.5373350  96.0016160
  94.8816250  47.5827350  97.4391650  93.7837370  43.9378800  96.5538600
  93.1546250  44.4063900  97.1024430  93.8985200  43.0928020  96.9884790
 101.2387090  37.9884460  82.7039800 101.1581140  37.0739070  82.4331510
 100.8251510  38.4851530  81.9979510  99.3705130  39.7663480  84.5849070
  98.5947230  39.2863920  84.8747640 100.0218060  39.0869130  84.4105230
  93.3870960  40.0783290  85.4624830  92.5555840  39.8232000  85.8621340
  93.9951940  40.1494060  86.1982750 103.3912560  44.1723670  83.3648200
 102.9294090  43.4010910  83.6935370 104.2038110  44.1989740  83.8700650
  93.3672220  44.1123380  85.6582850  93.6700260  43.2221120  85.4793070
  94.1115810  44.6693600  85.4305100  91.7962910  35.0385180  79.2467220
  90.9079610  35.3801150  79.1447100  92.0804100  34.8385500  78.3548050
  89.7595920  37.6390830  85.1306920  90.3312030  36.8713030  85.1310560
  89.7597460  37.9379590  84.2213530  99.6175870  46.4581680  82.9852190
  98.9987310  46.9139180  82.4146630 100.4727650  46.6133140  82.5841890
  98.8114120  42.4420670  84.5919230  98.7422400  41.5010610  84.4308360
  99.5733980  42.5322080  85.1641800  91.0020790  33.0475190  86.9175850
  90.8223630  32.1500940  87.1978610  90.6000870  33.5947060  87.5922800
  99.8419290  35.2491050  84.8188160 100.2184110  34.3762930  84.7061830
  99.7438800  35.5849750  83.9278600  93.9724300  33.6216680  80.2805600
  94.0791050  34.5220410  80.5874360  93.0616660  33.5734650  79.9900250
 103.6243410  32.7441490  81.7516500 104.4453030  32.2538060  81.7941980
 103.6577490  33.3339150  82.5048340  91.6207460  35.5435690  85.5258190
  92.3017570  35.8074060  86.1445590  91.3055510  34.7036560  85.8596200
  95.8132030  36.5903050  84.6130780  96.3210250  37.0884020  85.2535800
  96.3445270  35.8138250  84.4370140 107.9142960  34.7608240  88.3160130
 107.2095130  35.1489950  87.7975240 108.1800880  35.4558530  88.9181060
  94.0968130  31.2301610  88.8794200  94.0986570  31.7474000  88.0740100
  93.2672440  30.7531790  88.8564130 100.4839220  41.3420920  80.3784100
  99.8656490  41.8070370  79.8146820 100.9962470  42.0348400  80.7953610
  95.3470980  40.8696790  87.0567700  95.0140360  41.4965710  87.6988770
  95.5237660  41.3958670  86.2769370 103.8604890  34.6841870  84.5244040
 103.1560460  34.9726760  85.1047150 104.2217050  35.4941980  84.1643600
  93.7783460  32.9411570  86.8864650  94.1200270  33.7853620  86.5918520
  92.8399270  33.0895310  87.0029990  94.5590080  42.8377590  88.8716880
  95.1764080  43.5128670  88.5901330  93.6983200  43.2465570  88.7804380
 105.4767670  44.3017000  86.7871520 104.7931190  44.9716110  86.7788190
 106.0161960  44.4997650  86.0216380 106.9291810  34.1296660  84.9153250
 105.9816720  34.1635640  85.0468680 107.2541800  34.9435610  85.3002610
  97.4611350  30.4293840  83.2109240  97.7686330  29.8740730  82.4944740
  96.5312050  30.5638300  83.0282230 103.0126410  46.1461130  85.5016700
 103.0253570  45.7423420  84.6338960 102.4601630  46.9208420  85.3978130
 104.3071830  42.8677350  80.5906870 104.1968160  41.9251680  80.7156290
 104.3040080  43.2292990  81.4769630 102.4111850  41.0490970  86.8299310
 102.8280640  40.8351080  85.9952770 103.1351670  41.3063760  87.4007930
  99.8492110  38.4942670  79.9469360  98.9221390  38.4280050  80.1757830
 100.0016930  39.4322800  79.8324600  99.8361190  34.7659670  76.9436520
  98.8964860  34.9273630  77.0288980 100.1544450  35.4845350  76.3972510
 106.3573950  39.4478190  86.9215550 105.5292580  39.5171280  86.4465680
 106.9524430  40.0332500  86.4531380 103.8789400  40.0562970  80.4504610
 103.2601820  39.7182520  79.8030910 103.8613850  39.4122730  81.1583800
 103.3215960  36.2347510  87.8670420 102.9087140  37.0601220  88.1210410
 102.5891910  35.6492550  87.6746780  95.4548750  39.0207410  82.7289090
  95.0505750  38.3084660  82.2334990  95.5411870  38.6760650  83.6177130
  95.9230450  42.7074970  84.8928300  95.6258740  42.1020440  84.2136080
  96.8730270  42.7452280  84.7817660  94.1677370  35.7950620  86.5088130
  94.7191960  35.9045960  85.7341380  94.6820880  36.1688220  87.2243360
 104.0116060  46.2806840  88.5551400 103.5346620  47.0879030  88.3624010
 103.3277850  45.6285170  88.7077610  95.0148880  42.4456660  91.5436100
  94.1177410  42.6696630  91.7909500  95.0401750  42.5691600  90.5947500
 102.0554100  39.2949780  77.4577360 102.4947380  38.4572210  77.3115180
 102.7682520  39.9279180  77.5441500  93.8420100  39.3169980  90.1193470
  93.7027870  40.1892780  90.4880870  92.9601460  38.9742790  89.9741410
 100.1649480  44.2345850  81.4258600 100.6045390  44.9770180  81.0113990
 100.1036370  44.4772420  82.3497560  95.6400450  45.2591680  92.3278620
  95.6115880  45.6634630  91.4607050  95.4765420  44.3302040  92.1650220
 105.6371240  30.5492590  75.7718400 105.3243900  30.6419420  76.6717470
 106.3983710  31.1273620  75.7215830  92.1553380  37.9152390  80.2295740
  92.0350980  38.6414480  79.6177010  91.8454270  37.1455300  79.7523650
 107.5915270  46.0418780  93.6242790 108.0674990  46.5201670  94.3031870
 108.2122430  45.9736270  92.8988290  89.7938750  41.0867530  86.0364380
  89.8719170  41.2216300  85.0920100  90.4080430  40.3783420  86.2292500
  91.0386380  42.7867720  82.4470560  90.6314460  42.9282310  81.5924160
  91.9299390  42.5027880  82.2441770 106.9948520  43.2331630  90.7842800
 107.1211580  42.9943510  89.8659980 107.0369900  42.4016170  91.2564880
 100.8565260  46.9359630  89.3537610 101.3709930  46.8467640  90.1560040
 100.0134340  47.2819330  89.6465520 102.8319660  47.2214970  78.7821610
 102.6720800  46.9317910  79.6803440 102.6666370  46.4455100  78.2466840
  95.3108040  47.0013500  80.5593230  95.1350520  46.0849040  80.3461030
  94.4563780  47.3600790  80.7991030 102.5345790  44.7302530  77.3419610
 101.8410950  44.7279820  76.6821890 103.2768650  44.3061850  76.9113780
 102.0995720  46.3565240  81.4168100 102.5552670  45.5754620  81.7306720
 102.4388240  47.0672060  81.9609280 106.8472530  35.2864090  91.7492540
 106.2316800  35.7943760  91.2208000 106.5268950  34.3862420  91.6918480
  89.8498270  42.1281700  88.5758840  90.0129310  41.6587060  87.7578210
  90.3150720  41.6205260  89.2407680  94.6217040  31.2587460  83.6119410
  94.1785190  32.0397000  83.2803930  95.1802030  31.5817350  84.3190350
  98.9086850  34.1255980  89.2154730  98.4466220  34.3339000  90.0274670
  98.5064960  33.3115330  88.9125400 103.9091360  35.3464930  90.3451390
 103.0584950  35.0470680  90.6660460 103.7493150  35.5906940  89.4335210
 101.0041070  36.8466680  92.4450180 101.3294480  36.0130430  92.1052410
 101.7921400  37.3695200  92.5928510  97.7375860  30.8798160  78.4925240
  97.1130040  30.8758030  79.2178550  97.6505980  30.0129120  78.0961210
  96.6592940  31.8034790  85.4709010  96.9565270  32.7097620  85.3901030
  97.2078500  31.3153570  84.8568580  94.4131260  36.3821030  81.3400660
  94.1872180  36.1658200  82.2447280  93.6323790  36.8149490  80.9946630
 101.6429020  36.3884400  79.9391310 101.0437910  37.1120200  79.7554930
 102.1908630  36.3261180  79.1567760  96.8530470  37.2806610  92.0060930
  96.7574070  36.3401340  91.8561330  97.6962450  37.5021680  91.6109000
 100.2493890  35.0247940  81.9694590 100.6423460  35.3420140  81.1563280
 100.6110740  34.1459820  82.0839110  91.9841010  33.6920280  90.1594710
  91.5904400  34.5395490  90.3667490  91.2959410  33.0546650  90.3503350
  98.5586060  33.7755250  93.2291450  97.8684380  33.5827450  93.8637540
  99.3018360  34.0589890  93.7615750  89.2858060  31.6148740  84.1924790
  88.9971110  32.1851600  84.9049770  90.0303820  31.1353190  84.5556020
  89.4728290  35.5568860  75.4027510  89.3902960  36.4999620  75.5442500
  89.1211350  35.4143770  74.5239860 100.8349030  37.6153690  86.0645370
 100.1030150  38.1240500  86.4135470 100.4373370  36.7983670  85.7634150
  97.2726420  34.2907890  84.4697860  97.2762480  33.8497840  83.6202400
  98.1677540  34.6125220  84.5769680  93.1228800  34.1734380  83.4292070
  92.7828850  34.6509610  84.1859120  92.3606120  33.7199500  83.0693170
  97.3346570  35.2919970  77.4604620  97.4559390  35.2506450  78.4090440
  96.9495080  36.1544120  77.3051350 101.2974940  33.0687370  85.4768310
 101.3147680  33.5196020  86.3210160 101.0490520  32.1693010  85.6901750
  96.3468070  37.6021110  76.8587920  95.7784970  37.1539360  76.2323830
  97.0557070  37.9613890  76.3253070 104.7245690  30.4819550  91.3154690
 105.0491460  29.7509210  91.8412670 104.7602200  30.1633190  90.4135680
  91.4237250  41.5033130  90.7354650  91.0392040  40.8626800  91.3337610
  91.7349440  42.2069250  91.3049380  97.5734390  38.3509670  86.2163270
  97.9404520  37.8768240  86.9624610  97.3839450  39.2251240  86.5571610
  90.4374880  33.0953360  82.3456740  90.1521800  32.7309030  83.1835360
  90.3753740  32.3633820  81.7319880  95.3633760  37.3918310  88.5347480
  95.0590830  38.2710290  88.7597840  96.3180220  37.4518100  88.5704920
  93.8915550  41.5979300  79.1314330  93.1177810  41.0576920  78.9713050
  94.6210180  41.0785910  78.7932090 104.6503530  40.5944660  84.9240720
 105.3702650  41.0899950  84.5336830 104.4485350  39.9162550  84.2794590
 100.1113470  31.9882620  79.0670110  99.2978080  31.4895790  78.9915420
  99.9175420  32.8280870  78.6506460 100.0322330  40.6653720  90.8109720
  99.9659640  39.7449390  90.5567310  99.4027470  40.7629160  91.5254360
 102.8261860  36.3602270  77.3632270 103.7141480  36.6719500  77.1883610
 102.7966950  35.4874520  76.9712850  93.9352950  41.2659680  82.7693140
  94.4531620  40.4627940  82.7150030  93.4836970  41.2038820  83.6109970
  98.8222450  42.5325960  78.0420440  99.1638150  43.2768190  77.5463760
  97.9935160  42.8457080  78.4045270  91.4197490  38.2321050  89.6818840
  91.0612430  38.8974900  90.2692180  91.1252050  37.4004600  90.0531460
  94.6210610  38.6905290  92.5658390  94.3210750  38.8362470  91.6686210
  95.3921850  38.1310580  92.4731780  99.9639060  43.4874290  90.5613520
  99.9783600  42.5555250  90.3432430  99.2564160  43.5734050  91.2003290
 105.0976130  37.6714110  76.8312130 105.0139850  38.1028330  75.9808570
 105.8170320  38.1312460  77.2638950 106.1750270  40.1281630  89.9082100
 105.4498460  40.7210410  89.7111490 106.7025730  40.1205170  89.1095470
 106.1263380  44.5256370  79.5594260 105.4839540  43.8711990  79.8337980
 105.7394040  44.9311460  78.7834930 101.7049860  41.8541800  83.4065950
 102.0573680  41.2569930  82.7467320 100.8212190  41.5286030  83.5774200
  97.7913140  42.6139490  80.8136360  98.4784270  43.1608700  81.1943950
  97.0045560  43.1580220  80.8485970  89.9305540  38.2312310  76.3053440
  90.8000390  38.5137110  76.5889360  89.4395860  39.0448180  76.1902250
  97.0940350  39.6185520  80.4261720  97.5503130  40.4290770  80.6521910
  96.7428560  39.3008660  81.2580210  99.3972960  45.1291860  87.6554020
 100.0415180  45.3351240  88.3327440  99.7602400  44.3680260  87.2024870
  92.9952130  29.9623170  80.8984240  92.8666760  29.9541070  81.8469160
  92.1714150  30.3006260  80.5475250 100.6705040  43.1324210  86.3731470
 101.3127270  42.4317370  86.4863640 101.1954390  43.9122650  86.1928360
 104.5160760  43.4172830  76.0970610 104.2898340  42.7003270  76.6895250
 104.1256960  43.1685270  75.2592360 102.4442660  43.9319110  89.5767530
 102.7798900  44.5185800  90.2545450 101.5243000  43.8011820  89.8065320
  89.9946060  31.7214290  90.3590940  89.2804580  31.9211210  90.9643550
  90.4141100  30.9453860  90.7305740 104.0977010  41.3344770  77.7584770
 103.8098710  41.7957460  78.5462650 104.8929180  40.8742540  78.0268990
  90.2818650  45.7094550  91.3457470  90.3909770  44.7689290  91.2052860
  89.6299210  45.9749300  90.6971200  98.2731240  43.9810440  92.7455590
  97.9528110  43.2619680  93.2901280  97.5989600  44.6565510  92.8191650
  96.3145410  44.8270890  77.6888740  96.3055510  45.5600580  77.0733250
  95.3943770  44.5802470  77.7815700  91.9152050  40.0485780  78.4335500
  91.3080000  40.7884680  78.4430800  92.3901400  40.1385140  77.6073700
 101.4884840  34.2136600  88.1092390 101.8565660  33.3931810  88.4371960
 100.6283040  34.2738490  88.5248040 104.8546870  33.1693540  78.9179950
 104.2260030  33.2739210  78.2038180 104.3598790  33.3890320  79.7073830
  99.3005010  44.8899130  76.3513930  99.4016990  44.6863120  75.4215910
  98.4006750  44.6357410  76.5561710  96.8230900  35.4479490  80.3337830
  96.1147050  35.9165830  80.7751440  97.1075380  34.7901500  80.9683020
  98.4486830  36.8676190  88.3330360  98.9472080  37.3422010  88.9982210
  98.5909780  35.9439710  88.5400390 100.8546330  32.1730150  81.7733620
 100.7314110  32.1916280  80.8243130 101.8030890  32.2209090  81.8932020
  97.9423120  47.4085450  81.0461600  98.1964620  47.3706840  80.1240970
  96.9935600  47.2818780  81.0389850  95.0265920  33.7564570  77.7088540
  95.8756450  34.1934720  77.6428730  94.6597190  34.0684830  78.5360600
 105.6553690  33.0844150  89.1758750 105.1527290  33.8249550  89.5152560
 106.4710350  33.4728150  88.8595540 103.9475700  38.3277330  82.6220110
 103.0065840  38.3427560  82.7967800 104.2619770  37.5413290  83.0680410
  93.9257340  40.0096930  76.1824070  94.6920610  39.8978290  76.7449500
  94.0032030  39.3134900  75.5300840  92.6204100  37.4422000  76.8656960
  92.7007690  36.4949510  76.9774360  93.5123850  37.7728880  76.9717620
 105.9501280  45.4986180  84.2974370 106.0748700  46.3217350  84.7698180
 106.8166840  45.2876910  83.9498520  93.4218810  47.5917390  83.9691500
  94.1581290  47.0432850  84.2400070  93.8059730  48.4573400  83.8297490
  92.4277090  46.7763460  93.1577080  93.2289820  47.0975510  93.5712480
  91.9128910  46.4159040  93.8796990  96.5321120  46.7647700  75.7917070
  97.3249730  47.0536530  75.3398860  96.0125470  46.3339870  75.1129550
 101.2641720  42.8843330  93.1052490 100.6579880  42.9074930  92.3648240
 100.9595830  42.1526370  93.6419740 102.6942090  46.6123620  91.7161900
 103.6463840  46.5281640  91.6662140 102.5470310  47.2765330  92.3895690
 105.5851290  45.9917830  77.2153810 105.2992800  45.5782970  76.4007990
 105.3870840  46.9205540  77.0954330  90.1474900  39.2636920  92.1013130
  90.6513920  38.6844200  92.6729360  89.4082320  39.5477150  92.6389500
  97.0498520  41.9851110  75.6559420  96.9449160  41.3703460  76.3820800
  96.8822740  41.4617000  74.8722430  97.2012840  40.6707910  91.6348650
  96.4358510  41.2392910  91.5503320  97.3828800  40.3784120  90.7416880
 100.2901250  41.0471140  76.2601410  99.7411350  41.4940440  76.9044150
 100.9120510  40.5420390  76.7839080 104.3436190  42.4013240  92.1923670
 105.0845660  42.7389000  91.6891130 103.5808870  42.5705300  91.6393440
  92.1797980  37.4066510  92.9963200  92.2203320  37.1080380  93.9048430
  93.0343480  37.8074120  92.8370720  95.9576370  40.0062060  78.1566710
  96.3792790  39.8401930  78.9998100  96.0827210  39.1962290  77.6621850
  94.1203790  35.9858610  90.9637690  93.5900250  35.4949560  90.3361030
  94.7891860  36.4142810  90.4295620  98.4704010  39.0299670  75.4043810
  98.9909670  38.3148690  75.0384960  99.1172410  39.6685540  75.7044320
 103.0181850  40.4528070  90.7278880 103.4322870  40.6073150  91.5769300
 102.0832850  40.5783290  90.8904660 103.4904020  37.7924230  92.7318030
 104.0724790  37.0376550  92.6438510 103.6665790  38.3231670  91.9549510
  94.6076090  32.9520980  91.0434980  94.5132960  32.3341730  90.3185850
  94.0273480  33.6787270  90.8164890  97.3737530  31.5094220  88.0762370
  96.9254830  31.5318480  87.2307920  96.7402730  31.1113240  88.6732670
  97.7797080  40.4048550  88.6974810  98.1985190  41.2481280  88.5251050
  96.8605710  40.5420590  88.4681590 100.1160980  38.1364730  90.0812650
 100.2357190  37.5405870  90.8207490 100.9754980  38.1734420  89.6613950
 102.4548880  38.6901920  88.6575160 101.9284100  39.2144540  88.0540300
 102.7980220  39.3229310  89.2884890  94.8535270  36.0795290  75.1024870
  94.6524330  35.2162650  75.4638210  94.6827320  35.9928650  74.1646470
  95.6304500  46.7101560  89.8132540  95.0925590  47.4347620  89.4941240
  95.8838460  46.2331900  89.0229880  96.8829750  34.6786080  91.3388470
  97.4729440  34.3701930  92.0266290  96.0649990  34.2065830  91.4948370
 101.7023180  34.2951890  91.5721490 101.0138700  33.6333430  91.5071480
 102.4229200  33.8490160  92.0169950 102.3323580  30.8903520  77.6311750
 102.6125870  30.0471420  77.9871170 101.5589310  31.1226630  78.1450500
  93.6518070  33.1795910  75.0902750  93.9543970  33.1863340  74.1821900
  94.3912660  32.8293770  75.5870410  98.4866710  47.9452770  90.0719190
  98.4125410  48.8487910  90.3791560  97.5845550  47.6264670  90.0441260
  96.8703000  32.1230530  76.0758950  96.5225000  31.4454520  75.4961400
  97.0715770  31.6620040  76.8902340  99.0352040  47.1111280  77.6945550
  99.9302830  47.4496250  77.7164310  99.0669670  46.3890690  77.0669830
  92.6748200  42.4838330  75.9232550  93.1123070  43.0268000  76.5790130
  93.1595930  41.6585280  75.9328890  89.8894000  45.2727360  83.3752810
  90.2197010  44.4048420  83.1431450  90.3185000  45.4785880  84.2057770
  94.4855920  43.6036370  81.0354780  94.1851460  43.4801340  81.9358690
  94.3793410  42.7444960  80.6270510  90.3784210  46.1397950  86.1134440
  89.9415200  46.3198750  86.9458590  90.9461890  46.8972570  85.9716160
 106.0146390  45.6414950  90.4011750 105.4148380  45.7007510  89.6575670
 106.1440290  44.7019930  90.5308600 107.2547840  43.3832770  75.7381460
 106.4240800  43.4509420  76.2088690 107.4319670  44.2736890  75.4348320
 106.7104300  40.1280250  78.2415660 107.4723210  40.6976900  78.3475350
 106.7258670  39.5607450  79.0123970  90.2108640  38.6518180  82.4723320
  89.5557480  38.3829820  81.8283020  91.0486590  38.5422660  82.0225300
 107.7164270  40.9830350  83.0857590 108.0873100  40.1997670  82.6793560
 108.3566200  41.6719450  82.9074890 104.6998030  42.3666930  88.4987910
 103.8857870  42.7964090  88.7613700 105.1072230  42.9785340  87.8856960
 106.7623470  40.4214620  75.3988180 107.0372310  41.3293500  75.2707400
 106.5734210  40.3577150  76.3350170 103.1599080  33.4459470  76.6941810
 103.5783960  33.2590450  75.8538470 102.8535140  32.5938520  77.0044740
 106.6588810  38.3583610  80.3917610 106.2832410  37.5911540  79.9598900
 105.9291930  38.7406310  80.8792540  91.2484570  39.0370750  87.0126660
  91.6157610  38.9498150  87.8922680  90.6795390  38.2737300  86.9133520
 106.0488430  37.5055130  90.0257130 105.8174520  37.2767880  89.1255080
 106.3092980  38.4254680  89.9802020  90.8000570  35.9479840  90.9185080
  89.9056620  35.9146600  91.2578790  91.3398120  36.1466630  91.6836330
 104.4876500  32.7311560  92.8036830 105.3646680  32.7394960  93.1870830
 104.4997340  31.9942400  92.1929180  89.4246720  35.8617110  78.4148650
  88.5210800  36.1247310  78.2400310  89.9087340  36.1328280  77.6348610
 105.9339770  36.5841100  83.6924850 106.4577250  36.0903750  83.0615020
 106.5199190  36.7191460  84.4372420 106.1129490  36.6680970  87.2144400
 105.1632200  36.6344510  87.3289390 106.2942500  37.5781080  86.9794170
  91.9673930  34.9182650  76.3243030  92.6765630  34.4965870  75.8390310
  91.2513870  34.9857880  75.6926380  91.6148090  30.9721980  75.3645680
  92.3376220  31.5130920  75.6826900  91.8872610  30.6985400  74.4887220
 105.4239740  35.8414450  79.6317260 105.9198860  35.6085320  80.4166140
 105.2255810  35.0026290  79.2154900  91.3040280  30.2228170  85.2668300
  91.9516470  29.6725550  84.8263460  91.7242120  30.4771320  86.0884110
 106.8526900  34.4775400  82.1654940 106.7426180  34.3231440  83.1037210
 107.6134490  33.9496340  81.9230350 105.1992620  30.4169530  88.6237940
 105.8364840  31.0303670  88.9897130 105.3467510  30.4530190  87.6787170
 107.7417170  32.3083320  75.4061080 108.6666480  32.1764500  75.1979370
 107.7192960  32.3876140  76.3597530 107.8155660  33.0793980  78.0317790
 107.0207160  33.0139100  78.5610700 108.0198940  34.0144620  78.0203140
 104.7574080  47.1185530  82.0256180 105.3533150  46.7970100  81.3490600
 105.0152230  46.6457350  82.8169450  91.0572280  30.3783840  88.0093620
  90.7087100  30.8347660  88.7751800  90.7259980  29.4840970  88.0916050
  92.6636650  43.5503440  92.1746810  92.6206280  43.1796350  93.0561270
  92.7947660  44.4881010  92.3148630  96.3642680  45.1063030  87.7756530
  96.1234040  45.3737590  86.8887050  97.3045320  45.2768760  87.8307390
  98.5697100  31.5695720  91.5313040  98.5085990  32.1617550  92.2808450
  99.5097480  31.4621680  91.3863300 101.2071660  31.2265780  91.1705330
 101.8212070  31.5445070  90.5086410 101.7521220  30.7414370  91.7901190
 107.6246840  47.1257410  88.5767170 107.1305120  47.5226280  87.8594300
 107.0160130  46.5006620  88.9704450  91.7292920  29.9060040  91.2844390
  92.2775910  29.7248090  90.5210500  91.7948230  29.1154150  91.8200700
  92.5024680  46.4965690  89.2944590  91.9085000  46.3650390  90.0334630
  92.4948520  45.6603830  88.8286690 101.9479700  29.7897920  87.4974620
 101.0739540  30.1233030  87.2947550 101.8390450  29.3171100  88.3226490
 102.8551680  31.9968790  88.8816340 102.5265040  31.1820550  88.5018070
 103.8033980  31.9538600  88.7582030 105.3086290  47.7680830  85.8553910
 104.8489260  48.5196640  85.4811930 104.6798750  47.0487300  85.7968710
  92.1336910  43.8624070  88.2452630  91.4070970  43.2429360  88.1778580
  92.1946060  44.2564680  87.3750710  95.7382010  46.0769070  85.0302040
  96.2547030  45.4656430  84.5050300  96.3879390  46.5797850  85.5213050
  98.4777510  46.9677560  85.8571020  98.7655320  46.7131860  84.9804030
  98.9900730  46.4154920  86.4476590  99.6954520  30.7067760  86.4367530
  98.9126310  31.1813260  86.7164290  99.4017450  29.8022590  86.3280710
 104.2475590  31.4090860  84.4816620 104.6883680  31.3535960  83.6338220
 103.9783180  32.3248870  84.5526800 106.1114160  31.0406100  82.4925440
 106.0502560  30.0967320  82.3456460 106.8906190  31.1486190  83.0378900
  90.4166910  47.1798460  81.4549390  90.2488950  46.5469140  82.1531280
  89.5501420  47.3857860  81.1043580  91.0394930  31.0115240  78.9581250
  91.7974290  31.1244120  78.3845280  90.5772100  31.8484440  78.9124680
  97.5808740  33.1254510  81.9483560  96.7683250  32.7511400  81.6079440
  98.0850380  32.3699590  82.2504750 102.0833720  29.7896960  83.1866630
 102.6863090  30.3617170  83.6615150 101.3426710  30.3536400  82.9640530
 105.2268320  30.1918520  78.4606910 105.4218950  31.0901970  78.7274340
 104.4398190  29.9605600  78.9539860  92.0229610  45.8731690  78.8999530
  91.4977230  46.2539720  78.1961490  91.9474190  46.4982460  79.6209240
  93.4120080  31.5379290  77.4983220  93.9412840  30.7509090  77.3691170
  94.0448400  32.2170480  77.7318750  95.6057920  31.2754430  80.5528610
  94.9760660  30.5741740  80.7198740  95.0663060  32.0358560  80.3361770
  98.5449870  47.8893660  93.2239220  99.4717180  47.6537930  93.2675180
  98.5300300  48.7165660  92.7425250 106.7794930  47.4319230  80.2213470
 106.9547120  46.7456970  79.5774390 106.0816500  47.9566280  79.8290140
  95.7313480  30.5538410  92.9881100  95.4497750  31.0572010  92.2241920
  96.1133180  29.7560160  92.6223230  94.6222580  47.8214070  77.7748780
  95.3541400  47.5373350  77.2272670  94.8816250  47.5827350  78.6648160
  93.7837370  43.9378800  77.7795110  93.1546250  44.4063900  78.3280940
  93.8985200  43.0928020  78.2141300 102.3328940  29.9691990  93.5661570
 102.2194390  30.2886600  94.4613090 103.1498680  30.3704500  93.2698850
 105.1127430  47.1163520  93.0480260 105.9052750  46.6212750  92.8406220
 105.4060580  47.7953660  93.6555870 101.2387090  37.9884460  63.9296310
 101.1581140  37.0739070  63.6588020 100.8251510  38.4851530  63.2236020
  99.3705130  39.7663480  65.8105580  98.5947230  39.2863920  66.1004150
 100.0218060  39.0869130  65.6361740 103.3912560  44.1723670  64.5904710
 102.9294090  43.4010910  64.9191880 104.2038110  44.1989740  65.0957160
  91.7962910  35.0385180  60.4723730  90.9079610  35.3801150  60.3703610
  92.0804100  34.8385500  59.5804560  89.7595920  37.6390830  66.3563430
  90.3312030  36.8713030  66.3567070  89.7597460  37.9379590  65.4470040
  99.6175870  46.4581680  64.2108700  98.9987310  46.9139180  63.6403140
 100.4727650  46.6133140  63.8098400  98.8114120  42.4420670  65.8175740
  98.7422400  41.5010610  65.6564870  99.5733980  42.5322080  66.3898310
  91.0020790  33.0475190  68.1432360  90.8223630  32.1500940  68.4235120
  90.6000870  33.5947060  68.8179310  99.8419290  35.2491050  66.0444670
 100.2184110  34.3762930  65.9318340  99.7438800  35.5849750  65.1535110
  93.9724300  33.6216680  61.5062110  94.0791050  34.5220410  61.8130870
  93.0616660  33.5734650  61.2156760 103.6243410  32.7441490  62.9773010
 104.4453030  32.2538060  63.0198490 103.6577490  33.3339150  63.7304850
  91.6207460  35.5435690  66.7514700  92.3017570  35.8074060  67.3702100
  91.3055510  34.7036560  67.0852710  95.8132030  36.5903050  65.8387290
  96.3210250  37.0884020  66.4792310  96.3445270  35.8138250  65.6626650
 107.9142960  34.7608240  69.5416640 107.2095130  35.1489950  69.0231750
 108.1800880  35.4558530  70.1437570  94.0968130  31.2301610  70.1050710
  94.0986570  31.7474000  69.2996610  93.2672440  30.7531790  70.0820640
 100.4839220  41.3420920  61.6040610  99.8656490  41.8070370  61.0403330
 100.9962470  42.0348400  62.0210120 103.8604890  34.6841870  65.7500550
 103.1560460  34.9726760  66.3303660 104.2217050  35.4941980  65.3900110
  93.7783460  32.9411570  68.1121160  94.1200270  33.7853620  67.8175030
  92.8399270  33.0895310  68.2286500 105.4767670  44.3017000  68.0128030
 104.7931190  44.9716110  68.0044700 106.0161960  44.4997650  67.2472890
 106.9291810  34.1296660  66.1409760 105.9816720  34.1635640  66.2725190
 107.2541800  34.9435610  66.5259120  97.4611350  30.4293840  64.4365750
  97.7686330  29.8740730  63.7201250  96.5312050  30.5638300  64.2538740
 103.0126410  46.1461130  66.7273210 103.0253570  45.7423420  65.8595470
 102.4601630  46.9208420  66.6234640 104.3071830  42.8677350  61.8163380
 104.1968160  41.9251680  61.9412800 104.3040080  43.2292990  62.7026140
 102.4111850  41.0490970  68.0555820 102.8280640  40.8351080  67.2209280
 103.1351670  41.3063760  68.6264440  99.8492110  38.4942670  61.1725870
  98.9221390  38.4280050  61.4014340 100.0016930  39.4322800  61.0581110
  99.8361190  34.7659670  58.1693030  98.8964860  34.9273630  58.2545490
 100.1544450  35.4845350  57.6229020 106.3573950  39.4478190  68.1472060
 105.5292580  39.5171280  67.6722190 106.9524430  40.0332500  67.6787890
 103.8789400  40.0562970  61.6761120 103.2601820  39.7182520  61.0287420
 103.8613850  39.4122730  62.3840310 103.3215960  36.2347510  69.0926930
 102.9087140  37.0601220  69.3466920 102.5891910  35.6492550  68.9003290
  95.4548750  39.0207410  63.9545600  95.0505750  38.3084660  63.4591500
  95.5411870  38.6760650  64.8433640  94.1677370  35.7950620  67.7344640
  94.7191960  35.9045960  66.9597890  94.6820880  36.1688220  68.4499870
 104.0116060  46.2806840  69.7807910 103.5346620  47.0879030  69.5880520
 103.3277850  45.6285170  69.9334120  95.0148880  42.4456660  72.7692610
  94.1177410  42.6696630  73.0166010  95.0401750  42.5691600  71.8204010
 102.0554100  39.2949780  58.6833870 102.4947380  38.4572210  58.5371690
 102.7682520  39.9279180  58.7698010 100.1649480  44.2345850  62.6515110
 100.6045390  44.9770180  62.2370500 100.1036370  44.4772420  63.5754070
  95.6400450  45.2591680  73.5535130  95.6115880  45.6634630  72.6863560
  95.4765420  44.3302040  73.3906730 105.6371240  30.5492590  56.9974910
 105.3243900  30.6419420  57.8973980 106.3983710  31.1273620  56.9472340
 107.5915270  46.0418780  74.8499300 108.0674990  46.5201670  75.5288380
 108.2122430  45.9736270  74.1244800 106.9948520  43.2331630  72.0099310
 107.1211580  42.9943510  71.0916490 107.0369900  42.4016170  72.4821390
 100.8565260  46.9359630  70.5794120 101.3709930  46.8467640  71.3816550
 100.0134340  47.2819330  70.8722030 102.8319660  47.2214970  60.0078120
 102.6720800  46.9317910  60.9059950 102.6666370  46.4455100  59.4723350
  95.3108040  47.0013500  61.7849740  95.1350520  46.0849040  61.5717540
  94.4563780  47.3600790  62.0247540 102.5345790  44.7302530  58.5676120
 101.8410950  44.7279820  57.9078400 103.2768650  44.3061850  58.1370290
 102.0995720  46.3565240  62.6424610 102.5552670  45.5754620  62.9563230
 102.4388240  47.0672060  63.1865790 106.8472530  35.2864090  72.9749050
 106.2316800  35.7943760  72.4464510 106.5268950  34.3862420  72.9174990
  94.6217040  31.2587460  64.8375920  94.1785190  32.0397000  64.5060440
  95.1802030  31.5817350  65.5446860  98.9086850  34.1255980  70.4411240
  98.4466220  34.3339000  71.2531180  98.5064960  33.3115330  70.1381910
 103.9091360  35.3464930  71.5707900 103.0584950  35.0470680  71.8916970
 103.7493150  35.5906940  70.6591720 101.0041070  36.8466680  73.6706690
 101.3294480  36.0130430  73.3308920 101.7921400  37.3695200  73.8185020
  97.7375860  30.8798160  59.7181750  97.1130040  30.8758030  60.4435060
  97.6505980  30.0129120  59.3217720  96.6592940  31.8034790  66.6965520
  96.9565270  32.7097620  66.6157540  97.2078500  31.3153570  66.0825090
  94.4131260  36.3821030  62.5657170  94.1872180  36.1658200  63.4703790
  93.6323790  36.8149490  62.2203140 101.6429020  36.3884400  61.1647820
 101.0437910  37.1120200  60.9811440 102.1908630  36.3261180  60.3824270
  96.8530470  37.2806610  73.2317440  96.7574070  36.3401340  73.0817840
  97.6962450  37.5021680  72.8365510 100.2493890  35.0247940  63.1951100
 100.6423460  35.3420140  62.3819790 100.6110740  34.1459820  63.3095620
  91.9841010  33.6920280  71.3851220  91.5904400  34.5395490  71.5924000
  91.2959410  33.0546650  71.5759860  98.5586060  33.7755250  74.4547960
  97.8684380  33.5827450  75.0894050  99.3018360  34.0589890  74.9872260
  89.2858060  31.6148740  65.4181300  88.9971110  32.1851600  66.1306280
  90.0303820  31.1353190  65.7812530 100.8349030  37.6153690  67.2901880
 100.1030150  38.1240500  67.6391980 100.4373370  36.7983670  66.9890660
  97.2726420  34.2907890  65.6954370  97.2762480  33.8497840  64.8458910
  98.1677540  34.6125220  65.8026190  93.1228800  34.1734380  64.6548580
  92.7828850  34.6509610  65.4115630  92.3606120  33.7199500  64.2949680
  97.3346570  35.2919970  58.6861130  97.4559390  35.2506450  59.6346950
  96.9495080  36.1544120  58.5307860 101.2974940  33.0687370  66.7024820
 101.3147680  33.5196020  67.5466670 101.0490520  32.1693010  66.9158260
 104.7245690  30.4819550  72.5411200 105.0491460  29.7509210  73.0669180
 104.7602200  30.1633190  71.6392190  97.5734390  38.3509670  67.4419780
  97.9404520  37.8768240  68.1881120  97.3839450  39.2251240  67.7828120
  90.4374880  33.0953360  63.5713250  90.1521800  32.7309030  64.4091870
  90.3753740  32.3633820  62.9576390  95.3633760  37.3918310  69.7603990
  95.0590830  38.2710290  69.9854350  96.3180220  37.4518100  69.7961430
 104.6503530  40.5944660  66.1497230 105.3702650  41.0899950  65.7593340
 104.4485350  39.9162550  65.5051100 100.1113470  31.9882620  60.2926620
  99.2978080  31.4895790  60.2171930  99.9175420  32.8280870  59.8762970
 100.0322330  40.6653720  72.0366230  99.9659640  39.7449390  71.7823820
  99.4027470  40.7629160  72.7510870 102.8261860  36.3602270  58.5888780
 103.7141480  36.6719500  58.4140120 102.7966950  35.4874520  58.1969360
  98.8222450  42.5325960  59.2676950  99.1638150  43.2768190  58.7720270
  97.9935160  42.8457080  59.6301780  94.6210610  38.6905290  73.7914900
  94.3210750  38.8362470  72.8942720  95.3921850  38.1310580  73.6988290
  99.9639060  43.4874290  71.7870030  99.9783600  42.5555250  71.5688940
  99.2564160  43.5734050  72.4259800 105.0976130  37.6714110  58.0568640
 105.0139850  38.1028330  57.2065080 105.8170320  38.1312460  58.4895460
 106.1750270  40.1281630  71.1338610 105.4498460  40.7210410  70.9368000
 106.7025730  40.1205170  70.3351980 106.1263380  44.5256370  60.7850770
 105.4839540  43.8711990  61.0594490 105.7394040  44.9311460  60.0091440
 101.7049860  41.8541800  64.6322460 102.0573680  41.2569930  63.9723830
 100.8212190  41.5286030  64.8030710  97.7913140  42.6139490  62.0392870
  98.4784270  43.1608700  62.4200460  97.0045560  43.1580220  62.0742480
  97.0940350  39.6185520  61.6518230  97.5503130  40.4290770  61.8778420
  96.7428560  39.3008660  62.4836720  99.3972960  45.1291860  68.8810530
 100.0415180  45.3351240  69.5583950  99.7602400  44.3680260  68.4281380
  92.9952130  29.9623170  62.1240750  92.8666760  29.9541070  63.0725670
  92.1714150  30.3006260  61.7731760 100.6705040  43.1324210  67.5987980
 101.3127270  42.4317370  67.7120150 101.1954390  43.9122650  67.4184870
 104.5160760  43.4172830  57.3227120 104.2898340  42.7003270  57.9151760
 104.1256960  43.1685270  56.4848870 102.4442660  43.9319110  70.8024040
 102.7798900  44.5185800  71.4801960 101.5243000  43.8011820  71.0321830
  89.9946060  31.7214290  71.5847450  89.2804580  31.9211210  72.1900060
  90.4141100  30.9453860  71.9562250 104.0977010  41.3344770  58.9841280
 103.8098710  41.7957460  59.7719160 104.8929180  40.8742540  59.2525500
  98.2731240  43.9810440  73.9712100  97.9528110  43.2619680  74.5157790
  97.5989600  44.6565510  74.0448160  96.3145410  44.8270890  58.9145250
  96.3055510  45.5600580  58.2989760  95.3943770  44.5802470  59.0072210
 101.4884840  34.2136600  69.3348900 101.8565660  33.3931810  69.6628470
 100.6283040  34.2738490  69.7504550 104.8546870  33.1693540  60.1436460
 104.2260030  33.2739210  59.4294690 104.3598790  33.3890320  60.9330340
  99.3005010  44.8899130  57.5770440  99.4016990  44.6863120  56.6472420
  98.4006750  44.6357410  57.7818220  96.8230900  35.4479490  61.5594340
  96.1147050  35.9165830  62.0007950  97.1075380  34.7901500  62.1939530
  98.4486830  36.8676190  69.5586870  98.9472080  37.3422010  70.2238720
  98.5909780  35.9439710  69.7656900 100.8546330  32.1730150  62.9990130
 100.7314110  32.1916280  62.0499640 101.8030890  32.2209090  63.1188530
  97.9423120  47.4085450  62.2718110  98.1964620  47.3706840  61.3497480
  96.9935600  47.2818780  62.2646360  95.0265920  33.7564570  58.9345050
  95.8756450  34.1934720  58.8685240  94.6597190  34.0684830  59.7617110
 105.6553690  33.0844150  70.4015260 105.1527290  33.8249550  70.7409070
 106.4710350  33.4728150  70.0852050 103.9475700  38.3277330  63.8476620
 103.0065840  38.3427560  64.0224310 104.2619770  37.5413290  64.2936920
 105.9501280  45.4986180  65.5230880 106.0748700  46.3217350  65.9954690
 106.8166840  45.2876910  65.1755030  96.5321120  46.7647700  57.0173580
  97.3249730  47.0536530  56.5655370  96.0125470  46.3339870  56.3386060
 101.2641720  42.8843330  74.3309000 100.6579880  42.9074930  73.5904750
 100.9595830  42.1526370  74.8676250 102.6942090  46.6123620  72.9418410
 103.6463840  46.5281640  72.8918650 102.5470310  47.2765330  73.6152200
 105.5851290  45.9917830  58.4410320 105.2992800  45.5782970  57.6264500
 105.3870840  46.9205540  58.3210840  97.0498520  41.9851110  56.8815930
  96.9449160  41.3703460  57.6077310  96.8822740  41.4617000  56.0978940
  97.2012840  40.6707910  72.8605160  96.4358510  41.2392910  72.7759830
  97.3828800  40.3784120  71.9673390 100.2901250  41.0471140  57.4857920
  99.7411350  41.4940440  58.1300660 100.9120510  40.5420390  58.0095590
 104.3436190  42.4013240  73.4180180 105.0845660  42.7389000  72.9147640
 103.5808870  42.5705300  72.8649950  95.9576370  40.0062060  59.3823220
  96.3792790  39.8401930  60.2254610  96.0827210  39.1962290  58.8878360
  94.1203790  35.9858610  72.1894200  93.5900250  35.4949560  71.5617540
  94.7891860  36.4142810  71.6552130  98.4704010  39.0299670  56.6300320
  98.9909670  38.3148690  56.2641470  99.1172410  39.6685540  56.9300830
 103.0181850  40.4528070  71.9535390 103.4322870  40.6073150  72.8025810
 102.0832850  40.5783290  72.1161170 103.4904020  37.7924230  73.9574540
 104.0724790  37.0376550  73.8695020 103.6665790  38.3231670  73.1806020
  94.6076090  32.9520980  72.2691490  94.5132960  32.3341730  71.5442360
  94.0273480  33.6787270  72.0421400  97.3737530  31.5094220  69.3018880
  96.9254830  31.5318480  68.4564430  96.7402730  31.1113240  69.8989180
  97.7797080  40.4048550  69.9231320  98.1985190  41.2481280  69.7507560
  96.8605710  40.5420590  69.6938100 100.1160980  38.1364730  71.3069160
 100.2357190  37.5405870  72.0464000 100.9754980  38.1734420  70.8870460
 102.4548880  38.6901920  69.8831670 101.9284100  39.2144540  69.2796810
 102.7980220  39.3229310  70.5141400  95.6304500  46.7101560  71.0389050
  95.0925590  47.4347620  70.7197750  95.8838460  46.2331900  70.2486390
  96.8829750  34.6786080  72.5644980  97.4729440  34.3701930  73.2522800
  96.0649990  34.2065830  72.7204880 101.7023180  34.2951890  72.7978000
 101.0138700  33.6333430  72.7327990 102.4229200  33.8490160  73.2426460
 102.3323580  30.8903520  58.8568260 102.6125870  30.0471420  59.2127680
 101.5589310  31.1226630  59.3707010  93.6518070  33.1795910  56.3159260
  93.9543970  33.1863340  55.4078410  94.3912660  32.8293770  56.8126920
  98.4866710  47.9452770  71.2975700  98.4125410  48.8487910  71.6048070
  97.5845550  47.6264670  71.2697770  96.8703000  32.1230530  57.3015460
  96.5225000  31.4454520  56.7217910  97.0715770  31.6620040  58.1158850
 106.0146390  45.6414950  71.6268260 105.4148380  45.7007510  70.8832180
 106.1440290  44.7019930  71.7565110 107.2547840  43.3832770  56.9637970
 106.4240800  43.4509420  57.4345200 107.4319670  44.2736890  56.6604830
 106.7104300  40.1280250  59.4672170 107.4723210  40.6976900  59.5731860
 106.7258670  39.5607450  60.2380480  90.2108640  38.6518180  63.6979830
  89.5557480  38.3829820  63.0539530  91.0486590  38.5422660  63.2481810
 107.7164270  40.9830350  64.3114100 108.0873100  40.1997670  63.9050070
 108.3566200  41.6719450  64.1331400 104.6998030  42.3666930  69.7244420
 103.8857870  42.7964090  69.9870210 105.1072230  42.9785340  69.1113470
 106.7623470  40.4214620  56.6244690 107.0372310  41.3293500  56.4963910
 106.5734210  40.3577150  57.5606680 103.1599080  33.4459470  57.9198320
 103.5783960  33.2590450  57.0794980 102.8535140  32.5938520  58.2301250
 106.6588810  38.3583610  61.6174120 106.2832410  37.5911540  61.1855410
 105.9291930  38.7406310  62.1049050  91.2484570  39.0370750  68.2383170
  91.6157610  38.9498150  69.1179190  90.6795390  38.2737300  68.1390030
 106.0488430  37.5055130  71.2513640 105.8174520  37.2767880  70.3511590
 106.3092980  38.4254680  71.2058530 104.4876500  32.7311560  74.0293340
 105.3646680  32.7394960  74.4127340 104.4997340  31.9942400  73.4185690
 105.9339770  36.5841100  64.9181360 106.4577250  36.0903750  64.2871530
 106.5199190  36.7191460  65.6628930 106.1129490  36.6680970  68.4400910
 105.1632200  36.6344510  68.5545900 106.2942500  37.5781080  68.2050680
 105.4239740  35.8414450  60.8573770 105.9198860  35.6085320  61.6422650
 105.2255810  35.0026290  60.4411410  91.3040280  30.2228170  66.4924810
  91.9516470  29.6725550  66.0519970  91.7242120  30.4771320  67.3140620
 106.8526900  34.4775400  63.3911450 106.7426180  34.3231440  64.3293720
 107.6134490  33.9496340  63.1486860 105.1992620  30.4169530  69.8494450
 105.8364840  31.0303670  70.2153640 105.3467510  30.4530190  68.9043680
 107.7417170  32.3083320  56.6317590 108.6666480  32.1764500  56.4235880
 107.7192960  32.3876140  57.5854040 107.8155660  33.0793980  59.2574300
 107.0207160  33.0139100  59.7867210 108.0198940  34.0144620  59.2459650
 104.7574080  47.1185530  63.2512690 105.3533150  46.7970100  62.5747110
 105.0152230  46.6457350  64.0425960  91.0572280  30.3783840  69.2350130
  90.7087100  30.8347660  70.0008310  90.7259980  29.4840970  69.3172560
  98.5697100  31.5695720  72.7569550  98.5085990  32.1617550  73.5064960
  99.5097480  31.4621680  72.6119810 101.2071660  31.2265780  72.3961840
 101.8212070  31.5445070  71.7342920 101.7521220  30.7414370  73.0157700
 107.6246840  47.1257410  69.8023680 107.1305120  47.5226280  69.0850810
 107.0160130  46.5006620  70.1960960  91.7292920  29.9060040  72.5100900
  92.2775910  29.7248090  71.7467010  91.7948230  29.1154150  73.0457210
 101.9479700  29.7897920  68.7231130 101.0739540  30.1233030  68.5204060
 101.8390450  29.3171100  69.5483000 102.8551680  31.9968790  70.1072850
 102.5265040  31.1820550  69.7274580 103.8033980  31.9538600  69.9838540
 105.3086290  47.7680830  67.0810420 104.8489260  48.5196640  66.7068440
 104.6798750  47.0487300  67.0225220  98.4777510  46.9677560  67.0827530
  98.7655320  46.7131860  66.2060540  98.9900730  46.4154920  67.6733100
  99.6954520  30.7067760  67.6624040  98.9126310  31.1813260  67.9420800
  99.4017450  29.8022590  67.5537220 104.2475590  31.4090860  65.7073130
 104.6883680  31.3535960  64.8594730 103.9783180  32.3248870  65.7783310
 106.1114160  31.0406100  63.7181950 106.0502560  30.0967320  63.5712970
 106.8906190  31.1486190  64.2635410  91.0394930  31.0115240  60.1837760
  91.7974290  31.1244120  59.6101790  90.5772100  31.8484440  60.1381190
  97.5808740  33.1254510  63.1740070  96.7683250  32.7511400  62.8335950
  98.0850380  32.3699590  63.4761260 102.0833720  29.7896960  64.4123140
 102.6863090  30.3617170  64.8871660 101.3426710  30.3536400  64.1897040
 105.2268320  30.1918520  59.6863420 105.4218950  31.0901970  59.9530850
 104.4398190  29.9605600  60.1796370  93.4120080  31.5379290  58.7239730
  93.9412840  30.7509090  58.5947680  94.0448400  32.2170480  58.9575260
  95.6057920  31.2754430  61.7785120  94.9760660  30.5741740  61.9455250
  95.0663060  32.0358560  61.5618280  98.5449870  47.8893660  74.4495730
  99.4717180  47.6537930  74.4931690  98.5300300  48.7165660  73.9681760
 106.7794930  47.4319230  61.4469980 106.9547120  46.7456970  60.8030900
 106.0816500  47.9566280  61.0546650  95.7313480  30.5538410  74.2137610
  95.4497750  31.0572010  73.4498430  96.1133180  29.7560160  73.8479740
 102.3328940  29.9691990  74.7918080 102.2194390  30.2886600  75.6869600
 103.1498680  30.3704500  74.4955360 105.1127430  47.1163520  74.2736770
 105.9052750  46.6212750  74.0662730 105.4060580  47.7953660  74.8812380
 101.2387090  37.9884460  45.1552820 101.1581140  37.0739070  44.8844530
 100.8251510  38.4851530  44.4492530  99.3705130  39.7663480  47.0362090
  98.5947230  39.2863920  47.3260660 100.0218060  39.0869130  46.8618250
  93.3870960  40.0783290  47.9137850  92.5555840  39.8232000  48.3134360
  93.9951940  40.1494060  48.6495770 103.3912560  44.1723670  45.8161220
 102.9294090  43.4010910  46.1448390 104.2038110  44.1989740  46.3213670
  93.3672220  44.1123380  48.1095870  93.6700260  43.2221120  47.9306090
  94.1115810  44.6693600  47.8818120  91.7962910  35.0385180  41.6980240
  90.9079610  35.3801150  41.5960120  92.0804100  34.8385500  40.8061070
  89.7595920  37.6390830  47.5819940  90.3312030  36.8713030  47.5823580
  89.7597460  37.9379590  46.6726550  99.6175870  46.4581680  45.4365210
  98.9987310  46.9139180  44.8659650 100.4727650  46.6133140  45.0354910
  98.8114120  42.4420670  47.0432250  98.7422400  41.5010610  46.8821380
  99.5733980  42.5322080  47.6154820  91.0020790  33.0475190  49.3688870
  90.8223630  32.1500940  49.6491630  90.6000870  33.5947060  50.0435820
  99.8419290  35.2491050  47.2701180 100.2184110  34.3762930  47.1574850
  99.7438800  35.5849750  46.3791620  93.9724300  33.6216680  42.7318620
  94.0791050  34.5220410  43.0387380  93.0616660  33.5734650  42.4413270
 103.6243410  32.7441490  44.2029520 104.4453030  32.2538060  44.2455000
 103.6577490  33.3339150  44.9561360  91.6207460  35.5435690  47.9771210
  92.3017570  35.8074060  48.5958610  91.3055510  34.7036560  48.3109220
  95.8132030  36.5903050  47.0643800  96.3210250  37.0884020  47.7048820
  96.3445270  35.8138250  46.8883160 107.9142960  34.7608240  50.7673150
 107.2095130  35.1489950  50.2488260 108.1800880  35.4558530  51.3694080
  94.0968130  31.2301610  51.3307220  94.0986570  31.7474000  50.5253120
  93.2672440  30.7531790  51.3077150 100.4839220  41.3420920  42.8297120
  99.8656490  41.8070370  42.2659840 100.9962470  42.0348400  43.2466630
  95.3470980  40.8696790  49.5080720  95.0140360  41.4965710  50.1501790
  95.5237660  41.3958670  48.7282390 103.8604890  34.6841870  46.9757060
 103.1560460  34.9726760  47.5560170 104.2217050  35.4941980  46.6156620
  93.7783460  32.9411570  49.3377670  94.1200270  33.7853620  49.0431540
  92.8399270  33.0895310  49.4543010  94.5590080  42.8377590  51.3229900
  95.1764080  43.5128670  51.0414350  93.6983200  43.2465570  51.2317400
  89.8522420  42.0277450  40.2036750  89.4750400  42.5164550  39.4721650
  90.1095490  42.7002730  40.8343280 105.4767670  44.3017000  49.2384540
 104.7931190  44.9716110  49.2301210 106.0161960  44.4997650  48.4729400
 106.9291810  34.1296660  47.3666270 105.9816720  34.1635640  47.4981700
 107.2541800  34.9435610  47.7515630  97.4611350  30.4293840  45.6622260
  97.7686330  29.8740730  44.9457760  96.5312050  30.5638300  45.4795250
 103.0126410  46.1461130  47.9529720 103.0253570  45.7423420  47.0851980
 102.4601630  46.9208420  47.8491150 104.3071830  42.8677350  43.0419890
 104.1968160  41.9251680  43.1669310 104.3040080  43.2292990  43.9282650
 102.4111850  41.0490970  49.2812330 102.8280640  40.8351080  48.4465790
 103.1351670  41.3063760  49.8520950  99.8492110  38.4942670  42.3982380
  98.9221390  38.4280050  42.6270850 100.0016930  39.4322800  42.2837620
  99.8361190  34.7659670  39.3949540  98.8964860  34.9273630  39.4802000
 100.1544450  35.4845350  38.8485530 106.3573950  39.4478190  49.3728570
 105.5292580  39.5171280  48.8978700 106.9524430  40.0332500  48.9044400
 103.8789400  40.0562970  42.9017630 103.2601820  39.7182520  42.2543930
 103.8613850  39.4122730  43.6096820 103.3215960  36.2347510  50.3183440
 102.9087140  37.0601220  50.5723430 102.5891910  35.6492550  50.1259800
  95.4548750  39.0207410  45.1802110  95.0505750  38.3084660  44.6848010
  95.5411870  38.6760650  46.0690150  95.9230450  42.7074970  47.3441320
  95.6258740  42.1020440  46.6649100  96.8730270  42.7452280  47.2330680
  94.1677370  35.7950620  48.9601150  94.7191960  35.9045960  48.1854400
  94.6820880  36.1688220  49.6756380 104.0116060  46.2806840  51.0064420
 103.5346620  47.0879030  50.8137030 103.3277850  45.6285170  51.1590630
 102.0554100  39.2949780  39.9090380 102.4947380  38.4572210  39.7628200
 102.7682520  39.9279180  39.9954520 100.1649480  44.2345850  43.8771620
 100.6045390  44.9770180  43.4627010 100.1036370  44.4772420  44.8010580
  95.6400450  45.2591680  54.7791640  95.6115880  45.6634630  53.9120070
  95.4765420  44.3302040  54.6163240 105.6371240  30.5492590  38.2231420
 105.3243900  30.6419420  39.1230490 106.3983710  31.1273620  38.1728850
  92.1553380  37.9152390  42.6808760  92.0350980  38.6414480  42.0690030
  91.8454270  37.1455300  42.2036670 107.5915270  46.0418780  56.0755810
 108.0674990  46.5201670  56.7544890 108.2122430  45.9736270  55.3501310
  89.7938750  41.0867530  48.4877400  89.8719170  41.2216300  47.5433120
  90.4080430  40.3783420  48.6805520  91.0386380  42.7867720  44.8983580
  90.6314460  42.9282310  44.0437180  91.9299390  42.5027880  44.6954790
 106.9948520  43.2331630  53.2355820 107.1211580  42.9943510  52.3173000
 107.0369900  42.4016170  53.7077900 100.8565260  46.9359630  51.8050630
 101.3709930  46.8467640  52.6073060 100.0134340  47.2819330  52.0978540
 102.8319660  47.2214970  41.2334630 102.6720800  46.9317910  42.1316460
 102.6666370  46.4455100  40.6979860  95.3108040  47.0013500  43.0106250
  95.1350520  46.0849040  42.7974050  94.4563780  47.3600790  43.2504050
 102.5345790  44.7302530  39.7932630 101.8410950  44.7279820  39.1334910
 103.2768650  44.3061850  39.3626800 102.0995720  46.3565240  43.8681120
 102.5552670  45.5754620  44.1819740 102.4388240  47.0672060  44.4122300
 106.8472530  35.2864090  54.2005560 106.2316800  35.7943760  53.6721020
 106.5268950  34.3862420  54.1431500  94.6217040  31.2587460  46.0632430
  94.1785190  32.0397000  45.7316950  95.1802030  31.5817350  46.7703370
  98.9086850  34.1255980  51.6667750  98.4466220  34.3339000  52.4787690
  98.5064960  33.3115330  51.3638420 103.9091360  35.3464930  52.7964410
 103.0584950  35.0470680  53.1173480 103.7493150  35.5906940  51.8848230
 101.0041070  36.8466680  54.8963200 101.3294480  36.0130430  54.5565430
 101.7921400  37.3695200  55.0441530  97.7375860  30.8798160  40.9438260
  97.1130040  30.8758030  41.6691570  97.6505980  30.0129120  40.5474230
  96.6592940  31.8034790  47.9222030  96.9565270  32.7097620  47.8414050
  97.2078500  31.3153570  47.3081600  94.4131260  36.3821030  43.7913680
  94.1872180  36.1658200  44.6960300  93.6323790  36.8149490  43.4459650
 101.6429020  36.3884400  42.3904330 101.0437910  37.1120200  42.2067950
 102.1908630  36.3261180  41.6080780  96.8530470  37.2806610  54.4573950
  96.7574070  36.3401340  54.3074350  97.6962450  37.5021680  54.0622020
 100.2493890  35.0247940  44.4207610 100.6423460  35.3420140  43.6076300
 100.6110740  34.1459820  44.5352130  98.5586060  33.7755250  55.6804470
  97.8684380  33.5827450  56.3150560  99.3018360  34.0589890  56.2128770
  89.2858060  31.6148740  46.6437810  88.9971110  32.1851600  47.3562790
  90.0303820  31.1353190  47.0069040  89.4728290  35.5568860  37.8540530
  89.3902960  36.4999620  37.9955520  89.1211350  35.4143770  36.9752880
 100.8349030  37.6153690  48.5158390 100.1030150  38.1240500  48.8648490
 100.4373370  36.7983670  48.2147170  97.2726420  34.2907890  46.9210880
  97.2762480  33.8497840  46.0715420  98.1677540  34.6125220  47.0282700
  93.1228800  34.1734380  45.8805090  92.7828850  34.6509610  46.6372140
  92.3606120  33.7199500  45.5206190  97.3346570  35.2919970  39.9117640
  97.4559390  35.2506450  40.8603460  96.9495080  36.1544120  39.7564370
 101.2974940  33.0687370  47.9281330 101.3147680  33.5196020  48.7723180
 101.0490520  32.1693010  48.1414770  96.3468070  37.6021110  39.3100940
  95.7784970  37.1539360  38.6836850  97.0557070  37.9613890  38.7766090
 104.7245690  30.4819550  53.7667710 105.0491460  29.7509210  54.2925690
 104.7602200  30.1633190  52.8648700  97.5734390  38.3509670  48.6676290
  97.9404520  37.8768240  49.4137630  97.3839450  39.2251240  49.0084630
  90.4374880  33.0953360  44.7969760  90.1521800  32.7309030  45.6348380
  90.3753740  32.3633820  44.1832900  95.3633760  37.3918310  50.9860500
  95.0590830  38.2710290  51.2110860  96.3180220  37.4518100  51.0217940
  93.8915550  41.5979300  41.5827350  93.1177810  41.0576920  41.4226070
  94.6210180  41.0785910  41.2445110 104.6503530  40.5944660  47.3753740
 105.3702650  41.0899950  46.9849850 104.4485350  39.9162550  46.7307610
 100.1113470  31.9882620  41.5183130  99.2978080  31.4895790  41.4428440
  99.9175420  32.8280870  41.1019480 100.0322330  40.6653720  53.2622740
  99.9659640  39.7449390  53.0080330  99.4027470  40.7629160  53.9767380
 102.8261860  36.3602270  39.8145290 103.7141480  36.6719500  39.6396630
 102.7966950  35.4874520  39.4225870  93.9352950  41.2659680  45.2206160
  94.4531620  40.4627940  45.1663050  93.4836970  41.2038820  46.0622990
  98.8222450  42.5325960  40.4933460  99.1638150  43.2768190  39.9976780
  97.9935160  42.8457080  40.8558290  99.9639060  43.4874290  53.0126540
  99.9783600  42.5555250  52.7945450  99.2564160  43.5734050  53.6516310
 105.0976130  37.6714110  39.2825150 105.0139850  38.1028330  38.4321590
 105.8170320  38.1312460  39.7151970 106.1750270  40.1281630  52.3595120
 105.4498460  40.7210410  52.1624510 106.7025730  40.1205170  51.5608490
 106.1263380  44.5256370  42.0107280 105.4839540  43.8711990  42.2851000
 105.7394040  44.9311460  41.2347950 101.7049860  41.8541800  45.8578970
 102.0573680  41.2569930  45.1980340 100.8212190  41.5286030  46.0287220
  97.7913140  42.6139490  43.2649380  98.4784270  43.1608700  43.6456970
  97.0045560  43.1580220  43.2998990  89.9305540  38.2312310  38.7566460
  90.8000390  38.5137110  39.0402380  89.4395860  39.0448180  38.6415270
  97.0940350  39.6185520  42.8774740  97.5503130  40.4290770  43.1034930
  96.7428560  39.3008660  43.7093230  99.3972960  45.1291860  50.1067040
 100.0415180  45.3351240  50.7840460  99.7602400  44.3680260  49.6537890
  92.9952130  29.9623170  43.3497260  92.8666760  29.9541070  44.2982180
  92.1714150  30.3006260  42.9988270 100.6705040  43.1324210  48.8244490
 101.3127270  42.4317370  48.9376660 101.1954390  43.9122650  48.6441380
 104.5160760  43.4172830  38.5483630 104.2898340  42.7003270  39.1408270
 104.1256960  43.1685270  37.7105380 102.4442660  43.9319110  52.0280550
 102.7798900  44.5185800  52.7058470 101.5243000  43.8011820  52.2578340
  90.2976790  47.4439690  39.3228090  90.6574430  48.0429030  38.6685360
  90.1569130  47.9899580  40.0963120 104.0977010  41.3344770  40.2097790
 103.8098710  41.7957460  40.9975670 104.8929180  40.8742540  40.4782010
  98.2731240  43.9810440  55.1968610  97.9528110  43.2619680  55.7414300
  97.5989600  44.6565510  55.2704670  96.3145410  44.8270890  40.1401760
  96.3055510  45.5600580  39.5246270  95.3943770  44.5802470  40.2328720
  91.9152050  40.0485780  40.8848520  91.3080000  40.7884680  40.8943820
  92.3901400  40.1385140  40.0586720 101.4884840  34.2136600  50.5605410
 101.8565660  33.3931810  50.8884980 100.6283040  34.2738490  50.9761060
 104.8546870  33.1693540  41.3692970 104.2260030  33.2739210  40.6551200
 104.3598790  33.3890320  42.1586850  99.3005010  44.8899130  38.8026950
  99.4016990  44.6863120  37.8728930  98.4006750  44.6357410  39.0074730
  96.8230900  35.4479490  42.7850850  96.1147050  35.9165830  43.2264460
  97.1075380  34.7901500  43.4196040  98.4486830  36.8676190  50.7843380
  98.9472080  37.3422010  51.4495230  98.5909780  35.9439710  50.9913410
 100.8546330  32.1730150  44.2246640 100.7314110  32.1916280  43.2756150
 101.8030890  32.2209090  44.3445040  97.9423120  47.4085450  43.4974620
  98.1964620  47.3706840  42.5753990  96.9935600  47.2818780  43.4902870
  95.0265920  33.7564570  40.1601560  95.8756450  34.1934720  40.0941750
  94.6597190  34.0684830  40.9873620 105.6553690  33.0844150  51.6271770
 105.1527290  33.8249550  51.9665580 106.4710350  33.4728150  51.3108560
 103.9475700  38.3277330  45.0733130 103.0065840  38.3427560  45.2480820
 104.2619770  37.5413290  45.5193430  93.9257340  40.0096930  38.6337090
  94.6920610  39.8978290  39.1962520  94.0032030  39.3134900  37.9813860
  92.6204100  37.4422000  39.3169980  92.7007690  36.4949510  39.4287380
  93.5123850  37.7728880  39.4230640 105.9501280  45.4986180  46.7487390
 106.0748700  46.3217350  47.2211200 106.8166840  45.2876910  46.4011540
  93.4218810  47.5917390  46.4204520  94.1581290  47.0432850  46.6913090
  93.8059730  48.4573400  46.2810510  90.3064290  43.6590960  42.2946030
  89.3804070  43.9012100  42.2851440  90.7720720  44.4865220  42.1730780
  96.5321120  46.7647700  38.2430090  97.3249730  47.0536530  37.7911880
  96.0125470  46.3339870  37.5642570 101.2641720  42.8843330  55.5565510
 100.6579880  42.9074930  54.8161260 100.9595830  42.1526370  56.0932760
 102.6942090  46.6123620  54.1674920 103.6463840  46.5281640  54.1175160
 102.5470310  47.2765330  54.8408710 105.5851290  45.9917830  39.6666830
 105.2992800  45.5782970  38.8521010 105.3870840  46.9205540  39.5467350
  97.0498520  41.9851110  38.1072440  96.9449160  41.3703460  38.8333820
  96.8822740  41.4617000  37.3235450 100.2901250  41.0471140  38.7114430
  99.7411350  41.4940440  39.3557170 100.9120510  40.5420390  39.2352100
 104.3436190  42.4013240  54.6436690 105.0845660  42.7389000  54.1404150
 103.5808870  42.5705300  54.0906460  95.9576370  40.0062060  40.6079730
  96.3792790  39.8401930  41.4511120  96.0827210  39.1962290  40.1134870
  98.4704010  39.0299670  37.8556830  98.9909670  38.3148690  37.4897980
  99.1172410  39.6685540  38.1557340 103.0181850  40.4528070  53.1791900
 103.4322870  40.6073150  54.0282320 102.0832850  40.5783290  53.3417680
 103.4904020  37.7924230  55.1831050 104.0724790  37.0376550  55.0951530
 103.6665790  38.3231670  54.4062530  94.6076090  32.9520980  53.4948000
  94.5132960  32.3341730  52.7698870  94.0273480  33.6787270  53.2677910
  97.3737530  31.5094220  50.5275390  96.9254830  31.5318480  49.6820940
  96.7402730  31.1113240  51.1245690  97.7797080  40.4048550  51.1487830
  98.1985190  41.2481280  50.9764070  96.8605710  40.5420590  50.9194610
 100.1160980  38.1364730  52.5325670 100.2357190  37.5405870  53.2720510
 100.9754980  38.1734420  52.1126970 102.4548880  38.6901920  51.1088180
 101.9284100  39.2144540  50.5053320 102.7980220  39.3229310  51.7397910
  94.8535270  36.0795290  37.5537890  94.6524330  35.2162650  37.9151230
  94.6827320  35.9928650  36.6159490  95.6304500  46.7101560  52.2645560
  95.0925590  47.4347620  51.9454260  95.8838460  46.2331900  51.4742900
  96.8829750  34.6786080  53.7901490  97.4729440  34.3701930  54.4779310
  96.0649990  34.2065830  53.9461390 101.7023180  34.2951890  54.0234510
 101.0138700  33.6333430  53.9584500 102.4229200  33.8490160  54.4682970
 102.3323580  30.8903520  40.0824770 102.6125870  30.0471420  40.4384190
 101.5589310  31.1226630  40.5963520  93.6518070  33.1795910  37.5415770
  93.9543970  33.1863340  36.6334920  94.3912660  32.8293770  38.0383430
  98.4866710  47.9452770  52.5232210  98.4125410  48.8487910  52.8304580
  97.5845550  47.6264670  52.4954280  96.8703000  32.1230530  38.5271970
  96.5225000  31.4454520  37.9474420  97.0715770  31.6620040  39.3415360
  99.0352040  47.1111280  40.1458570  99.9302830  47.4496250  40.1677330
  99.0669670  46.3890690  39.5182850  92.6748200  42.4838330  38.3745570
  93.1123070  43.0268000  39.0303150  93.1595930  41.6585280  38.3841910
  89.8894000  45.2727360  45.8265830  90.2197010  44.4048420  45.5944470
  90.3185000  45.4785880  46.6570790  94.4855920  43.6036370  43.4867800
  94.1851460  43.4801340  44.3871710  94.3793410  42.7444960  43.0783530
 106.0146390  45.6414950  52.8524770 105.4148380  45.7007510  52.1088690
 106.1440290  44.7019930  52.9821620 107.2547840  43.3832770  38.1894480
 106.4240800  43.4509420  38.6601710 107.4319670  44.2736890  37.8861340
 106.7104300  40.1280250  40.6928680 107.4723210  40.6976900  40.7988370
 106.7258670  39.5607450  41.4636990  90.2108640  38.6518180  44.9236340
  89.5557480  38.3829820  44.2796040  91.0486590  38.5422660  44.4738320
 107.7164270  40.9830350  45.5370610 108.0873100  40.1997670  45.1306580
 108.3566200  41.6719450  45.3587910 104.6998030  42.3666930  50.9500930
 103.8857870  42.7964090  51.2126720 105.1072230  42.9785340  50.3369980
 106.7623470  40.4214620  37.8501200 107.0372310  41.3293500  37.7220420
 106.5734210  40.3577150  38.7863190 103.1599080  33.4459470  39.1454830
 103.5783960  33.2590450  38.3051490 102.8535140  32.5938520  39.4557760
 106.6588810  38.3583610  42.8430630 106.2832410  37.5911540  42.4111920
 105.9291930  38.7406310  43.3305560  91.2484570  39.0370750  49.4639680
  91.6157610  38.9498150  50.3435700  90.6795390  38.2737300  49.3646540
 106.0488430  37.5055130  52.4770150 105.8174520  37.2767880  51.5768100
 106.3092980  38.4254680  52.4315040 104.4876500  32.7311560  55.2549850
 105.3646680  32.7394960  55.6383850 104.4997340  31.9942400  54.6442200
  89.4246720  35.8617110  40.8661670  88.5210800  36.1247310  40.6913330
  89.9087340  36.1328280  40.0861630 105.9339770  36.5841100  46.1437870
 106.4577250  36.0903750  45.5128040 106.5199190  36.7191460  46.8885440
 106.1129490  36.6680970  49.6657420 105.1632200  36.6344510  49.7802410
 106.2942500  37.5781080  49.4307190  91.9673930  34.9182650  38.7756050
  92.6765630  34.4965870  38.2903330  91.2513870  34.9857880  38.1439400
  91.6148090  30.9721980  37.8158700  92.3376220  31.5130920  38.1339920
  91.8872610  30.6985400  36.9400240 105.4239740  35.8414450  42.0830280
 105.9198860  35.6085320  42.8679160 105.2255810  35.0026290  41.6667920
  91.3040280  30.2228170  47.7181320  91.9516470  29.6725550  47.2776480
  91.7242120  30.4771320  48.5397130 106.8526900  34.4775400  44.6167960
 106.7426180  34.3231440  45.5550230 107.6134490  33.9496340  44.3743370
 105.1992620  30.4169530  51.0750960 105.8364840  31.0303670  51.4410150
 105.3467510  30.4530190  50.1300190 107.7417170  32.3083320  37.8574100
 108.6666480  32.1764500  37.6492390 107.7192960  32.3876140  38.8110550
 107.8155660  33.0793980  40.4830810 107.0207160  33.0139100  41.0123720
 108.0198940  34.0144620  40.4716160 104.7574080  47.1185530  44.4769200
 105.3533150  46.7970100  43.8003620 105.0152230  46.6457350  45.2682470
  91.0572280  30.3783840  50.4606640  90.7087100  30.8347660  51.2264820
  90.7259980  29.4840970  50.5429070  96.3642680  45.1063030  50.2269550
  96.1234040  45.3737590  49.3400070  97.3045320  45.2768760  50.2820410
  98.5697100  31.5695720  53.9826060  98.5085990  32.1617550  54.7321470
  99.5097480  31.4621680  53.8376320 101.2071660  31.2265780  53.6218350
 101.8212070  31.5445070  52.9599430 101.7521220  30.7414370  54.2414210
 107.6246840  47.1257410  51.0280190 107.1305120  47.5226280  50.3107320
 107.0160130  46.5006620  51.4217470  91.7292920  29.9060040  53.7357410
  92.2775910  29.7248090  52.9723520  91.7948230  29.1154150  54.2713720
 101.9479700  29.7897920  49.9487640 101.0739540  30.1233030  49.7460570
 101.8390450  29.3171100  50.7739510 102.8551680  31.9968790  51.3329360
 102.5265040  31.1820550  50.9531090 103.8033980  31.9538600  51.2095050
 105.3086290  47.7680830  48.3066930 104.8489260  48.5196640  47.9324950
 104.6798750  47.0487300  48.2481730  95.7382010  46.0769070  47.4815060
  96.2547030  45.4656430  46.9563320  96.3879390  46.5797850  47.9726070
  98.4777510  46.9677560  48.3084040  98.7655320  46.7131860  47.4317050
  98.9900730  46.4154920  48.8989610  99.6954520  30.7067760  48.8880550
  98.9126310  31.1813260  49.1677310  99.4017450  29.8022590  48.7793730
 104.2475590  31.4090860  46.9329640 104.6883680  31.3535960  46.0851240
 103.9783180  32.3248870  47.0039820 106.1114160  31.0406100  44.9438460
 106.0502560  30.0967320  44.7969480 106.8906190  31.1486190  45.4891920
  90.4166910  47.1798460  43.9062410  90.2488950  46.5469140  44.6044300
  89.5501420  47.3857860  43.5556600  91.0394930  31.0115240  41.4094270
  91.7974290  31.1244120  40.8358300  90.5772100  31.8484440  41.3637700
  97.5808740  33.1254510  44.3996580  96.7683250  32.7511400  44.0592460
  98.0850380  32.3699590  44.7017770 102.0833720  29.7896960  45.6379650
 102.6863090  30.3617170  46.1128170 101.3426710  30.3536400  45.4153550
 105.2268320  30.1918520  40.9119930 105.4218950  31.0901970  41.1787360
 104.4398190  29.9605600  41.4052880  92.0229610  45.8731690  41.3512550
  91.4977230  46.2539720  40.6474510  91.9474190  46.4982460  42.0722260
  93.4120080  31.5379290  39.9496240  93.9412840  30.7509090  39.8204190
  94.0448400  32.2170480  40.1831770  95.6057920  31.2754430  43.0041630
  94.9760660  30.5741740  43.1711760  95.0663060  32.0358560  42.7874790
 106.7794930  47.4319230  42.6726490 106.9547120  46.7456970  42.0287410
 106.0816500  47.9566280  42.2803160  95.7313480  30.5538410  55.4394120
  95.4497750  31.0572010  54.6754940  96.1133180  29.7560160  55.0736250
  94.6222580  47.8214070  40.2261800  95.3541400  47.5373350  39.6785690
  94.8816250  47.5827350  41.1161180  93.7837370  43.9378800  40.2308130
  93.1546250  44.4063900  40.7793960  93.8985200  43.0928020  40.6654320
 102.3328940  29.9691990  56.0174590 102.2194390  30.2886600  56.9126110
 103.1498680  30.3704500  55.7211870 105.1127430  47.1163520  55.4993280
 105.9052750  46.6212750  55.2919240 105.4060580  47.7953660  56.1068890
 101.2387090  37.9884460  26.3809330 101.1581140  37.0739070  26.1101040
 100.8251510  38.4851530  25.6749040  99.3705130  39.7663480  28.2618600
  98.5947230  39.2863920  28.5517170 100.0218060  39.0869130  28.0874760
  93.3870960  40.0783290  29.1394360  92.5555840  39.8232000  29.5390870
  93.9951940  40.1494060  29.8752280 103.3912560  44.1723670  27.0417730
 102.9294090  43.4010910  27.3704900 104.2038110  44.1989740  27.5470180
  93.3672220  44.1123380  29.3352380  93.6700260  43.2221120  29.1562600
  94.1115810  44.6693600  29.1074630  91.7962910  35.0385180  22.9236750
  90.9079610  35.3801150  22.8216630  92.0804100  34.8385500  22.0317580
  89.7595920  37.6390830  28.8076450  90.3312030  36.8713030  28.8080090
  89.7597460  37.9379590  27.8983060  99.6175870  46.4581680  26.6621720
  98.9987310  46.9139180  26.0916160 100.4727650  46.6133140  26.2611420
  98.8114120  42.4420670  28.2688760  98.7422400  41.5010610  28.1077890
  99.5733980  42.5322080  28.8411330  91.0020790  33.0475190  30.5945380
  90.8223630  32.1500940  30.8748140  90.6000870  33.5947060  31.2692330
  99.8419290  35.2491050  28.4957690 100.2184110  34.3762930  28.3831360
  99.7438800  35.5849750  27.6048130  93.9724300  33.6216680  23.9575130
  94.0791050  34.5220410  24.2643890  93.0616660  33.5734650  23.6669780
 103.6243410  32.7441490  25.4286030 104.4453030  32.2538060  25.4711510
 103.6577490  33.3339150  26.1817870  91.6207460  35.5435690  29.2027720
  92.3017570  35.8074060  29.8215120  91.3055510  34.7036560  29.5365730
  95.8132030  36.5903050  28.2900310  96.3210250  37.0884020  28.9305330
  96.3445270  35.8138250  28.1139670 107.9142960  34.7608240  31.9929660
 107.2095130  35.1489950  31.4744770 108.1800880  35.4558530  32.5950590
  94.0968130  31.2301610  32.5563730  94.0986570  31.7474000  31.7509630
  93.2672440  30.7531790  32.5333660 100.4839220  41.3420920  24.0553630
  99.8656490  41.8070370  23.4916350 100.9962470  42.0348400  24.4723140
  95.3470980  40.8696790  30.7337230  95.0140360  41.4965710  31.3758300
  95.5237660  41.3958670  29.9538900 103.8604890  34.6841870  28.2013570
 103.1560460  34.9726760  28.7816680 104.2217050  35.4941980  27.8413130
  93.7783460  32.9411570  30.5634180  94.1200270  33.7853620  30.2688050
  92.8399270  33.0895310  30.6799520  94.5590080  42.8377590  32.5486410
  95.1764080  43.5128670  32.2670860  93.6983200  43.2465570  32.4573910
  89.8522420  42.0277450  21.4293260  89.4750400  42.5164550  20.6978160
  90.1095490  42.7002730  22.0599790 105.4767670  44.3017000  30.4641050
 104.7931190  44.9716110  30.4557720 106.0161960  44.4997650  29.6985910
 106.9291810  34.1296660  28.5922780 105.9816720  34.1635640  28.7238210
 107.2541800  34.9435610  28.9772140  97.4611350  30.4293840  26.8878770
  97.7686330  29.8740730  26.1714270  96.5312050  30.5638300  26.7051760
 103.0126410  46.1461130  29.1786230 103.0253570  45.7423420  28.3108490
 102.4601630  46.9208420  29.0747660 104.3071830  42.8677350  24.2676400
 104.1968160  41.9251680  24.3925820 104.3040080  43.2292990  25.1539160
 102.4111850  41.0490970  30.5068840 102.8280640  40.8351080  29.6722300
 103.1351670  41.3063760  31.0777460  99.8492110  38.4942670  23.6238890
  98.9221390  38.4280050  23.8527360 100.0016930  39.4322800  23.5094130
  99.8361190  34.7659670  20.6206050  98.8964860  34.9273630  20.7058510
 100.1544450  35.4845350  20.0742040 106.3573950  39.4478190  30.5985080
 105.5292580  39.5171280  30.1235210 106.9524430  40.0332500  30.1300910
 103.8789400  40.0562970  24.1274140 103.2601820  39.7182520  23.4800440
 103.8613850  39.4122730  24.8353330 103.3215960  36.2347510  31.5439950
 102.9087140  37.0601220  31.7979940 102.5891910  35.6492550  31.3516310
  95.4548750  39.0207410  26.4058620  95.0505750  38.3084660  25.9104520
  95.5411870  38.6760650  27.2946660  95.9230450  42.7074970  28.5697830
  95.6258740  42.1020440  27.8905610  96.8730270  42.7452280  28.4587190
  94.1677370  35.7950620  30.1857660  94.7191960  35.9045960  29.4110910
  94.6820880  36.1688220  30.9012890 104.0116060  46.2806840  32.2320930
 103.5346620  47.0879030  32.0393540 103.3277850  45.6285170  32.3847140
  95.0148880  42.4456660  35.2205630  94.1177410  42.6696630  35.4679030
  95.0401750  42.5691600  34.2717030 102.0554100  39.2949780  21.1346890
 102.4947380  38.4572210  20.9884710 102.7682520  39.9279180  21.2211030
  93.8420100  39.3169980  33.7963000  93.7027870  40.1892780  34.1650400
  92.9601460  38.9742790  33.6510940 100.1649480  44.2345850  25.1028130
 100.6045390  44.9770180  24.6883520 100.1036370  44.4772420  26.0267090
  95.6400450  45.2591680  36.0048150  95.6115880  45.6634630  35.1376580
  95.4765420  44.3302040  35.8419750 105.6371240  30.5492590  19.4487930
 105.3243900  30.6419420  20.3487000 106.3983710  31.1273620  19.3985360
  92.1553380  37.9152390  23.9065270  92.0350980  38.6414480  23.2946540
  91.8454270  37.1455300  23.4293180 107.5915270  46.0418780  37.3012320
 108.0674990  46.5201670  37.9801400 108.2122430  45.9736270  36.5757820
  89.7938750  41.0867530  29.7133910  89.8719170  41.2216300  28.7689630
  90.4080430  40.3783420  29.9062030  91.0386380  42.7867720  26.1240090
  90.6314460  42.9282310  25.2693690  91.9299390  42.5027880  25.9211300
 106.9948520  43.2331630  34.4612330 107.1211580  42.9943510  33.5429510
 107.0369900  42.4016170  34.9334410 100.8565260  46.9359630  33.0307140
 101.3709930  46.8467640  33.8329570 100.0134340  47.2819330  33.3235050
 102.8319660  47.2214970  22.4591140 102.6720800  46.9317910  23.3572970
 102.6666370  46.4455100  21.9236370  95.3108040  47.0013500  24.2362760
  95.1350520  46.0849040  24.0230560  94.4563780  47.3600790  24.4760560
 102.5345790  44.7302530  21.0189140 101.8410950  44.7279820  20.3591420
 103.2768650  44.3061850  20.5883310 102.0995720  46.3565240  25.0937630
 102.5552670  45.5754620  25.4076250 102.4388240  47.0672060  25.6378810
 106.8472530  35.2864090  35.4262070 106.2316800  35.7943760  34.8977530
 106.5268950  34.3862420  35.3688010  89.8498270  42.1281700  32.2528370
  90.0129310  41.6587060  31.4347740  90.3150720  41.6205260  32.9177210
  94.6217040  31.2587460  27.2888940  94.1785190  32.0397000  26.9573460
  95.1802030  31.5817350  27.9959880  98.9086850  34.1255980  32.8924260
  98.4466220  34.3339000  33.7044200  98.5064960  33.3115330  32.5894930
 103.9091360  35.3464930  34.0220920 103.0584950  35.0470680  34.3429990
 103.7493150  35.5906940  33.1104740 101.0041070  36.8466680  36.1219710
 101.3294480  36.0130430  35.7821940 101.7921400  37.3695200  36.2698040
  97.7375860  30.8798160  22.1694770  97.1130040  30.8758030  22.8948080
  97.6505980  30.0129120  21.7730740  96.6592940  31.8034790  29.1478540
  96.9565270  32.7097620  29.0670560  97.2078500  31.3153570  28.5338110
  94.4131260  36.3821030  25.0170190  94.1872180  36.1658200  25.9216810
  93.6323790  36.8149490  24.6716160 101.6429020  36.3884400  23.6160840
 101.0437910  37.1120200  23.4324460 102.1908630  36.3261180  22.8337290
  96.8530470  37.2806610  35.6830460  96.7574070  36.3401340  35.5330860
  97.6962450  37.5021680  35.2878530 100.2493890  35.0247940  25.6464120
 100.6423460  35.3420140  24.8332810 100.6110740  34.1459820  25.7608640
  91.9841010  33.6920280  33.8364240  91.5904400  34.5395490  34.0437020
  91.2959410  33.0546650  34.0272880  98.5586060  33.7755250  36.9060980
  97.8684380  33.5827450  37.5407070  99.3018360  34.0589890  37.4385280
  89.2858060  31.6148740  27.8694320  88.9971110  32.1851600  28.5819300
  90.0303820  31.1353190  28.2325550  89.4728290  35.5568860  19.0797040
  89.3902960  36.4999620  19.2212030  89.1211350  35.4143770  18.2009390
 100.8349030  37.6153690  29.7414900 100.1030150  38.1240500  30.0905000
 100.4373370  36.7983670  29.4403680  97.2726420  34.2907890  28.1467390
  97.2762480  33.8497840  27.2971930  98.1677540  34.6125220  28.2539210
  93.1228800  34.1734380  27.1061600  92.7828850  34.6509610  27.8628650
  92.3606120  33.7199500  26.7462700  97.3346570  35.2919970  21.1374150
  97.4559390  35.2506450  22.0859970  96.9495080  36.1544120  20.9820880
 101.2974940  33.0687370  29.1537840 101.3147680  33.5196020  29.9979690
 101.0490520  32.1693010  29.3671280  96.3468070  37.6021110  20.5357450
  95.7784970  37.1539360  19.9093360  97.0557070  37.9613890  20.0022600
 104.7245690  30.4819550  34.9924220 105.0491460  29.7509210  35.5182200
 104.7602200  30.1633190  34.0905210  91.4237250  41.5033130  34.4124180
  91.0392040  40.8626800  35.0107140  91.7349440  42.2069250  34.9818910
  97.5734390  38.3509670  29.8932800  97.9404520  37.8768240  30.6394140
  97.3839450  39.2251240  30.2341140  90.4374880  33.0953360  26.0226270
  90.1521800  32.7309030  26.8604890  90.3753740  32.3633820  25.4089410
  95.3633760  37.3918310  32.2117010  95.0590830  38.2710290  32.4367370
  96.3180220  37.4518100  32.2474450  93.8915550  41.5979300  22.8083860
  93.1177810  41.0576920  22.6482580  94.6210180  41.0785910  22.4701620
 104.6503530  40.5944660  28.6010250 105.3702650  41.0899950  28.2106360
 104.4485350  39.9162550  27.9564120 100.1113470  31.9882620  22.7439640
  99.2978080  31.4895790  22.6684950  99.9175420  32.8280870  22.3275990
 100.0322330  40.6653720  34.4879250  99.9659640  39.7449390  34.2336840
  99.4027470  40.7629160  35.2023890 102.8261860  36.3602270  21.0401800
 103.7141480  36.6719500  20.8653140 102.7966950  35.4874520  20.6482380
  93.9352950  41.2659680  26.4462670  94.4531620  40.4627940  26.3919560
  93.4836970  41.2038820  27.2879500  98.8222450  42.5325960  21.7189970
  99.1638150  43.2768190  21.2233290  97.9935160  42.8457080  22.0814800
  91.4197490  38.2321050  33.3588370  91.0612430  38.8974900  33.9461710
  91.1252050  37.4004600  33.7300990  94.6210610  38.6905290  36.2427920
  94.3210750  38.8362470  35.3455740  95.3921850  38.1310580  36.1501310
  99.9639060  43.4874290  34.2383050  99.9783600  42.5555250  34.0201960
  99.2564160  43.5734050  34.8772820 105.0976130  37.6714110  20.5081660
 105.0139850  38.1028330  19.6578100 105.8170320  38.1312460  20.9408480
 106.1750270  40.1281630  33.5851630 105.4498460  40.7210410  33.3881020
 106.7025730  40.1205170  32.7865000 106.1263380  44.5256370  23.2363790
 105.4839540  43.8711990  23.5107510 105.7394040  44.9311460  22.4604460
 101.7049860  41.8541800  27.0835480 102.0573680  41.2569930  26.4236850
 100.8212190  41.5286030  27.2543730  97.7913140  42.6139490  24.4905890
  98.4784270  43.1608700  24.8713480  97.0045560  43.1580220  24.5255500
  89.9305540  38.2312310  19.9822970  90.8000390  38.5137110  20.2658890
  89.4395860  39.0448180  19.8671780  97.0940350  39.6185520  24.1031250
  97.5503130  40.4290770  24.3291440  96.7428560  39.3008660  24.9349740
  99.3972960  45.1291860  31.3323550 100.0415180  45.3351240  32.0096970
  99.7602400  44.3680260  30.8794400  92.9952130  29.9623170  24.5753770
  92.8666760  29.9541070  25.5238690  92.1714150  30.3006260  24.2244780
 100.6705040  43.1324210  30.0501000 101.3127270  42.4317370  30.1633170
 101.1954390  43.9122650  29.8697890 104.5160760  43.4172830  19.7740140
 104.2898340  42.7003270  20.3664780 104.1256960  43.1685270  18.9361890
 102.4442660  43.9319110  33.2537060 102.7798900  44.5185800  33.9314980
 101.5243000  43.8011820  33.4834850  90.2976790  47.4439690  20.5484600
  90.6574430  48.0429030  19.8941870  90.1569130  47.9899580  21.3219630
  89.9946060  31.7214290  34.0360470  89.2804580  31.9211210  34.6413080
  90.4141100  30.9453860  34.4075270 104.0977010  41.3344770  21.4354300
 103.8098710  41.7957460  22.2232180 104.8929180  40.8742540  21.7038520
  90.2818650  45.7094550  35.0227000  90.3909770  44.7689290  34.8822390
  89.6299210  45.9749300  34.3740730  98.2731240  43.9810440  36.4225120
  97.9528110  43.2619680  36.9670810  97.5989600  44.6565510  36.4961180
  96.3145410  44.8270890  21.3658270  96.3055510  45.5600580  20.7502780
  95.3943770  44.5802470  21.4585230  91.9152050  40.0485780  22.1105030
  91.3080000  40.7884680  22.1200330  92.3901400  40.1385140  21.2843230
 101.4884840  34.2136600  31.7861920 101.8565660  33.3931810  32.1141490
 100.6283040  34.2738490  32.2017570 104.8546870  33.1693540  22.5949480
 104.2260030  33.2739210  21.8807710 104.3598790  33.3890320  23.3843360
  99.3005010  44.8899130  20.0283460  99.4016990  44.6863120  19.0985440
  98.4006750  44.6357410  20.2331240  96.8230900  35.4479490  24.0107360
  96.1147050  35.9165830  24.4520970  97.1075380  34.7901500  24.6452550
  98.4486830  36.8676190  32.0099890  98.9472080  37.3422010  32.6751740
  98.5909780  35.9439710  32.2169920 100.8546330  32.1730150  25.4503150
 100.7314110  32.1916280  24.5012660 101.8030890  32.2209090  25.5701550
  97.9423120  47.4085450  24.7231130  98.1964620  47.3706840  23.8010500
  96.9935600  47.2818780  24.7159380  95.0265920  33.7564570  21.3858070
  95.8756450  34.1934720  21.3198260  94.6597190  34.0684830  22.2130130
 105.6553690  33.0844150  32.8528280 105.1527290  33.8249550  33.1922090
 106.4710350  33.4728150  32.5365070 103.9475700  38.3277330  26.2989640
 103.0065840  38.3427560  26.4737330 104.2619770  37.5413290  26.7449940
  93.9257340  40.0096930  19.8593600  94.6920610  39.8978290  20.4219030
  94.0032030  39.3134900  19.2070370  92.6204100  37.4422000  20.5426490
  92.7007690  36.4949510  20.6543890  93.5123850  37.7728880  20.6487150
 105.9501280  45.4986180  27.9743900 106.0748700  46.3217350  28.4467710
 106.8166840  45.2876910  27.6268050  93.4218810  47.5917390  27.6461030
  94.1581290  47.0432850  27.9169600  93.8059730  48.4573400  27.5067020
  90.3064290  43.6590960  23.5202540  89.3804070  43.9012100  23.5107950
  90.7720720  44.4865220  23.3987290  92.4277090  46.7763460  36.8346610
  93.2289820  47.0975510  37.2482010  91.9128910  46.4159040  37.5566520
  96.5321120  46.7647700  19.4686600  97.3249730  47.0536530  19.0168390
  96.0125470  46.3339870  18.7899080 101.2641720  42.8843330  36.7822020
 100.6579880  42.9074930  36.0417770 100.9595830  42.1526370  37.3189270
 102.6942090  46.6123620  35.3931430 103.6463840  46.5281640  35.3431670
 102.5470310  47.2765330  36.0665220 105.5851290  45.9917830  20.8923340
 105.2992800  45.5782970  20.0777520 105.3870840  46.9205540  20.7723860
  90.1474900  39.2636920  35.7782660  90.6513920  38.6844200  36.3498890
  89.4082320  39.5477150  36.3159030  97.0498520  41.9851110  19.3328950
  96.9449160  41.3703460  20.0590330  96.8822740  41.4617000  18.5491960
  97.2012840  40.6707910  35.3118180  96.4358510  41.2392910  35.2272850
  97.3828800  40.3784120  34.4186410 100.2901250  41.0471140  19.9370940
  99.7411350  41.4940440  20.5813680 100.9120510  40.5420390  20.4608610
 104.3436190  42.4013240  35.8693200 105.0845660  42.7389000  35.3660660
 103.5808870  42.5705300  35.3162970  92.1797980  37.4066510  36.6732730
  92.2203320  37.1080380  37.5817960  93.0343480  37.8074120  36.5140250
  95.9576370  40.0062060  21.8336240  96.3792790  39.8401930  22.6767630
  96.0827210  39.1962290  21.3391380  94.1203790  35.9858610  34.6407220
  93.5900250  35.4949560  34.0130560  94.7891860  36.4142810  34.1065150
  98.4704010  39.0299670  19.0813340  98.9909670  38.3148690  18.7154490
  99.1172410  39.6685540  19.3813850 103.0181850  40.4528070  34.4048410
 103.4322870  40.6073150  35.2538830 102.0832850  40.5783290  34.5674190
 103.4904020  37.7924230  36.4087560 104.0724790  37.0376550  36.3208040
 103.6665790  38.3231670  35.6319040  94.6076090  32.9520980  34.7204510
  94.5132960  32.3341730  33.9955380  94.0273480  33.6787270  34.4934420
  97.3737530  31.5094220  31.7531900  96.9254830  31.5318480  30.9077450
  96.7402730  31.1113240  32.3502200  97.7797080  40.4048550  32.3744340
  98.1985190  41.2481280  32.2020580  96.8605710  40.5420590  32.1451120
 100.1160980  38.1364730  33.7582180 100.2357190  37.5405870  34.4977020
 100.9754980  38.1734420  33.3383480 102.4548880  38.6901920  32.3344690
 101.9284100  39.2144540  31.7309830 102.7980220  39.3229310  32.9654420
  94.8535270  36.0795290  18.7794400  94.6524330  35.2162650  19.1407740
  94.6827320  35.9928650  17.8416000  95.6304500  46.7101560  33.4902070
  95.0925590  47.4347620  33.1710770  95.8838460  46.2331900  32.6999410
  96.8829750  34.6786080  35.0158000  97.4729440  34.3701930  35.7035820
  96.0649990  34.2065830  35.1717900 101.7023180  34.2951890  35.2491020
 101.0138700  33.6333430  35.1841010 102.4229200  33.8490160  35.6939480
 102.3323580  30.8903520  21.3081280 102.6125870  30.0471420  21.6640700
 101.5589310  31.1226630  21.8220030  93.6518070  33.1795910  18.7672280
  93.9543970  33.1863340  17.8591430  94.3912660  32.8293770  19.2639940
  98.4866710  47.9452770  33.7488720  98.4125410  48.8487910  34.0561090
  97.5845550  47.6264670  33.7210790  96.8703000  32.1230530  19.7528480
  96.5225000  31.4454520  19.1730930  97.0715770  31.6620040  20.5671870
  99.0352040  47.1111280  21.3715080  99.9302830  47.4496250  21.3933840
  99.0669670  46.3890690  20.7439360  92.6748200  42.4838330  19.6002080
  93.1123070  43.0268000  20.2559660  93.1595930  41.6585280  19.6098420
  89.8894000  45.2727360  27.0522340  90.2197010  44.4048420  26.8200980
  90.3185000  45.4785880  27.8827300  94.4855920  43.6036370  24.7124310
  94.1851460  43.4801340  25.6128220  94.3793410  42.7444960  24.3040040
  90.3784210  46.1397950  29.7903970  89.9415200  46.3198750  30.6228120
  90.9461890  46.8972570  29.6485690 106.0146390  45.6414950  34.0781280
 105.4148380  45.7007510  33.3345200 106.1440290  44.7019930  34.2078130
 107.2547840  43.3832770  19.4150990 106.4240800  43.4509420  19.8858220
 107.4319670  44.2736890  19.1117850 106.7104300  40.1280250  21.9185190
 107.4723210  40.6976900  22.0244880 106.7258670  39.5607450  22.6893500
  90.2108640  38.6518180  26.1492850  89.5557480  38.3829820  25.5052550
  91.0486590  38.5422660  25.6994830 107.7164270  40.9830350  26.7627120
 108.0873100  40.1997670  26.3563090 108.3566200  41.6719450  26.5844420
 104.6998030  42.3666930  32.1757440 103.8857870  42.7964090  32.4383230
 105.1072230  42.9785340  31.5626490 106.7623470  40.4214620  19.0757710
 107.0372310  41.3293500  18.9476930 106.5734210  40.3577150  20.0119700
 103.1599080  33.4459470  20.3711340 103.5783960  33.2590450  19.5308000
 102.8535140  32.5938520  20.6814270 106.6588810  38.3583610  24.0687140
 106.2832410  37.5911540  23.6368430 105.9291930  38.7406310  24.5562070
  91.2484570  39.0370750  30.6896190  91.6157610  38.9498150  31.5692210
  90.6795390  38.2737300  30.5903050 106.0488430  37.5055130  33.7026660
 105.8174520  37.2767880  32.8024610 106.3092980  38.4254680  33.6571550
  90.8000570  35.9479840  34.5954610  89.9056620  35.9146600  34.9348320
  91.3398120  36.1466630  35.3605860 104.4876500  32.7311560  36.4806360
 105.3646680  32.7394960  36.8640360 104.4997340  31.9942400  35.8698710
  89.4246720  35.8617110  22.0918180  88.5210800  36.1247310  21.9169840
  89.9087340  36.1328280  21.3118140 105.9339770  36.5841100  27.3694380
 106.4577250  36.0903750  26.7384550 106.5199190  36.7191460  28.1141950
 106.1129490  36.6680970  30.8913930 105.1632200  36.6344510  31.0058920
 106.2942500  37.5781080  30.6563700  91.9673930  34.9182650  20.0012560
  92.6765630  34.4965870  19.5159840  91.2513870  34.9857880  19.3695910
  91.6148090  30.9721980  19.0415210  92.3376220  31.5130920  19.3596430
  91.8872610  30.6985400  18.1656750 105.4239740  35.8414450  23.3086790
 105.9198860  35.6085320  24.0935670 105.2255810  35.0026290  22.8924430
  91.3040280  30.2228170  28.9437830  91.9516470  29.6725550  28.5032990
  91.7242120  30.4771320  29.7653640 106.8526900  34.4775400  25.8424470
 106.7426180  34.3231440  26.7806740 107.6134490  33.9496340  25.5999880
 105.1992620  30.4169530  32.3007470 105.8364840  31.0303670  32.6666660
 105.3467510  30.4530190  31.3556700 107.7417170  32.3083320  19.0830610
 108.6666480  32.1764500  18.8748900 107.7192960  32.3876140  20.0367060
 107.8155660  33.0793980  21.7087320 107.0207160  33.0139100  22.2380230
 108.0198940  34.0144620  21.6972670 104.7574080  47.1185530  25.7025710
 105.3533150  46.7970100  25.0260130 105.0152230  46.6457350  26.4938980
  91.0572280  30.3783840  31.6863150  90.7087100  30.8347660  32.4521330
  90.7259980  29.4840970  31.7685580  92.6636650  43.5503440  35.8516340
  92.6206280  43.1796350  36.7330800  92.7947660  44.4881010  35.9918160
  96.3642680  45.1063030  31.4526060  96.1234040  45.3737590  30.5656580
  97.3045320  45.2768760  31.5076920  98.5697100  31.5695720  35.2082570
  98.5085990  32.1617550  35.9577980  99.5097480  31.4621680  35.0632830
 101.2071660  31.2265780  34.8474860 101.8212070  31.5445070  34.1855940
 101.7521220  30.7414370  35.4670720 107.6246840  47.1257410  32.2536700
 107.1305120  47.5226280  31.5363830 107.0160130  46.5006620  32.6473980
  91.7292920  29.9060040  34.9613920  92.2775910  29.7248090  34.1980030
  91.7948230  29.1154150  35.4970230  92.5024680  46.4965690  32.9714120
  91.9085000  46.3650390  33.7104160  92.4948520  45.6603830  32.5056220
 101.9479700  29.7897920  31.1744150 101.0739540  30.1233030  30.9717080
 101.8390450  29.3171100  31.9996020 102.8551680  31.9968790  32.5585870
 102.5265040  31.1820550  32.1787600 103.8033980  31.9538600  32.4351560
 105.3086290  47.7680830  29.5323440 104.8489260  48.5196640  29.1581460
 104.6798750  47.0487300  29.4738240  92.1336910  43.8624070  31.9222160
  91.4070970  43.2429360  31.8548110  92.1946060  44.2564680  31.0520240
  95.7382010  46.0769070  28.7071570  96.2547030  45.4656430  28.1819830
  96.3879390  46.5797850  29.1982580  98.4777510  46.9677560  29.5340550
  98.7655320  46.7131860  28.6573560  98.9900730  46.4154920  30.1246120
  99.6954520  30.7067760  30.1137060  98.9126310  31.1813260  30.3933820
  99.4017450  29.8022590  30.0050240 104.2475590  31.4090860  28.1586150
 104.6883680  31.3535960  27.3107750 103.9783180  32.3248870  28.2296330
 106.1114160  31.0406100  26.1694970 106.0502560  30.0967320  26.0225990
 106.8906190  31.1486190  26.7148430  90.4166910  47.1798460  25.1318920
  90.2488950  46.5469140  25.8300810  89.5501420  47.3857860  24.7813110
  91.0394930  31.0115240  22.6350780  91.7974290  31.1244120  22.0614810
  90.5772100  31.8484440  22.5894210  97.5808740  33.1254510  25.6253090
  96.7683250  32.7511400  25.2848970  98.0850380  32.3699590  25.9274280
 102.0833720  29.7896960  26.8636160 102.6863090  30.3617170  27.3384680
 101.3426710  30.3536400  26.6410060 105.2268320  30.1918520  22.1376440
 105.4218950  31.0901970  22.4043870 104.4398190  29.9605600  22.6309390
  92.0229610  45.8731690  22.5769060  91.4977230  46.2539720  21.8731020
  91.9474190  46.4982460  23.2978770  93.4120080  31.5379290  21.1752750
  93.9412840  30.7509090  21.0460700  94.0448400  32.2170480  21.4088280
  95.6057920  31.2754430  24.2298140  94.9760660  30.5741740  24.3968270
  95.0663060  32.0358560  24.0131300  98.5449870  47.8893660  36.9008750
  99.4717180  47.6537930  36.9444710  98.5300300  48.7165660  36.4194780
 106.7794930  47.4319230  23.8983000 106.9547120  46.7456970  23.2543920
 106.0816500  47.9566280  23.5059670  95.7313480  30.5538410  36.6650630
  95.4497750  31.0572010  35.9011450  96.1133180  29.7560160  36.2992760
  94.6222580  47.8214070  21.4518310  95.3541400  47.5373350  20.9042200
  94.8816250  47.5827350  22.3417690  93.7837370  43.9378800  21.4564640
  93.1546250  44.4063900  22.0050470  93.8985200  43.0928020  21.8910830
 102.3328940  29.9691990  37.2431100 102.2194390  30.2886600  38.1382620
 103.1498680  30.3704500  36.9468380 105.1127430  47.1163520  36.7249790
 105.9052750  46.6212750  36.5175750 105.4060580  47.7953660  37.3325400
 101.2387090  37.9884460   7.6065840 101.1581140  37.0739070   7.3357550
 100.8251510  38.4851530   6.9005550  99.3705130  39.7663480   9.4875110
  98.5947230  39.2863920   9.7773680 100.0218060  39.0869130   9.3131270
  93.3870960  40.0783290  10.3650870  92.5555840  39.8232000  10.7647380
  93.9951940  40.1494060  11.1008790 103.3912560  44.1723670   8.2674240
 102.9294090  43.4010910   8.5961410 104.2038110  44.1989740   8.7726690
  93.3672220  44.1123380  10.5608890  93.6700260  43.2221120  10.3819110
  94.1115810  44.6693600  10.3331140  91.7962910  35.0385180   4.1493260
  90.9079610  35.3801150   4.0473140  92.0804100  34.8385500   3.2574090
  89.7595920  37.6390830  10.0332960  90.3312030  36.8713030  10.0336600
  89.7597460  37.9379590   9.1239570  99.6175870  46.4581680   7.8878230
  98.9987310  46.9139180   7.3172670 100.4727650  46.6133140   7.4867930
  98.8114120  42.4420670   9.4945270  98.7422400  41.5010610   9.3334400
  99.5733980  42.5322080  10.0667840  91.0020790  33.0475190  11.8201890
  90.8223630  32.1500940  12.1004650  90.6000870  33.5947060  12.4948840
  99.8419290  35.2491050   9.7214200 100.2184110  34.3762930   9.6087870
  99.7438800  35.5849750   8.8304640  93.9724300  33.6216680   5.1831640
  94.0791050  34.5220410   5.4900400  93.0616660  33.5734650   4.8926290
 103.6243410  32.7441490   6.6542540 104.4453030  32.2538060   6.6968020
 103.6577490  33.3339150   7.4074380  91.6207460  35.5435690  10.4284230
  92.3017570  35.8074060  11.0471630  91.3055510  34.7036560  10.7622240
  95.8132030  36.5903050   9.5156820  96.3210250  37.0884020  10.1561840
  96.3445270  35.8138250   9.3396180 107.9142960  34.7608240  13.2186170
 107.2095130  35.1489950  12.7001280 108.1800880  35.4558530  13.8207100
  94.0968130  31.2301610  13.7820240  94.0986570  31.7474000  12.9766140
  93.2672440  30.7531790  13.7590170 100.4839220  41.3420920   5.2810140
  99.8656490  41.8070370   4.7172860 100.9962470  42.0348400   5.6979650
  95.3470980  40.8696790  11.9593740  95.0140360  41.4965710  12.6014810
  95.5237660  41.3958670  11.1795410 103.8604890  34.6841870   9.4270080
 103.1560460  34.9726760  10.0073190 104.2217050  35.4941980   9.0669640
  93.7783460  32.9411570  11.7890690  94.1200270  33.7853620  11.4944560
  92.8399270  33.0895310  11.9056030  94.5590080  42.8377590  13.7742920
  95.1764080  43.5128670  13.4927370  93.6983200  43.2465570  13.6830420
  89.8522420  42.0277450   2.6549770  89.4750400  42.5164550   1.9234670
  90.1095490  42.7002730   3.2856300 105.4767670  44.3017000  11.6897560
 104.7931190  44.9716110  11.6814230 106.0161960  44.4997650  10.9242420
 106.9291810  34.1296660   9.8179290 105.9816720  34.1635640   9.9494720
 107.2541800  34.9435610  10.2028650  97.4611350  30.4293840   8.1135280
  97.7686330  29.8740730   7.3970780  96.5312050  30.5638300   7.9308270
 103.0126410  46.1461130  10.4042740 103.0253570  45.7423420   9.5365000
 102.4601630  46.9208420  10.3004170 104.3071830  42.8677350   5.4932910
 104.1968160  41.9251680   5.6182330 104.3040080  43.2292990   6.3795670
 102.4111850  41.0490970  11.7325350 102.8280640  40.8351080  10.8978810
 103.1351670  41.3063760  12.3033970  99.8492110  38.4942670   4.8495400
  98.9221390  38.4280050   5.0783870 100.0016930  39.4322800   4.7350640
  99.8361190  34.7659670   1.8462560  98.8964860  34.9273630   1.9315020
 100.1544450  35.4845350   1.2998550 106.3573950  39.4478190  11.8241590
 105.5292580  39.5171280  11.3491720 106.9524430  40.0332500  11.3557420
 103.8789400  40.0562970   5.3530650 103.2601820  39.7182520   4.7056950
 103.8613850  39.4122730   6.0609840 103.3215960  36.2347510  12.7696460
 102.9087140  37.0601220  13.0236450 102.5891910  35.6492550  12.5772820
  95.4548750  39.0207410   7.6315130  95.0505750  38.3084660   7.1361030
  95.5411870  38.6760650   8.5203170  95.9230450  42.7074970   9.7954340
  95.6258740  42.1020440   9.1162120  96.8730270  42.7452280   9.6843700
  94.1677370  35.7950620  11.4114170  94.7191960  35.9045960  10.6367420
  94.6820880  36.1688220  12.1269400 104.0116060  46.2806840  13.4577440
 103.5346620  47.0879030  13.2650050 103.3277850  45.6285170  13.6103650
  95.0148880  42.4456660  16.4462140  94.1177410  42.6696630  16.6935540
  95.0401750  42.5691600  15.4973540 102.0554100  39.2949780   2.3603400
 102.4947380  38.4572210   2.2141220 102.7682520  39.9279180   2.4467540
  93.8420100  39.3169980  15.0219510  93.7027870  40.1892780  15.3906910
  92.9601460  38.9742790  14.8767450 100.1649480  44.2345850   6.3284640
 100.6045390  44.9770180   5.9140030 100.1036370  44.4772420   7.2523600
  95.6400450  45.2591680  17.2304660  95.6115880  45.6634630  16.3633090
  95.4765420  44.3302040  17.0676260  92.1553380  37.9152390   5.1321780
  92.0350980  38.6414480   4.5203050  91.8454270  37.1455300   4.6549690
 107.5915270  46.0418780  18.5268830 108.0674990  46.5201670  19.2057910
 108.2122430  45.9736270  17.8014330  89.7938750  41.0867530  10.9390420
  89.8719170  41.2216300   9.9946140  90.4080430  40.3783420  11.1318540
  91.0386380  42.7867720   7.3496600  90.6314460  42.9282310   6.4950200
  91.9299390  42.5027880   7.1467810 106.9948520  43.2331630  15.6868840
 107.1211580  42.9943510  14.7686020 107.0369900  42.4016170  16.1590920
 100.8565260  46.9359630  14.2563650 101.3709930  46.8467640  15.0586080
 100.0134340  47.2819330  14.5491560 102.8319660  47.2214970   3.6847650
 102.6720800  46.9317910   4.5829480 102.6666370  46.4455100   3.1492880
  95.3108040  47.0013500   5.4619270  95.1350520  46.0849040   5.2487070
  94.4563780  47.3600790   5.7017070 102.5345790  44.7302530   2.2445650
 101.8410950  44.7279820   1.5847930 103.2768650  44.3061850   1.8139820
 102.0995720  46.3565240   6.3194140 102.5552670  45.5754620   6.6332760
 102.4388240  47.0672060   6.8635320 106.8472530  35.2864090  16.6518580
 106.2316800  35.7943760  16.1234040 106.5268950  34.3862420  16.5944520
  89.8498270  42.1281700  13.4784880  90.0129310  41.6587060  12.6604250
  90.3150720  41.6205260  14.1433720  94.6217040  31.2587460   8.5145450
  94.1785190  32.0397000   8.1829970  95.1802030  31.5817350   9.2216390
  98.9086850  34.1255980  14.1180770  98.4466220  34.3339000  14.9300710
  98.5064960  33.3115330  13.8151440 103.9091360  35.3464930  15.2477430
 103.0584950  35.0470680  15.5686500 103.7493150  35.5906940  14.3361250
 101.0041070  36.8466680  17.3476220 101.3294480  36.0130430  17.0078450
 101.7921400  37.3695200  17.4954550  97.7375860  30.8798160   3.3951280
  97.1130040  30.8758030   4.1204590  97.6505980  30.0129120   2.9987250
  96.6592940  31.8034790  10.3735050  96.9565270  32.7097620  10.2927070
  97.2078500  31.3153570   9.7594620  94.4131260  36.3821030   6.2426700
  94.1872180  36.1658200   7.1473320  93.6323790  36.8149490   5.8972670
 101.6429020  36.3884400   4.8417350 101.0437910  37.1120200   4.6580970
 102.1908630  36.3261180   4.0593800  96.8530470  37.2806610  16.9086970
  96.7574070  36.3401340  16.7587370  97.6962450  37.5021680  16.5135040
 100.2493890  35.0247940   6.8720630 100.6423460  35.3420140   6.0589320
 100.6110740  34.1459820   6.9865150  91.9841010  33.6920280  15.0620750
  91.5904400  34.5395490  15.2693530  91.2959410  33.0546650  15.2529390
  98.5586060  33.7755250  18.1317490  97.8684380  33.5827450  18.7663580
  99.3018360  34.0589890  18.6641790  89.2858060  31.6148740   9.0950830
  88.9971110  32.1851600   9.8075810  90.0303820  31.1353190   9.4582060
 100.8349030  37.6153690  10.9671410 100.1030150  38.1240500  11.3161510
 100.4373370  36.7983670  10.6660190  97.2726420  34.2907890   9.3723900
  97.2762480  33.8497840   8.5228440  98.1677540  34.6125220   9.4795720
  93.1228800  34.1734380   8.3318110  92.7828850  34.6509610   9.0885160
  92.3606120  33.7199500   7.9719210  97.3346570  35.2919970   2.3630660
  97.4559390  35.2506450   3.3116480  96.9495080  36.1544120   2.2077390
 101.2974940  33.0687370  10.3794350 101.3147680  33.5196020  11.2236200
 101.0490520  32.1693010  10.5927790 104.7245690  30.4819550  16.2180730
 105.0491460  29.7509210  16.7438710 104.7602200  30.1633190  15.3161720
  91.4237250  41.5033130  15.6380690  91.0392040  40.8626800  16.2363650
  91.7349440  42.2069250  16.2075420  97.5734390  38.3509670  11.1189310
  97.9404520  37.8768240  11.8650650  97.3839450  39.2251240  11.4597650
  90.4374880  33.0953360   7.2482780  90.1521800  32.7309030   8.0861400
  90.3753740  32.3633820   6.6345920  95.3633760  37.3918310  13.4373520
  95.0590830  38.2710290  13.6623880  96.3180220  37.4518100  13.4730960
  93.8915550  41.5979300   4.0340370  93.1177810  41.0576920   3.8739090
  94.6210180  41.0785910   3.6958130 104.6503530  40.5944660   9.8266760
 105.3702650  41.0899950   9.4362870 104.4485350  39.9162550   9.1820630
 100.1113470  31.9882620   3.9696150  99.2978080  31.4895790   3.8941460
  99.9175420  32.8280870   3.5532500 100.0322330  40.6653720  15.7135760
  99.9659640  39.7449390  15.4593350  99.4027470  40.7629160  16.4280400
 102.8261860  36.3602270   2.2658310 103.7141480  36.6719500   2.0909650
 102.7966950  35.4874520   1.8738890  93.9352950  41.2659680   7.6719180
  94.4531620  40.4627940   7.6176070  93.4836970  41.2038820   8.5136010
  98.8222450  42.5325960   2.9446480  99.1638150  43.2768190   2.4489800
  97.9935160  42.8457080   3.3071310  91.4197490  38.2321050  14.5844880
  91.0612430  38.8974900  15.1718220  91.1252050  37.4004600  14.9557500
  94.6210610  38.6905290  17.4684430  94.3210750  38.8362470  16.5712250
  95.3921850  38.1310580  17.3757820  99.9639060  43.4874290  15.4639560
  99.9783600  42.5555250  15.2458470  99.2564160  43.5734050  16.1029330
 106.1750270  40.1281630  14.8108140 105.4498460  40.7210410  14.6137530
 106.7025730  40.1205170  14.0121510 106.1263380  44.5256370   4.4620300
 105.4839540  43.8711990   4.7364020 105.7394040  44.9311460   3.6860970
 101.7049860  41.8541800   8.3091990 102.0573680  41.2569930   7.6493360
 100.8212190  41.5286030   8.4800240  97.7913140  42.6139490   5.7162400
  98.4784270  43.1608700   6.0969990  97.0045560  43.1580220   5.7512010
  97.0940350  39.6185520   5.3287760  97.5503130  40.4290770   5.5547950
  96.7428560  39.3008660   6.1606250  99.3972960  45.1291860  12.5580060
 100.0415180  45.3351240  13.2353480  99.7602400  44.3680260  12.1050910
  92.9952130  29.9623170   5.8010280  92.8666760  29.9541070   6.7495200
  92.1714150  30.3006260   5.4501290 100.6705040  43.1324210  11.2757510
 101.3127270  42.4317370  11.3889680 101.1954390  43.9122650  11.0954400
 102.4442660  43.9319110  14.4793570 102.7798900  44.5185800  15.1571490
 101.5243000  43.8011820  14.7091360  89.9946060  31.7214290  15.2616980
  89.2804580  31.9211210  15.8669590  90.4141100  30.9453860  15.6331780
 104.0977010  41.3344770   2.6610810 103.8098710  41.7957460   3.4488690
 104.8929180  40.8742540   2.9295030  90.2818650  45.7094550  16.2483510
  90.3909770  44.7689290  16.1078900  89.6299210  45.9749300  15.5997240
  98.2731240  43.9810440  17.6481630  97.9528110  43.2619680  18.1927320
  97.5989600  44.6565510  17.7217690  96.3145410  44.8270890   2.5914780
  96.3055510  45.5600580   1.9759290  95.3943770  44.5802470   2.6841740
  91.9152050  40.0485780   3.3361540  91.3080000  40.7884680   3.3456840
  92.3901400  40.1385140   2.5099740 101.4884840  34.2136600  13.0118430
 101.8565660  33.3931810  13.3398000 100.6283040  34.2738490  13.4274080
 104.8546870  33.1693540   3.8205990 104.2260030  33.2739210   3.1064220
 104.3598790  33.3890320   4.6099870  96.8230900  35.4479490   5.2363870
  96.1147050  35.9165830   5.6777480  97.1075380  34.7901500   5.8709060
  98.4486830  36.8676190  13.2356400  98.9472080  37.3422010  13.9008250
  98.5909780  35.9439710  13.4426430 100.8546330  32.1730150   6.6759660
 100.7314110  32.1916280   5.7269170 101.8030890  32.2209090   6.7958060
  97.9423120  47.4085450   5.9487640  98.1964620  47.3706840   5.0267010
  96.9935600  47.2818780   5.9415890  95.0265920  33.7564570   2.6114580
  95.8756450  34.1934720   2.5454770  94.6597190  34.0684830   3.4386640
 105.6553690  33.0844150  14.0784790 105.1527290  33.8249550  14.4178600
 106.4710350  33.4728150  13.7621580 103.9475700  38.3277330   7.5246150
 103.0065840  38.3427560   7.6993840 104.2619770  37.5413290   7.9706450
  92.6204100  37.4422000   1.7683000  92.7007690  36.4949510   1.8800400
  93.5123850  37.7728880   1.8743660 105.9501280  45.4986180   9.2000410
 106.0748700  46.3217350   9.6724220 106.8166840  45.2876910   8.8524560
  93.4218810  47.5917390   8.8717540  94.1581290  47.0432850   9.1426110
  93.8059730  48.4573400   8.7323530  90.3064290  43.6590960   4.7459050
  89.3804070  43.9012100   4.7364460  90.7720720  44.4865220   4.6243800
  92.4277090  46.7763460  18.0603120  93.2289820  47.0975510  18.4738520
  91.9128910  46.4159040  18.7823030 101.2641720  42.8843330  18.0078530
 100.6579880  42.9074930  17.2674280 100.9595830  42.1526370  18.5445780
 102.6942090  46.6123620  16.6187940 103.6463840  46.5281640  16.5688180
 102.5470310  47.2765330  17.2921730 105.5851290  45.9917830   2.1179850
 105.2992800  45.5782970   1.3034030 105.3870840  46.9205540   1.9980370
  90.1474900  39.2636920  17.0039170  90.6513920  38.6844200  17.5755400
  89.4082320  39.5477150  17.5415540  97.2012840  40.6707910  16.5374690
  96.4358510  41.2392910  16.4529360  97.3828800  40.3784120  15.6442920
 104.3436190  42.4013240  17.0949710 105.0845660  42.7389000  16.5917170
 103.5808870  42.5705300  16.5419480  92.1797980  37.4066510  17.8989240
  92.2203320  37.1080380  18.8074470  93.0343480  37.8074120  17.7396760
  95.9576370  40.0062060   3.0592750  96.3792790  39.8401930   3.9024140
  96.0827210  39.1962290   2.5647890  94.1203790  35.9858610  15.8663730
  93.5900250  35.4949560  15.2387070  94.7891860  36.4142810  15.3321660
 103.0181850  40.4528070  15.6304920 103.4322870  40.6073150  16.4795340
 102.0832850  40.5783290  15.7930700 103.4904020  37.7924230  17.6344070
 104.0724790  37.0376550  17.5464550 103.6665790  38.3231670  16.8575550
  94.6076090  32.9520980  15.9461020  94.5132960  32.3341730  15.2211890
  94.0273480  33.6787270  15.7190930  97.3737530  31.5094220  12.9788410
  96.9254830  31.5318480  12.1333960  96.7402730  31.1113240  13.5758710
  97.7797080  40.4048550  13.6000850  98.1985190  41.2481280  13.4277090
  96.8605710  40.5420590  13.3707630 100.1160980  38.1364730  14.9838690
 100.2357190  37.5405870  15.7233530 100.9754980  38.1734420  14.5639990
 102.4548880  38.6901920  13.5601200 101.9284100  39.2144540  12.9566340
 102.7980220  39.3229310  14.1910930  95.6304500  46.7101560  14.7158580
  95.0925590  47.4347620  14.3967280  95.8838460  46.2331900  13.9255920
  96.8829750  34.6786080  16.2414510  97.4729440  34.3701930  16.9292330
  96.0649990  34.2065830  16.3974410 101.7023180  34.2951890  16.4747530
 101.0138700  33.6333430  16.4097520 102.4229200  33.8490160  16.9195990
 102.3323580  30.8903520   2.5337790 102.6125870  30.0471420   2.8897210
 101.5589310  31.1226630   3.0476540  98.4866710  47.9452770  14.9745230
  98.4125410  48.8487910  15.2817600  97.5845550  47.6264670  14.9467300
  99.0352040  47.1111280   2.5971590  99.9302830  47.4496250   2.6190350
  99.0669670  46.3890690   1.9695870  89.8894000  45.2727360   8.2778850
  90.2197010  44.4048420   8.0457490  90.3185000  45.4785880   9.1083810
  94.4855920  43.6036370   5.9380820  94.1851460  43.4801340   6.8384730
  94.3793410  42.7444960   5.5296550  90.3784210  46.1397950  11.0160480
  89.9415200  46.3198750  11.8484630  90.9461890  46.8972570  10.8742200
 106.0146390  45.6414950  15.3037790 105.4148380  45.7007510  14.5601710
 106.1440290  44.7019930  15.4334640 106.7104300  40.1280250   3.1441700
 107.4723210  40.6976900   3.2501390 106.7258670  39.5607450   3.9150010
  90.2108640  38.6518180   7.3749360  89.5557480  38.3829820   6.7309060
  91.0486590  38.5422660   6.9251340 107.7164270  40.9830350   7.9883630
 108.0873100  40.1997670   7.5819600 108.3566200  41.6719450   7.8100930
 104.6998030  42.3666930  13.4013950 103.8857870  42.7964090  13.6639740
 105.1072230  42.9785340  12.7883000 106.6588810  38.3583610   5.2943650
 106.2832410  37.5911540   4.8624940 105.9291930  38.7406310   5.7818580
  91.2484570  39.0370750  11.9152700  91.6157610  38.9498150  12.7948720
  90.6795390  38.2737300  11.8159560 106.0488430  37.5055130  14.9283170
 105.8174520  37.2767880  14.0281120 106.3092980  38.4254680  14.8828060
  90.8000570  35.9479840  15.8211120  89.9056620  35.9146600  16.1604830
  91.3398120  36.1466630  16.5862370 104.4876500  32.7311560  17.7062870
 105.3646680  32.7394960  18.0896870 104.4997340  31.9942400  17.0955220
  89.4246720  35.8617110   3.3174690  88.5210800  36.1247310   3.1426350
  89.9087340  36.1328280   2.5374650 105.9339770  36.5841100   8.5950890
 106.4577250  36.0903750   7.9641060 106.5199190  36.7191460   9.3398460
 106.1129490  36.6680970  12.1170440 105.1632200  36.6344510  12.2315430
 106.2942500  37.5781080  11.8820210 105.4239740  35.8414450   4.5343300
 105.9198860  35.6085320   5.3192180 105.2255810  35.0026290   4.1180940
  91.3040280  30.2228170  10.1694340  91.9516470  29.6725550   9.7289500
  91.7242120  30.4771320  10.9910150 106.8526900  34.4775400   7.0680980
 106.7426180  34.3231440   8.0063250 107.6134490  33.9496340   6.8256390
 105.1992620  30.4169530  13.5263980 105.8364840  31.0303670  13.8923170
 105.3467510  30.4530190  12.5813210 107.8155660  33.0793980   2.9343830
 107.0207160  33.0139100   3.4636740 108.0198940  34.0144620   2.9229180
 104.7574080  47.1185530   6.9282220 105.3533150  46.7970100   6.2516640
 105.0152230  46.6457350   7.7195490  91.0572280  30.3783840  12.9119660
  90.7087100  30.8347660  13.6777840  90.7259980  29.4840970  12.9942090
  92.6636650  43.5503440  17.0772850  92.6206280  43.1796350  17.9587310
  92.7947660  44.4881010  17.2174670  96.3642680  45.1063030  12.6782570
  96.1234040  45.3737590  11.7913090  97.3045320  45.2768760  12.7333430
  98.5697100  31.5695720  16.4339080  98.5085990  32.1617550  17.1834490
  99.5097480  31.4621680  16.2889340 101.2071660  31.2265780  16.0731370
 101.8212070  31.5445070  15.4112450 101.7521220  30.7414370  16.6927230
 107.6246840  47.1257410  13.4793210 107.1305120  47.5226280  12.7620340
 107.0160130  46.5006620  13.8730490  91.7292920  29.9060040  16.1870430
  92.2775910  29.7248090  15.4236540  91.7948230  29.1154150  16.7226740
  92.5024680  46.4965690  14.1970630  91.9085000  46.3650390  14.9360670
  92.4948520  45.6603830  13.7312730 101.9479700  29.7897920  12.4000660
 101.0739540  30.1233030  12.1973590 101.8390450  29.3171100  13.2252530
 102.8551680  31.9968790  13.7842380 102.5265040  31.1820550  13.4044110
 103.8033980  31.9538600  13.6608070 105.3086290  47.7680830  10.7579950
 104.8489260  48.5196640  10.3837970 104.6798750  47.0487300  10.6994750
  92.1336910  43.8624070  13.1478670  91.4070970  43.2429360  13.0804620
  92.1946060  44.2564680  12.2776750  95.7382010  46.0769070   9.9328080
  96.2547030  45.4656430   9.4076340  96.3879390  46.5797850  10.4239090
  98.4777510  46.9677560  10.7597060  98.7655320  46.7131860   9.8830070
  98.9900730  46.4154920  11.3502630  99.6954520  30.7067760  11.3393570
  98.9126310  31.1813260  11.6190330  99.4017450  29.8022590  11.2306750
 104.2475590  31.4090860   9.3842660 104.6883680  31.3535960   8.5364260
 103.9783180  32.3248870   9.4552840 106.1114160  31.0406100   7.3951480
 106.0502560  30.0967320   7.2482500 106.8906190  31.1486190   7.9404940
  90.4166910  47.1798460   6.3575430  90.2488950  46.5469140   7.0557320
  89.5501420  47.3857860   6.0069620  91.0394930  31.0115240   3.8607290
  91.7974290  31.1244120   3.2871320  90.5772100  31.8484440   3.8150720
  97.5808740  33.1254510   6.8509600  96.7683250  32.7511400   6.5105480
  98.0850380  32.3699590   7.1530790 102.0833720  29.7896960   8.0892670
 102.6863090  30.3617170   8.5641190 101.3426710  30.3536400   7.8666570
 105.2268320  30.1918520   3.3632950 105.4218950  31.0901970   3.6300380
 104.4398190  29.9605600   3.8565900  92.0229610  45.8731690   3.8025570
  91.4977230  46.2539720   3.0987530  91.9474190  46.4982460   4.5235280
  93.4120080  31.5379290   2.4009260  93.9412840  30.7509090   2.2717210
  94.0448400  32.2170480   2.6344790  95.6057920  31.2754430   5.4554650
  94.9760660  30.5741740   5.6224780  95.0663060  32.0358560   5.2387810
  98.5449870  47.8893660  18.1265260  99.4717180  47.6537930  18.1701220
  98.5300300  48.7165660  17.6451290 106.7794930  47.4319230   5.1239510
 106.9547120  46.7456970   4.4800430 106.0816500  47.9566280   4.7316180
  95.7313480  30.5538410  17.8907140  95.4497750  31.0572010  17.1267960
  96.1133180  29.7560160  17.5249270  94.6222580  47.8214070   2.6774820
  95.3541400  47.5373350   2.1298710  94.8816250  47.5827350   3.5674200
  93.7837370  43.9378800   2.6821150  93.1546250  44.4063900   3.2306980
  93.8985200  43.0928020   3.1167340 102.3328940  29.9691990  18.4687610
 102.2194390  30.2886600  19.3639130 103.1498680  30.3704500  18.1724890
 105.1127430  47.1163520  17.9506300 105.9052750  46.6212750  17.7432260
 105.4060580  47.7953660  18.5581910 101.2387090  19.2140970 101.4783290
 101.1581140  18.2995580 101.2075000 100.8251510  19.7108040 100.7723000
  99.3705130  20.9919990 103.3592560  98.5947230  20.5120430 103.6491130
 100.0218060  20.3125640 103.1848720  93.3870960  21.3039800 104.2368320
  92.5555840  21.0488510 104.6364830  93.9951940  21.3750570 104.9726240
 103.3912560  25.3980180 102.1391690 102.9294090  24.6267420 102.4678860
 104.2038110  25.4246250 102.6444140  93.3672220  25.3379890 104.4326340
  93.6700260  24.4477630 104.2536560  94.1115810  25.8950110 104.2048590
  91.7962910  16.2641690  98.0210710  90.9079610  16.6057660  97.9190590
  92.0804100  16.0642010  97.1291540  89.7595920  18.8647340 103.9050410
  90.3312030  18.0969540 103.9054050  89.7597460  19.1636100 102.9957020
  99.6175870  27.6838190 101.7595680  98.9987310  28.1395690 101.1890120
 100.4727650  27.8389650 101.3585380  98.8114120  23.6677180 103.3662720
  98.7422400  22.7267120 103.2051850  99.5733980  23.7578590 103.9385290
  91.0020790  14.2731700 105.6919340  90.8223630  13.3757450 105.9722100
  90.6000870  14.8203570 106.3666290  99.8419290  16.4747560 103.5931650
 100.2184110  15.6019440 103.4805320  99.7438800  16.8106260 102.7022090
  93.9724300  14.8473190  99.0549090  94.0791050  15.7476920  99.3617850
  93.0616660  14.7991160  98.7643740 103.6243410  13.9698000 100.5259990
 104.4453030  13.4794570 100.5685470 103.6577490  14.5595660 101.2791830
  91.6207460  16.7692200 104.3001680  92.3017570  17.0330570 104.9189080
  91.3055510  15.9293070 104.6339690  95.8132030  17.8159560 103.3874270
  96.3210250  18.3140530 104.0279290  96.3445270  17.0394760 103.2113630
 107.9142960  15.9864750 107.0903620 107.2095130  16.3746460 106.5718730
 108.1800880  16.6815040 107.6924550  94.0968130  12.4558120 107.6537690
  94.0986570  12.9730510 106.8483590  93.2672440  11.9788300 107.6307620
 100.4839220  22.5677430  99.1527590  99.8656490  23.0326880  98.5890310
 100.9962470  23.2604910  99.5697100  95.3470980  22.0953300 105.8311190
  95.0140360  22.7222220 106.4732260  95.5237660  22.6215180 105.0512860
 103.8604890  15.9098380 103.2987530 103.1560460  16.1983270 103.8790640
 104.2217050  16.7198490 102.9387090  93.7783460  14.1668080 105.6608140
  94.1200270  15.0110130 105.3662010  92.8399270  14.3151820 105.7773480
  94.5590080  24.0634100 107.6460370  95.1764080  24.7385180 107.3644820
  93.6983200  24.4722080 107.5547870  89.8522420  23.2533960  96.5267220
  89.4750400  23.7421060  95.7952120  90.1095490  23.9259240  97.1573750
 105.4767670  25.5273510 105.5615010 104.7931190  26.1972620 105.5531680
 106.0161960  25.7254160 104.7959870 106.9291810  15.3553170 103.6896740
 105.9816720  15.3892150 103.8212170 107.2541800  16.1692120 104.0746100
  97.4611350  11.6550350 101.9852730  97.7686330  11.0997240 101.2688230
  96.5312050  11.7894810 101.8025720 103.0126410  27.3717640 104.2760190
 103.0253570  26.9679930 103.4082450 102.4601630  28.1464930 104.1721620
 104.3071830  24.0933860  99.3650360 104.1968160  23.1508190  99.4899780
 104.3040080  24.4549500 100.2513120 102.4111850  22.2747480 105.6042800
 102.8280640  22.0607590 104.7696260 103.1351670  22.5320270 106.1751420
  99.8492110  19.7199180  98.7212850  98.9221390  19.6536560  98.9501320
 100.0016930  20.6579310  98.6068090  99.8361190  15.9916180  95.7180010
  98.8964860  16.1530140  95.8032470 100.1544450  16.7101860  95.1716000
 106.3573950  20.6734700 105.6959040 105.5292580  20.7427790 105.2209170
 106.9524430  21.2589010 105.2274870 103.8789400  21.2819480  99.2248100
 103.2601820  20.9439030  98.5774400 103.8613850  20.6379240  99.9327290
 103.3215960  17.4604020 106.6413910 102.9087140  18.2857730 106.8953900
 102.5891910  16.8749060 106.4490270  95.4548750  20.2463920 101.5032580
  95.0505750  19.5341170 101.0078480  95.5411870  19.9017160 102.3920620
  95.9230450  23.9331480 103.6671790  95.6258740  23.3276950 102.9879570
  96.8730270  23.9708790 103.5561150  94.1677370  17.0207130 105.2831620
  94.7191960  17.1302470 104.5084870  94.6820880  17.3944730 105.9986850
 104.0116060  27.5063350 107.3294890 103.5346620  28.3135540 107.1367500
 103.3277850  26.8541680 107.4821100  95.0148880  23.6713170 110.3179590
  94.1177410  23.8953140 110.5652990  95.0401750  23.7948110 109.3690990
 102.0554100  20.5206290  96.2320850 102.4947380  19.6828720  96.0858670
 102.7682520  21.1535690  96.3184990  93.8420100  20.5426490 108.8936960
  93.7027870  21.4149290 109.2624360  92.9601460  20.1999300 108.7484900
 100.1649480  25.4602360 100.2002090 100.6045390  26.2026690  99.7857480
 100.1036370  25.7028930 101.1241050 105.6371240  11.7749100  94.5461890
 105.3243900  11.8675930  95.4460960 106.3983710  12.3530130  94.4959320
  92.1553380  19.1408900  99.0039230  92.0350980  19.8670990  98.3920500
  91.8454270  18.3711810  98.5267140  89.7938750  22.3124040 104.8107870
  89.8719170  22.4472810 103.8663590  90.4080430  21.6039930 105.0035990
  91.0386380  24.0124230 101.2214050  90.6314460  24.1538820 100.3667650
  91.9299390  23.7284390 101.0185260 106.9948520  24.4588140 109.5586290
 107.1211580  24.2200020 108.6403470 107.0369900  23.6272680 110.0308370
 100.8565260  28.1616140 108.1281100 101.3709930  28.0724150 108.9303530
 100.0134340  28.5075840 108.4209010 102.8319660  28.4471480  97.5565100
 102.6720800  28.1574420  98.4546930 102.6666370  27.6711610  97.0210330
  95.3108040  28.2270010  99.3336720  95.1350520  27.3105550  99.1204520
  94.4563780  28.5857300  99.5734520 102.5345790  25.9559040  96.1163100
 101.8410950  25.9536330  95.4565380 103.2768650  25.5318360  95.6857270
 102.0995720  27.5821750 100.1911590 102.5552670  26.8011130 100.5050210
 102.4388240  28.2928570 100.7352770 106.8472530  16.5120600 110.5236030
 106.2316800  17.0200270 109.9951490 106.5268950  15.6118930 110.4661970
  89.8498270  23.3538210 107.3502330  90.0129310  22.8843570 106.5321700
  90.3150720  22.8461770 108.0151170  94.6217040  12.4843970 102.3862900
  94.1785190  13.2653510 102.0547420  95.1802030  12.8073860 103.0933840
  98.9086850  15.3512490 107.9898220  98.4466220  15.5595510 108.8018160
  98.5064960  14.5371840 107.6868890 103.9091360  16.5721440 109.1194880
 103.0584950  16.2727190 109.4403950 103.7493150  16.8163450 108.2078700
  97.7375860  12.1054670  97.2668730  97.1130040  12.1014540  97.9922040
  97.6505980  11.2385630  96.8704700  96.6592940  13.0291300 104.2452500
  96.9565270  13.9354130 104.1644520  97.2078500  12.5410080 103.6312070
  94.4131260  17.6077540 100.1144150  94.1872180  17.3914710 101.0190770
  93.6323790  18.0406000  99.7690120 101.6429020  17.6140910  98.7134800
 101.0437910  18.3376710  98.5298420 102.1908630  17.5517690  97.9311250
  96.8530470  18.5063120 110.7804420  96.7574070  17.5657850 110.6304820
  97.6962450  18.7278190 110.3852490 100.2493890  16.2504450 100.7438080
 100.6423460  16.5676650  99.9306770 100.6110740  15.3716330 100.8582600
  91.9841010  14.9176790 108.9338200  91.5904400  15.7652000 109.1410980
  91.2959410  14.2803160 109.1246840  89.2858060  12.8405250 102.9668280
  88.9971110  13.4108110 103.6793260  90.0303820  12.3609700 103.3299510
  89.4728290  16.7825370  94.1771000  89.3902960  17.7256130  94.3185990
  89.1211350  16.6400280  93.2983350 100.8349030  18.8410200 104.8388860
 100.1030150  19.3497010 105.1878960 100.4373370  18.0240180 104.5377640
  97.2726420  15.5164400 103.2441350  97.2762480  15.0754350 102.3945890
  98.1677540  15.8381730 103.3513170  93.1228800  15.3990890 102.2035560
  92.7828850  15.8766120 102.9602610  92.3606120  14.9456010 101.8436660
  97.3346570  16.5176480  96.2348110  97.4559390  16.4762960  97.1833930
  96.9495080  17.3800630  96.0794840 101.2974940  14.2943880 104.2511800
 101.3147680  14.7452530 105.0953650 101.0490520  13.3949520 104.4645240
  96.3468070  18.8277620  95.6331410  95.7784970  18.3795870  95.0067320
  97.0557070  19.1870400  95.0996560 104.7245690  11.7076060 110.0898180
 105.0491460  10.9765720 110.6156160 104.7602200  11.3889700 109.1879170
  91.4237250  22.7289640 109.5098140  91.0392040  22.0883310 110.1081100
  91.7349440  23.4325760 110.0792870  97.5734390  19.5766180 104.9906760
  97.9404520  19.1024750 105.7368100  97.3839450  20.4507750 105.3315100
  90.4374880  14.3209870 101.1200230  90.1521800  13.9565540 101.9578850
  90.3753740  13.5890330 100.5063370  95.3633760  18.6174820 107.3090970
  95.0590830  19.4966800 107.5341330  96.3180220  18.6774610 107.3448410
  93.8915550  22.8235810  97.9057820  93.1177810  22.2833430  97.7456540
  94.6210180  22.3042420  97.5675580 104.6503530  21.8201170 103.6984210
 105.3702650  22.3156460 103.3080320 104.4485350  21.1419060 103.0538080
 100.1113470  13.2139130  97.8413600  99.2978080  12.7152300  97.7658910
  99.9175420  14.0537380  97.4249950 100.0322330  21.8910230 109.5853210
  99.9659640  20.9705900 109.3310800  99.4027470  21.9885670 110.2997850
 102.8261860  17.5858780  96.1375760 103.7141480  17.8976010  95.9627100
 102.7966950  16.7131030  95.7456340  93.9352950  22.4916190 101.5436630
  94.4531620  21.6884450 101.4893520  93.4836970  22.4295330 102.3853460
  98.8222450  23.7582470  96.8163930  99.1638150  24.5024700  96.3207250
  97.9935160  24.0713590  97.1788760  91.4197490  19.4577560 108.4562330
  91.0612430  20.1231410 109.0435670  91.1252050  18.6261110 108.8274950
  99.9639060  24.7130800 109.3357010  99.9783600  23.7811760 109.1175920
  99.2564160  24.7990560 109.9746780 105.0976130  18.8970620  95.6055620
 105.0139850  19.3284840  94.7552060 105.8170320  19.3568970  96.0382440
 106.1750270  21.3538140 108.6825590 105.4498460  21.9466920 108.4854980
 106.7025730  21.3461680 107.8838960 106.1263380  25.7512880  98.3337750
 105.4839540  25.0968500  98.6081470 105.7394040  26.1567970  97.5578420
 101.7049860  23.0798310 102.1809440 102.0573680  22.4826440 101.5210810
 100.8212190  22.7542540 102.3517690  97.7913140  23.8396000  99.5879850
  98.4784270  24.3865210  99.9687440  97.0045560  24.3836730  99.6229460
  89.9305540  19.4568820  95.0796930  90.8000390  19.7393620  95.3632850
  89.4395860  20.2704690  94.9645740  97.0940350  20.8442030  99.2005210
  97.5503130  21.6547280  99.4265400  96.7428560  20.5265170 100.0323700
  99.3972960  26.3548370 106.4297510 100.0415180  26.5607750 107.1070930
  99.7602400  25.5936770 105.9768360  92.9952130  11.1879680  99.6727730
  92.8666760  11.1797580 100.6212650  92.1714150  11.5262770  99.3218740
 100.6705040  24.3580720 105.1474960 101.3127270  23.6573880 105.2607130
 101.1954390  25.1379160 104.9671850 104.5160760  24.6429340  94.8714100
 104.2898340  23.9259780  95.4638740 104.1256960  24.3941780  94.0335850
 102.4442660  25.1575620 108.3511020 102.7798900  25.7442310 109.0288940
 101.5243000  25.0268330 108.5808810  90.2976790  28.6696200  95.6458560
  90.6574430  29.2685540  94.9915830  90.1569130  29.2156090  96.4193590
  89.9946060  12.9470800 109.1334430  89.2804580  13.1467720 109.7387040
  90.4141100  12.1710370 109.5049230 104.0977010  22.5601280  96.5328260
 103.8098710  23.0213970  97.3206140 104.8929180  22.0999050  96.8012480
  90.2818650  26.9351060 110.1200960  90.3909770  25.9945800 109.9796350
  89.6299210  27.2005810 109.4714690  96.3145410  26.0527400  96.4632230
  96.3055510  26.7857090  95.8476740  95.3943770  25.8058980  96.5559190
  91.9152050  21.2742290  97.2078990  91.3080000  22.0141190  97.2174290
  92.3901400  21.3641650  96.3817190 101.4884840  15.4393110 106.8835880
 101.8565660  14.6188320 107.2115450 100.6283040  15.4995000 107.2991530
 104.8546870  14.3950050  97.6923440 104.2260030  14.4995720  96.9781670
 104.3598790  14.6146830  98.4817320  99.3005010  26.1155640  95.1257420
  99.4016990  25.9119630  94.1959400  98.4006750  25.8613920  95.3305200
  96.8230900  16.6736000  99.1081320  96.1147050  17.1422340  99.5494930
  97.1075380  16.0158010  99.7426510  98.4486830  18.0932700 107.1073850
  98.9472080  18.5678520 107.7725700  98.5909780  17.1696220 107.3143880
 100.8546330  13.3986660 100.5477110 100.7314110  13.4172790  99.5986620
 101.8030890  13.4465600 100.6675510  97.9423120  28.6341960  99.8205090
  98.1964620  28.5963350  98.8984460  96.9935600  28.5075290  99.8133340
  95.0265920  14.9821080  96.4832030  95.8756450  15.4191230  96.4172220
  94.6597190  15.2941340  97.3104090 105.6553690  14.3100660 107.9502240
 105.1527290  15.0506060 108.2896050 106.4710350  14.6984660 107.6339030
 103.9475700  19.5533840 101.3963600 103.0065840  19.5684070 101.5711290
 104.2619770  18.7669800 101.8423900  93.9257340  21.2353440  94.9567560
  94.6920610  21.1234800  95.5192990  94.0032030  20.5391410  94.3044330
  92.6204100  18.6678510  95.6400450  92.7007690  17.7206020  95.7517850
  93.5123850  18.9985390  95.7461110 105.9501280  26.7242690 103.0717860
 106.0748700  27.5473860 103.5441670 106.8166840  26.5133420 102.7242010
  93.4218810  28.8173900 102.7434990  94.1581290  28.2689360 103.0143560
  93.8059730  29.6829910 102.6040980  90.3064290  24.8847470  98.6176500
  89.3804070  25.1268610  98.6081910  90.7720720  25.7121730  98.4961250
  96.5321120  27.9904210  94.5660560  97.3249730  28.2793040  94.1142350
  96.0125470  27.5596380  93.8873040 105.5851290  27.2174340  95.9897300
 105.2992800  26.8039480  95.1751480 105.3870840  28.1462050  95.8697820
  97.0498520  23.2107620  94.4302910  96.9449160  22.5959970  95.1564290
  96.8822740  22.6873510  93.6465920  97.2012840  21.8964420 110.4092140
  96.4358510  22.4649420 110.3246810  97.3828800  21.6040630 109.5160370
 100.2901250  22.2727650  95.0344900  99.7411350  22.7196950  95.6787640
 100.9120510  21.7676900  95.5582570 104.3436190  23.6269750 110.9667160
 105.0845660  23.9645510 110.4634620 103.5808870  23.7961810 110.4136930
  95.9576370  21.2318570  96.9310200  96.3792790  21.0658440  97.7741590
  96.0827210  20.4218800  96.4365340  94.1203790  17.2115120 109.7381180
  93.5900250  16.7206070 109.1104520  94.7891860  17.6399320 109.2039110
  98.4704010  20.2556180  94.1787300  98.9909670  19.5405200  93.8128450
  99.1172410  20.8942050  94.4787810 103.0181850  21.6784580 109.5022370
 103.4322870  21.8329660 110.3512790 102.0832850  21.8039800 109.6648150
  94.6076090  14.1777490 109.8178470  94.5132960  13.5598240 109.0929340
  94.0273480  14.9043780 109.5908380  97.3737530  12.7350730 106.8505860
  96.9254830  12.7574990 106.0051410  96.7402730  12.3369750 107.4476160
  97.7797080  21.6305060 107.4718300  98.1985190  22.4737790 107.2994540
  96.8605710  21.7677100 107.2425080 100.1160980  19.3621240 108.8556140
 100.2357190  18.7662380 109.5950980 100.9754980  19.3990930 108.4357440
 102.4548880  19.9158430 107.4318650 101.9284100  20.4401050 106.8283790
 102.7980220  20.5485820 108.0628380  94.8535270  17.3051800  93.8768360
  94.6524330  16.4419160  94.2381700  94.6827320  17.2185160  92.9389960
  95.6304500  27.9358070 108.5876030  95.0925590  28.6604130 108.2684730
  95.8838460  27.4588410 107.7973370  96.8829750  15.9042590 110.1131960
  97.4729440  15.5958440 110.8009780  96.0649990  15.4322340 110.2691860
 101.7023180  15.5208400 110.3464980 101.0138700  14.8589940 110.2814970
 102.4229200  15.0746670 110.7913440 102.3323580  12.1160030  96.4055240
 102.6125870  11.2727930  96.7614660 101.5589310  12.3483140  96.9193990
  93.6518070  14.4052420  93.8646240  93.9543970  14.4119850  92.9565390
  94.3912660  14.0550280  94.3613900  98.4866710  29.1709280 108.8462680
  98.4125410  30.0744420 109.1535050  97.5845550  28.8521180 108.8184750
  96.8703000  13.3487040  94.8502440  96.5225000  12.6711030  94.2704890
  97.0715770  12.8876550  95.6645830  99.0352040  28.3367790  96.4689040
  99.9302830  28.6752760  96.4907800  99.0669670  27.6147200  95.8413320
  92.6748200  23.7094840  94.6976040  93.1123070  24.2524510  95.3533620
  93.1595930  22.8841790  94.7072380  89.8894000  26.4983870 102.1496300
  90.2197010  25.6304930 101.9174940  90.3185000  26.7042390 102.9801260
  94.4855920  24.8292880  99.8098270  94.1851460  24.7057850 100.7102180
  94.3793410  23.9701470  99.4014000  90.3784210  27.3654460 104.8877930
  89.9415200  27.5455260 105.7202080  90.9461890  28.1229080 104.7459650
 106.0146390  26.8671460 109.1755240 105.4148380  26.9264020 108.4319160
 106.1440290  25.9276440 109.3052090 107.2547840  24.6089280  94.5124950
 106.4240800  24.6765930  94.9832180 107.4319670  25.4993400  94.2091810
 106.7104300  21.3536760  97.0159150 107.4723210  21.9233410  97.1218840
 106.7258670  20.7863960  97.7867460  90.2108640  19.8774690 101.2466810
  89.5557480  19.6086330 100.6026510  91.0486590  19.7679170 100.7968790
 107.7164270  22.2086860 101.8601080 108.0873100  21.4254180 101.4537050
 108.3566200  22.8975960 101.6818380 104.6998030  23.5923440 107.2731400
 103.8857870  24.0220600 107.5357190 105.1072230  24.2041850 106.6600450
 106.7623470  21.6471130  94.1731670 107.0372310  22.5550010  94.0450890
 106.5734210  21.5833660  95.1093660 103.1599080  14.6715980  95.4685300
 103.5783960  14.4846960  94.6281960 102.8535140  13.8195030  95.7788230
 106.6588810  19.5840120  99.1661100 106.2832410  18.8168050  98.7342390
 105.9291930  19.9662820  99.6536030  91.2484570  20.2627260 105.7870150
  91.6157610  20.1754660 106.6666170  90.6795390  19.4993810 105.6877010
 106.0488430  18.7311640 108.8000620 105.8174520  18.5024390 107.8998570
 106.3092980  19.6511190 108.7545510  90.8000570  17.1736350 109.6928570
  89.9056620  17.1403110 110.0322280  91.3398120  17.3723140 110.4579820
  89.4246720  17.0873620  97.1892140  88.5210800  17.3503820  97.0143800
  89.9087340  17.3584790  96.4092100 105.9339770  17.8097610 102.4668340
 106.4577250  17.3160260 101.8358510 106.5199190  17.9447970 103.2115910
 106.1129490  17.8937480 105.9887890 105.1632200  17.8601020 106.1032880
 106.2942500  18.8037590 105.7537660  91.9673930  16.1439160  95.0986520
  92.6765630  15.7222380  94.6133800  91.2513870  16.2114390  94.4669870
  91.6148090  12.1978490  94.1389170  92.3376220  12.7387430  94.4570390
  91.8872610  11.9241910  93.2630710 105.4239740  17.0670960  98.4060750
 105.9198860  16.8341830  99.1909630 105.2255810  16.2282800  97.9898390
  91.3040280  11.4484680 104.0411790  91.9516470  10.8982060 103.6006950
  91.7242120  11.7027830 104.8627600 106.8526900  15.7031910 100.9398430
 106.7426180  15.5487950 101.8780700 107.6134490  15.1752850 100.6973840
 105.1992620  11.6426040 107.3981430 105.8364840  12.2560180 107.7640620
 105.3467510  11.6786700 106.4530660 107.7417170  13.5339830  94.1804570
 108.6666480  13.4021010  93.9722860 107.7192960  13.6132650  95.1341020
 107.8155660  14.3050490  96.8061280 107.0207160  14.2395610  97.3354190
 108.0198940  15.2401130  96.7946630 104.7574080  28.3442040 100.7999670
 105.3533150  28.0226610 100.1234090 105.0152230  27.8713860 101.5912940
  91.0572280  11.6040350 106.7837110  90.7087100  12.0604170 107.5495290
  90.7259980  10.7097480 106.8659540  96.3642680  26.3319540 106.5500020
  96.1234040  26.5994100 105.6630540  97.3045320  26.5025270 106.6050880
 101.2071660  12.4522290 109.9448820 101.8212070  12.7701580 109.2829900
 101.7521220  11.9670880 110.5644680 107.6246840  28.3513920 107.3510660
 107.1305120  28.7482790 106.6337790 107.0160130  27.7263130 107.7447940
  91.7292920  11.1316550 110.0587880  92.2775910  10.9504600 109.2953990
  91.7948230  10.3410660 110.5944190  92.5024680  27.7222200 108.0688080
  91.9085000  27.5906900 108.8078120  92.4948520  26.8860340 107.6030180
 101.9479700  11.0154430 106.2718110 101.0739540  11.3489540 106.0691040
 101.8390450  10.5427610 107.0969980 102.8551680  13.2225300 107.6559830
 102.5265040  12.4077060 107.2761560 103.8033980  13.1795110 107.5325520
 105.3086290  28.9937340 104.6297400 104.8489260  29.7453150 104.2555420
 104.6798750  28.2743810 104.5712200  92.1336910  25.0880580 107.0196120
  91.4070970  24.4685870 106.9522070  92.1946060  25.4821190 106.1494200
  95.7382010  27.3025580 103.8045530  96.2547030  26.6912940 103.2793790
  96.3879390  27.8054360 104.2956540  98.4777510  28.1934070 104.6314510
  98.7655320  27.9388370 103.7547520  98.9900730  27.6411430 105.2220080
  99.6954520  11.9324270 105.2111020  98.9126310  12.4069770 105.4907780
  99.4017450  11.0279100 105.1024200 104.2475590  12.6347370 103.2560110
 104.6883680  12.5792470 102.4081710 103.9783180  13.5505380 103.3270290
 106.1114160  12.2662610 101.2668930 106.0502560  11.3223830 101.1199950
 106.8906190  12.3742700 101.8122390  90.4166910  28.4054970 100.2292880
  90.2488950  27.7725650 100.9274770  89.5501420  28.6114370  99.8787070
  91.0394930  12.2371750  97.7324740  91.7974290  12.3500630  97.1588770
  90.5772100  13.0740950  97.6868170  97.5808740  14.3511020 100.7227050
  96.7683250  13.9767910 100.3822930  98.0850380  13.5956100 101.0248240
 102.0833720  11.0153470 101.9610120 102.6863090  11.5873680 102.4358640
 101.3426710  11.5792910 101.7384020 105.2268320  11.4175030  97.2350400
 105.4218950  12.3158480  97.5017830 104.4398190  11.1862110  97.7283350
  92.0229610  27.0988200  97.6743020  91.4977230  27.4796230  96.9704980
  91.9474190  27.7238970  98.3952730  93.4120080  12.7635800  96.2726710
  93.9412840  11.9765600  96.1434660  94.0448400  13.4426990  96.5062240
  95.6057920  12.5010940  99.3272100  94.9760660  11.7998250  99.4942230
  95.0663060  13.2615070  99.1105260 106.7794930  28.6575740  98.9956960
 106.9547120  27.9713480  98.3517880 106.0816500  29.1822790  98.6033630
  94.6222580  29.0470580  96.5492270  95.3541400  28.7629860  96.0016160
  94.8816250  28.8083860  97.4391650  93.7837370  25.1635310  96.5538600
  93.1546250  25.6320410  97.1024430  93.8985200  24.3184530  96.9884790
 101.2387090  19.2140970  82.7039800 101.1581140  18.2995580  82.4331510
 100.8251510  19.7108040  81.9979510  99.3705130  20.9919990  84.5849070
  98.5947230  20.5120430  84.8747640 100.0218060  20.3125640  84.4105230
  93.3870960  21.3039800  85.4624830  92.5555840  21.0488510  85.8621340
  93.9951940  21.3750570  86.1982750 103.3912560  25.3980180  83.3648200
 102.9294090  24.6267420  83.6935370 104.2038110  25.4246250  83.8700650
  93.3672220  25.3379890  85.6582850  93.6700260  24.4477630  85.4793070
  94.1115810  25.8950110  85.4305100  91.7962910  16.2641690  79.2467220
  90.9079610  16.6057660  79.1447100  92.0804100  16.0642010  78.3548050
  89.7595920  18.8647340  85.1306920  90.3312030  18.0969540  85.1310560
  89.7597460  19.1636100  84.2213530  99.6175870  27.6838190  82.9852190
  98.9987310  28.1395690  82.4146630 100.4727650  27.8389650  82.5841890
  98.8114120  23.6677180  84.5919230  98.7422400  22.7267120  84.4308360
  99.5733980  23.7578590  85.1641800  91.0020790  14.2731700  86.9175850
  90.8223630  13.3757450  87.1978610  90.6000870  14.8203570  87.5922800
  99.8419290  16.4747560  84.8188160 100.2184110  15.6019440  84.7061830
  99.7438800  16.8106260  83.9278600  93.9724300  14.8473190  80.2805600
  94.0791050  15.7476920  80.5874360  93.0616660  14.7991160  79.9900250
 103.6243410  13.9698000  81.7516500 104.4453030  13.4794570  81.7941980
 103.6577490  14.5595660  82.5048340  91.6207460  16.7692200  85.5258190
  92.3017570  17.0330570  86.1445590  91.3055510  15.9293070  85.8596200
  95.8132030  17.8159560  84.6130780  96.3210250  18.3140530  85.2535800
  96.3445270  17.0394760  84.4370140 107.9142960  15.9864750  88.3160130
 107.2095130  16.3746460  87.7975240 108.1800880  16.6815040  88.9181060
  94.0968130  12.4558120  88.8794200  94.0986570  12.9730510  88.0740100
  93.2672440  11.9788300  88.8564130 100.4839220  22.5677430  80.3784100
  99.8656490  23.0326880  79.8146820 100.9962470  23.2604910  80.7953610
  95.3470980  22.0953300  87.0567700  95.0140360  22.7222220  87.6988770
  95.5237660  22.6215180  86.2769370 103.8604890  15.9098380  84.5244040
 103.1560460  16.1983270  85.1047150 104.2217050  16.7198490  84.1643600
  93.7783460  14.1668080  86.8864650  94.1200270  15.0110130  86.5918520
  92.8399270  14.3151820  87.0029990  94.5590080  24.0634100  88.8716880
  95.1764080  24.7385180  88.5901330  93.6983200  24.4722080  88.7804380
  89.8522420  23.2533960  77.7523730  89.4750400  23.7421060  77.0208630
  90.1095490  23.9259240  78.3830260 105.4767670  25.5273510  86.7871520
 104.7931190  26.1972620  86.7788190 106.0161960  25.7254160  86.0216380
 106.9291810  15.3553170  84.9153250 105.9816720  15.3892150  85.0468680
 107.2541800  16.1692120  85.3002610  97.4611350  11.6550350  83.2109240
  97.7686330  11.0997240  82.4944740  96.5312050  11.7894810  83.0282230
 103.0126410  27.3717640  85.5016700 103.0253570  26.9679930  84.6338960
 102.4601630  28.1464930  85.3978130 104.3071830  24.0933860  80.5906870
 104.1968160  23.1508190  80.7156290 104.3040080  24.4549500  81.4769630
 102.4111850  22.2747480  86.8299310 102.8280640  22.0607590  85.9952770
 103.1351670  22.5320270  87.4007930  99.8492110  19.7199180  79.9469360
  98.9221390  19.6536560  80.1757830 100.0016930  20.6579310  79.8324600
  99.8361190  15.9916180  76.9436520  98.8964860  16.1530140  77.0288980
 100.1544450  16.7101860  76.3972510 106.3573950  20.6734700  86.9215550
 105.5292580  20.7427790  86.4465680 106.9524430  21.2589010  86.4531380
 103.8789400  21.2819480  80.4504610 103.2601820  20.9439030  79.8030910
 103.8613850  20.6379240  81.1583800 103.3215960  17.4604020  87.8670420
 102.9087140  18.2857730  88.1210410 102.5891910  16.8749060  87.6746780
  95.4548750  20.2463920  82.7289090  95.0505750  19.5341170  82.2334990
  95.5411870  19.9017160  83.6177130  95.9230450  23.9331480  84.8928300
  95.6258740  23.3276950  84.2136080  96.8730270  23.9708790  84.7817660
  94.1677370  17.0207130  86.5088130  94.7191960  17.1302470  85.7341380
  94.6820880  17.3944730  87.2243360 104.0116060  27.5063350  88.5551400
 103.5346620  28.3135540  88.3624010 103.3277850  26.8541680  88.7077610
  95.0148880  23.6713170  91.5436100  94.1177410  23.8953140  91.7909500
  95.0401750  23.7948110  90.5947500 102.0554100  20.5206290  77.4577360
 102.4947380  19.6828720  77.3115180 102.7682520  21.1535690  77.5441500
  93.8420100  20.5426490  90.1193470  93.7027870  21.4149290  90.4880870
  92.9601460  20.1999300  89.9741410 100.1649480  25.4602360  81.4258600
 100.6045390  26.2026690  81.0113990 100.1036370  25.7028930  82.3497560
  95.6400450  26.4848190  92.3278620  95.6115880  26.8891140  91.4607050
  95.4765420  25.5558550  92.1650220 105.6371240  11.7749100  75.7718400
 105.3243900  11.8675930  76.6717470 106.3983710  12.3530130  75.7215830
  92.1553380  19.1408900  80.2295740  92.0350980  19.8670990  79.6177010
  91.8454270  18.3711810  79.7523650 107.5915270  27.2675290  93.6242790
 108.0674990  27.7458180  94.3031870 108.2122430  27.1992780  92.8988290
  89.7938750  22.3124040  86.0364380  89.8719170  22.4472810  85.0920100
  90.4080430  21.6039930  86.2292500  91.0386380  24.0124230  82.4470560
  90.6314460  24.1538820  81.5924160  91.9299390  23.7284390  82.2441770
 106.9948520  24.4588140  90.7842800 107.1211580  24.2200020  89.8659980
 107.0369900  23.6272680  91.2564880 100.8565260  28.1616140  89.3537610
 101.3709930  28.0724150  90.1560040 100.0134340  28.5075840  89.6465520
 102.8319660  28.4471480  78.7821610 102.6720800  28.1574420  79.6803440
 102.6666370  27.6711610  78.2466840  95.3108040  28.2270010  80.5593230
  95.1350520  27.3105550  80.3461030  94.4563780  28.5857300  80.7991030
 102.5345790  25.9559040  77.3419610 101.8410950  25.9536330  76.6821890
 103.2768650  25.5318360  76.9113780 102.0995720  27.5821750  81.4168100
 102.5552670  26.8011130  81.7306720 102.4388240  28.2928570  81.9609280
 106.8472530  16.5120600  91.7492540 106.2316800  17.0200270  91.2208000
 106.5268950  15.6118930  91.6918480  89.8498270  23.3538210  88.5758840
  90.0129310  22.8843570  87.7578210  90.3150720  22.8461770  89.2407680
  94.6217040  12.4843970  83.6119410  94.1785190  13.2653510  83.2803930
  95.1802030  12.8073860  84.3190350  98.9086850  15.3512490  89.2154730
  98.4466220  15.5595510  90.0274670  98.5064960  14.5371840  88.9125400
 103.9091360  16.5721440  90.3451390 103.0584950  16.2727190  90.6660460
 103.7493150  16.8163450  89.4335210 101.0041070  18.0723190  92.4450180
 101.3294480  17.2386940  92.1052410 101.7921400  18.5951710  92.5928510
  97.7375860  12.1054670  78.4925240  97.1130040  12.1014540  79.2178550
  97.6505980  11.2385630  78.0961210  96.6592940  13.0291300  85.4709010
  96.9565270  13.9354130  85.3901030  97.2078500  12.5410080  84.8568580
  94.4131260  17.6077540  81.3400660  94.1872180  17.3914710  82.2447280
  93.6323790  18.0406000  80.9946630 101.6429020  17.6140910  79.9391310
 101.0437910  18.3376710  79.7554930 102.1908630  17.5517690  79.1567760
  96.8530470  18.5063120  92.0060930  96.7574070  17.5657850  91.8561330
  97.6962450  18.7278190  91.6109000 100.2493890  16.2504450  81.9694590
 100.6423460  16.5676650  81.1563280 100.6110740  15.3716330  82.0839110
  91.9841010  14.9176790  90.1594710  91.5904400  15.7652000  90.3667490
  91.2959410  14.2803160  90.3503350  98.5586060  15.0011760  93.2291450
  97.8684380  14.8083960  93.8637540  99.3018360  15.2846400  93.7615750
  89.2858060  12.8405250  84.1924790  88.9971110  13.4108110  84.9049770
  90.0303820  12.3609700  84.5556020  89.4728290  16.7825370  75.4027510
  89.3902960  17.7256130  75.5442500  89.1211350  16.6400280  74.5239860
 100.8349030  18.8410200  86.0645370 100.1030150  19.3497010  86.4135470
 100.4373370  18.0240180  85.7634150  97.2726420  15.5164400  84.4697860
  97.2762480  15.0754350  83.6202400  98.1677540  15.8381730  84.5769680
  93.1228800  15.3990890  83.4292070  92.7828850  15.8766120  84.1859120
  92.3606120  14.9456010  83.0693170  97.3346570  16.5176480  77.4604620
  97.4559390  16.4762960  78.4090440  96.9495080  17.3800630  77.3051350
 101.2974940  14.2943880  85.4768310 101.3147680  14.7452530  86.3210160
 101.0490520  13.3949520  85.6901750  96.3468070  18.8277620  76.8587920
  95.7784970  18.3795870  76.2323830  97.0557070  19.1870400  76.3253070
 104.7245690  11.7076060  91.3154690 105.0491460  10.9765720  91.8412670
 104.7602200  11.3889700  90.4135680  91.4237250  22.7289640  90.7354650
  91.0392040  22.0883310  91.3337610  91.7349440  23.4325760  91.3049380
  97.5734390  19.5766180  86.2163270  97.9404520  19.1024750  86.9624610
  97.3839450  20.4507750  86.5571610  90.4374880  14.3209870  82.3456740
  90.1521800  13.9565540  83.1835360  90.3753740  13.5890330  81.7319880
  95.3633760  18.6174820  88.5347480  95.0590830  19.4966800  88.7597840
  96.3180220  18.6774610  88.5704920  93.8915550  22.8235810  79.1314330
  93.1177810  22.2833430  78.9713050  94.6210180  22.3042420  78.7932090
 104.6503530  21.8201170  84.9240720 105.3702650  22.3156460  84.5336830
 104.4485350  21.1419060  84.2794590 100.1113470  13.2139130  79.0670110
  99.2978080  12.7152300  78.9915420  99.9175420  14.0537380  78.6506460
 100.0322330  21.8910230  90.8109720  99.9659640  20.9705900  90.5567310
  99.4027470  21.9885670  91.5254360 102.8261860  17.5858780  77.3632270
 103.7141480  17.8976010  77.1883610 102.7966950  16.7131030  76.9712850
  93.9352950  22.4916190  82.7693140  94.4531620  21.6884450  82.7150030
  93.4836970  22.4295330  83.6109970  98.8222450  23.7582470  78.0420440
  99.1638150  24.5024700  77.5463760  97.9935160  24.0713590  78.4045270
  91.4197490  19.4577560  89.6818840  91.0612430  20.1231410  90.2692180
  91.1252050  18.6261110  90.0531460  94.6210610  19.9161800  92.5658390
  94.3210750  20.0618980  91.6686210  95.3921850  19.3567090  92.4731780
  99.9639060  24.7130800  90.5613520  99.9783600  23.7811760  90.3432430
  99.2564160  24.7990560  91.2003290 105.0976130  18.8970620  76.8312130
 105.0139850  19.3284840  75.9808570 105.8170320  19.3568970  77.2638950
 106.1750270  21.3538140  89.9082100 105.4498460  21.9466920  89.7111490
 106.7025730  21.3461680  89.1095470 106.1263380  25.7512880  79.5594260
 105.4839540  25.0968500  79.8337980 105.7394040  26.1567970  78.7834930
 101.7049860  23.0798310  83.4065950 102.0573680  22.4826440  82.7467320
 100.8212190  22.7542540  83.5774200  97.7913140  23.8396000  80.8136360
  98.4784270  24.3865210  81.1943950  97.0045560  24.3836730  80.8485970
  89.9305540  19.4568820  76.3053440  90.8000390  19.7393620  76.5889360
  89.4395860  20.2704690  76.1902250  97.0940350  20.8442030  80.4261720
  97.5503130  21.6547280  80.6521910  96.7428560  20.5265170  81.2580210
  99.3972960  26.3548370  87.6554020 100.0415180  26.5607750  88.3327440
  99.7602400  25.5936770  87.2024870  92.9952130  11.1879680  80.8984240
  92.8666760  11.1797580  81.8469160  92.1714150  11.5262770  80.5475250
 100.6705040  24.3580720  86.3731470 101.3127270  23.6573880  86.4863640
 101.1954390  25.1379160  86.1928360 104.5160760  24.6429340  76.0970610
 104.2898340  23.9259780  76.6895250 104.1256960  24.3941780  75.2592360
 102.4442660  25.1575620  89.5767530 102.7798900  25.7442310  90.2545450
 101.5243000  25.0268330  89.8065320  90.2976790  28.6696200  76.8715070
  90.6574430  29.2685540  76.2172340  90.1569130  29.2156090  77.6450100
  89.9946060  12.9470800  90.3590940  89.2804580  13.1467720  90.9643550
  90.4141100  12.1710370  90.7305740 104.0977010  22.5601280  77.7584770
 103.8098710  23.0213970  78.5462650 104.8929180  22.0999050  78.0268990
  90.2818650  26.9351060  91.3457470  90.3909770  25.9945800  91.2052860
  89.6299210  27.2005810  90.6971200  98.2731240  25.2066950  92.7455590
  97.9528110  24.4876190  93.2901280  97.5989600  25.8822020  92.8191650
  96.3145410  26.0527400  77.6888740  96.3055510  26.7857090  77.0733250
  95.3943770  25.8058980  77.7815700  91.9152050  21.2742290  78.4335500
  91.3080000  22.0141190  78.4430800  92.3901400  21.3641650  77.6073700
 101.4884840  15.4393110  88.1092390 101.8565660  14.6188320  88.4371960
 100.6283040  15.4995000  88.5248040 104.8546870  14.3950050  78.9179950
 104.2260030  14.4995720  78.2038180 104.3598790  14.6146830  79.7073830
  99.3005010  26.1155640  76.3513930  99.4016990  25.9119630  75.4215910
  98.4006750  25.8613920  76.5561710  96.8230900  16.6736000  80.3337830
  96.1147050  17.1422340  80.7751440  97.1075380  16.0158010  80.9683020
  98.4486830  18.0932700  88.3330360  98.9472080  18.5678520  88.9982210
  98.5909780  17.1696220  88.5400390 100.8546330  13.3986660  81.7733620
 100.7314110  13.4172790  80.8243130 101.8030890  13.4465600  81.8932020
  97.9423120  28.6341960  81.0461600  98.1964620  28.5963350  80.1240970
  96.9935600  28.5075290  81.0389850  95.0265920  14.9821080  77.7088540
  95.8756450  15.4191230  77.6428730  94.6597190  15.2941340  78.5360600
 105.6553690  14.3100660  89.1758750 105.1527290  15.0506060  89.5152560
 106.4710350  14.6984660  88.8595540 103.9475700  19.5533840  82.6220110
 103.0065840  19.5684070  82.7967800 104.2619770  18.7669800  83.0680410
  93.9257340  21.2353440  76.1824070  94.6920610  21.1234800  76.7449500
  94.0032030  20.5391410  75.5300840  92.6204100  18.6678510  76.8656960
  92.7007690  17.7206020  76.9774360  93.5123850  18.9985390  76.9717620
 105.9501280  26.7242690  84.2974370 106.0748700  27.5473860  84.7698180
 106.8166840  26.5133420  83.9498520  93.4218810  28.8173900  83.9691500
  94.1581290  28.2689360  84.2400070  93.8059730  29.6829910  83.8297490
  90.3064290  24.8847470  79.8433010  89.3804070  25.1268610  79.8338420
  90.7720720  25.7121730  79.7217760  92.4277090  28.0019970  93.1577080
  93.2289820  28.3232020  93.5712480  91.9128910  27.6415550  93.8796990
  96.5321120  27.9904210  75.7917070  97.3249730  28.2793040  75.3398860
  96.0125470  27.5596380  75.1129550 101.2641720  24.1099840  93.1052490
 100.6579880  24.1331440  92.3648240 100.9595830  23.3782880  93.6419740
 102.6942090  27.8380130  91.7161900 103.6463840  27.7538150  91.6662140
 102.5470310  28.5021840  92.3895690 105.5851290  27.2174340  77.2153810
 105.2992800  26.8039480  76.4007990 105.3870840  28.1462050  77.0954330
  90.1474900  20.4893430  92.1013130  90.6513920  19.9100710  92.6729360
  89.4082320  20.7733660  92.6389500  97.0498520  23.2107620  75.6559420
  96.9449160  22.5959970  76.3820800  96.8822740  22.6873510  74.8722430
  97.2012840  21.8964420  91.6348650  96.4358510  22.4649420  91.5503320
  97.3828800  21.6040630  90.7416880 100.2901250  22.2727650  76.2601410
  99.7411350  22.7196950  76.9044150 100.9120510  21.7676900  76.7839080
 104.3436190  23.6269750  92.1923670 105.0845660  23.9645510  91.6891130
 103.5808870  23.7961810  91.6393440  92.1797980  18.6323020  92.9963200
  92.2203320  18.3336890  93.9048430  93.0343480  19.0330630  92.8370720
  95.9576370  21.2318570  78.1566710  96.3792790  21.0658440  78.9998100
  96.0827210  20.4218800  77.6621850  94.1203790  17.2115120  90.9637690
  93.5900250  16.7206070  90.3361030  94.7891860  17.6399320  90.4295620
  98.4704010  20.2556180  75.4043810  98.9909670  19.5405200  75.0384960
  99.1172410  20.8942050  75.7044320 103.0181850  21.6784580  90.7278880
 103.4322870  21.8329660  91.5769300 102.0832850  21.8039800  90.8904660
 103.4904020  19.0180740  92.7318030 104.0724790  18.2633060  92.6438510
 103.6665790  19.5488180  91.9549510  94.6076090  14.1777490  91.0434980
  94.5132960  13.5598240  90.3185850  94.0273480  14.9043780  90.8164890
  97.3737530  12.7350730  88.0762370  96.9254830  12.7574990  87.2307920
  96.7402730  12.3369750  88.6732670  97.7797080  21.6305060  88.6974810
  98.1985190  22.4737790  88.5251050  96.8605710  21.7677100  88.4681590
 100.1160980  19.3621240  90.0812650 100.2357190  18.7662380  90.8207490
 100.9754980  19.3990930  89.6613950 102.4548880  19.9158430  88.6575160
 101.9284100  20.4401050  88.0540300 102.7980220  20.5485820  89.2884890
  94.8535270  17.3051800  75.1024870  94.6524330  16.4419160  75.4638210
  94.6827320  17.2185160  74.1646470  95.6304500  27.9358070  89.8132540
  95.0925590  28.6604130  89.4941240  95.8838460  27.4588410  89.0229880
  96.8829750  15.9042590  91.3388470  97.4729440  15.5958440  92.0266290
  96.0649990  15.4322340  91.4948370 101.7023180  15.5208400  91.5721490
 101.0138700  14.8589940  91.5071480 102.4229200  15.0746670  92.0169950
 102.3323580  12.1160030  77.6311750 102.6125870  11.2727930  77.9871170
 101.5589310  12.3483140  78.1450500  93.6518070  14.4052420  75.0902750
  93.9543970  14.4119850  74.1821900  94.3912660  14.0550280  75.5870410
  98.4866710  29.1709280  90.0719190  98.4125410  30.0744420  90.3791560
  97.5845550  28.8521180  90.0441260  96.8703000  13.3487040  76.0758950
  96.5225000  12.6711030  75.4961400  97.0715770  12.8876550  76.8902340
  99.0352040  28.3367790  77.6945550  99.9302830  28.6752760  77.7164310
  99.0669670  27.6147200  77.0669830  92.6748200  23.7094840  75.9232550
  93.1123070  24.2524510  76.5790130  93.1595930  22.8841790  75.9328890
  89.8894000  26.4983870  83.3752810  90.2197010  25.6304930  83.1431450
  90.3185000  26.7042390  84.2057770  94.4855920  24.8292880  81.0354780
  94.1851460  24.7057850  81.9358690  94.3793410  23.9701470  80.6270510
  90.3784210  27.3654460  86.1134440  89.9415200  27.5455260  86.9458590
  90.9461890  28.1229080  85.9716160 106.0146390  26.8671460  90.4011750
 105.4148380  26.9264020  89.6575670 106.1440290  25.9276440  90.5308600
 107.2547840  24.6089280  75.7381460 106.4240800  24.6765930  76.2088690
 107.4319670  25.4993400  75.4348320 106.7104300  21.3536760  78.2415660
 107.4723210  21.9233410  78.3475350 106.7258670  20.7863960  79.0123970
  90.2108640  19.8774690  82.4723320  89.5557480  19.6086330  81.8283020
  91.0486590  19.7679170  82.0225300 107.7164270  22.2086860  83.0857590
 108.0873100  21.4254180  82.6793560 108.3566200  22.8975960  82.9074890
 104.6998030  23.5923440  88.4987910 103.8857870  24.0220600  88.7613700
 105.1072230  24.2041850  87.8856960 106.7623470  21.6471130  75.3988180
 107.0372310  22.5550010  75.2707400 106.5734210  21.5833660  76.3350170
 103.1599080  14.6715980  76.6941810 103.5783960  14.4846960  75.8538470
 102.8535140  13.8195030  77.0044740 106.6588810  19.5840120  80.3917610
 106.2832410  18.8168050  79.9598900 105.9291930  19.9662820  80.8792540
  91.2484570  20.2627260  87.0126660  91.6157610  20.1754660  87.8922680
  90.6795390  19.4993810  86.9133520 106.0488430  18.7311640  90.0257130
 105.8174520  18.5024390  89.1255080 106.3092980  19.6511190  89.9802020
  90.8000570  17.1736350  90.9185080  89.9056620  17.1403110  91.2578790
  91.3398120  17.3723140  91.6836330 104.4876500  13.9568070  92.8036830
 105.3646680  13.9651470  93.1870830 104.4997340  13.2198910  92.1929180
  89.4246720  17.0873620  78.4148650  88.5210800  17.3503820  78.2400310
  89.9087340  17.3584790  77.6348610 105.9339770  17.8097610  83.6924850
 106.4577250  17.3160260  83.0615020 106.5199190  17.9447970  84.4372420
 106.1129490  17.8937480  87.2144400 105.1632200  17.8601020  87.3289390
 106.2942500  18.8037590  86.9794170  91.9673930  16.1439160  76.3243030
  92.6765630  15.7222380  75.8390310  91.2513870  16.2114390  75.6926380
  91.6148090  12.1978490  75.3645680  92.3376220  12.7387430  75.6826900
  91.8872610  11.9241910  74.4887220 105.4239740  17.0670960  79.6317260
 105.9198860  16.8341830  80.4166140 105.2255810  16.2282800  79.2154900
  91.3040280  11.4484680  85.2668300  91.9516470  10.8982060  84.8263460
  91.7242120  11.7027830  86.0884110 106.8526900  15.7031910  82.1654940
 106.7426180  15.5487950  83.1037210 107.6134490  15.1752850  81.9230350
 105.1992620  11.6426040  88.6237940 105.8364840  12.2560180  88.9897130
 105.3467510  11.6786700  87.6787170 107.7417170  13.5339830  75.4061080
 108.6666480  13.4021010  75.1979370 107.7192960  13.6132650  76.3597530
 107.8155660  14.3050490  78.0317790 107.0207160  14.2395610  78.5610700
 108.0198940  15.2401130  78.0203140 104.7574080  28.3442040  82.0256180
 105.3533150  28.0226610  81.3490600 105.0152230  27.8713860  82.8169450
  91.0572280  11.6040350  88.0093620  90.7087100  12.0604170  88.7751800
  90.7259980  10.7097480  88.0916050  92.6636650  24.7759950  92.1746810
  92.6206280  24.4052860  93.0561270  92.7947660  25.7137520  92.3148630
  96.3642680  26.3319540  87.7756530  96.1234040  26.5994100  86.8887050
  97.3045320  26.5025270  87.8307390  98.5697100  12.7952230  91.5313040
  98.5085990  13.3874060  92.2808450  99.5097480  12.6878190  91.3863300
 101.2071660  12.4522290  91.1705330 101.8212070  12.7701580  90.5086410
 101.7521220  11.9670880  91.7901190 107.6246840  28.3513920  88.5767170
 107.1305120  28.7482790  87.8594300 107.0160130  27.7263130  88.9704450
  91.7292920  11.1316550  91.2844390  92.2775910  10.9504600  90.5210500
  91.7948230  10.3410660  91.8200700  92.5024680  27.7222200  89.2944590
  91.9085000  27.5906900  90.0334630  92.4948520  26.8860340  88.8286690
 101.9479700  11.0154430  87.4974620 101.0739540  11.3489540  87.2947550
 101.8390450  10.5427610  88.3226490 102.8551680  13.2225300  88.8816340
 102.5265040  12.4077060  88.5018070 103.8033980  13.1795110  88.7582030
 105.3086290  28.9937340  85.8553910 104.8489260  29.7453150  85.4811930
 104.6798750  28.2743810  85.7968710  92.1336910  25.0880580  88.2452630
  91.4070970  24.4685870  88.1778580  92.1946060  25.4821190  87.3750710
  95.7382010  27.3025580  85.0302040  96.2547030  26.6912940  84.5050300
  96.3879390  27.8054360  85.5213050  98.4777510  28.1934070  85.8571020
  98.7655320  27.9388370  84.9804030  98.9900730  27.6411430  86.4476590
  99.6954520  11.9324270  86.4367530  98.9126310  12.4069770  86.7164290
  99.4017450  11.0279100  86.3280710 104.2475590  12.6347370  84.4816620
 104.6883680  12.5792470  83.6338220 103.9783180  13.5505380  84.5526800
 106.1114160  12.2662610  82.4925440 106.0502560  11.3223830  82.3456460
 106.8906190  12.3742700  83.0378900  90.4166910  28.4054970  81.4549390
  90.2488950  27.7725650  82.1531280  89.5501420  28.6114370  81.1043580
  91.0394930  12.2371750  78.9581250  91.7974290  12.3500630  78.3845280
  90.5772100  13.0740950  78.9124680  97.5808740  14.3511020  81.9483560
  96.7683250  13.9767910  81.6079440  98.0850380  13.5956100  82.2504750
 102.0833720  11.0153470  83.1866630 102.6863090  11.5873680  83.6615150
 101.3426710  11.5792910  82.9640530 105.2268320  11.4175030  78.4606910
 105.4218950  12.3158480  78.7274340 104.4398190  11.1862110  78.9539860
  92.0229610  27.0988200  78.8999530  91.4977230  27.4796230  78.1961490
  91.9474190  27.7238970  79.6209240  93.4120080  12.7635800  77.4983220
  93.9412840  11.9765600  77.3691170  94.0448400  13.4426990  77.7318750
  95.6057920  12.5010940  80.5528610  94.9760660  11.7998250  80.7198740
  95.0663060  13.2615070  80.3361770  98.5449870  29.1150170  93.2239220
  99.4717180  28.8794440  93.2675180  98.5300300  29.9422170  92.7425250
 106.7794930  28.6575740  80.2213470 106.9547120  27.9713480  79.5774390
 106.0816500  29.1822790  79.8290140  95.7313480  11.7794920  92.9881100
  95.4497750  12.2828520  92.2241920  96.1133180  10.9816670  92.6223230
  94.6222580  29.0470580  77.7748780  95.3541400  28.7629860  77.2272670
  94.8816250  28.8083860  78.6648160  93.7837370  25.1635310  77.7795110
  93.1546250  25.6320410  78.3280940  93.8985200  24.3184530  78.2141300
 102.3328940  11.1948500  93.5661570 102.2194390  11.5143110  94.4613090
 103.1498680  11.5961010  93.2698850 105.1127430  28.3420030  93.0480260
 105.9052750  27.8469260  92.8406220 105.4060580  29.0210170  93.6555870
 101.2387090  19.2140970  63.9296310 101.1581140  18.2995580  63.6588020
 100.8251510  19.7108040  63.2236020  99.3705130  20.9919990  65.8105580
  98.5947230  20.5120430  66.1004150 100.0218060  20.3125640  65.6361740
  93.3870960  21.3039800  66.6881340  92.5555840  21.0488510  67.0877850
  93.9951940  21.3750570  67.4239260 103.3912560  25.3980180  64.5904710
 102.9294090  24.6267420  64.9191880 104.2038110  25.4246250  65.0957160
  93.3672220  25.3379890  66.8839360  93.6700260  24.4477630  66.7049580
  94.1115810  25.8950110  66.6561610  91.7962910  16.2641690  60.4723730
  90.9079610  16.6057660  60.3703610  92.0804100  16.0642010  59.5804560
  89.7595920  18.8647340  66.3563430  90.3312030  18.0969540  66.3567070
  89.7597460  19.1636100  65.4470040  99.6175870  27.6838190  64.2108700
  98.9987310  28.1395690  63.6403140 100.4727650  27.8389650  63.8098400
  98.8114120  23.6677180  65.8175740  98.7422400  22.7267120  65.6564870
  99.5733980  23.7578590  66.3898310  91.0020790  14.2731700  68.1432360
  90.8223630  13.3757450  68.4235120  90.6000870  14.8203570  68.8179310
  99.8419290  16.4747560  66.0444670 100.2184110  15.6019440  65.9318340
  99.7438800  16.8106260  65.1535110  93.9724300  14.8473190  61.5062110
  94.0791050  15.7476920  61.8130870  93.0616660  14.7991160  61.2156760
 103.6243410  13.9698000  62.9773010 104.4453030  13.4794570  63.0198490
 103.6577490  14.5595660  63.7304850  91.6207460  16.7692200  66.7514700
  92.3017570  17.0330570  67.3702100  91.3055510  15.9293070  67.0852710
  95.8132030  17.8159560  65.8387290  96.3210250  18.3140530  66.4792310
  96.3445270  17.0394760  65.6626650 107.9142960  15.9864750  69.5416640
 107.2095130  16.3746460  69.0231750 108.1800880  16.6815040  70.1437570
  94.0968130  12.4558120  70.1050710  94.0986570  12.9730510  69.2996610
  93.2672440  11.9788300  70.0820640 100.4839220  22.5677430  61.6040610
  99.8656490  23.0326880  61.0403330 100.9962470  23.2604910  62.0210120
  95.3470980  22.0953300  68.2824210  95.0140360  22.7222220  68.9245280
  95.5237660  22.6215180  67.5025880 103.8604890  15.9098380  65.7500550
 103.1560460  16.1983270  66.3303660 104.2217050  16.7198490  65.3900110
  93.7783460  14.1668080  68.1121160  94.1200270  15.0110130  67.8175030
  92.8399270  14.3151820  68.2286500  94.5590080  24.0634100  70.0973390
  95.1764080  24.7385180  69.8157840  93.6983200  24.4722080  70.0060890
  89.8522420  23.2533960  58.9780240  89.4750400  23.7421060  58.2465140
  90.1095490  23.9259240  59.6086770 105.4767670  25.5273510  68.0128030
 104.7931190  26.1972620  68.0044700 106.0161960  25.7254160  67.2472890
 106.9291810  15.3553170  66.1409760 105.9816720  15.3892150  66.2725190
 107.2541800  16.1692120  66.5259120  97.4611350  11.6550350  64.4365750
  97.7686330  11.0997240  63.7201250  96.5312050  11.7894810  64.2538740
 103.0126410  27.3717640  66.7273210 103.0253570  26.9679930  65.8595470
 102.4601630  28.1464930  66.6234640 104.3071830  24.0933860  61.8163380
 104.1968160  23.1508190  61.9412800 104.3040080  24.4549500  62.7026140
 102.4111850  22.2747480  68.0555820 102.8280640  22.0607590  67.2209280
 103.1351670  22.5320270  68.6264440  99.8492110  19.7199180  61.1725870
  98.9221390  19.6536560  61.4014340 100.0016930  20.6579310  61.0581110
  99.8361190  15.9916180  58.1693030  98.8964860  16.1530140  58.2545490
 100.1544450  16.7101860  57.6229020 106.3573950  20.6734700  68.1472060
 105.5292580  20.7427790  67.6722190 106.9524430  21.2589010  67.6787890
 103.8789400  21.2819480  61.6761120 103.2601820  20.9439030  61.0287420
 103.8613850  20.6379240  62.3840310 103.3215960  17.4604020  69.0926930
 102.9087140  18.2857730  69.3466920 102.5891910  16.8749060  68.9003290
  95.4548750  20.2463920  63.9545600  95.0505750  19.5341170  63.4591500
  95.5411870  19.9017160  64.8433640  95.9230450  23.9331480  66.1184810
  95.6258740  23.3276950  65.4392590  96.8730270  23.9708790  66.0074170
  94.1677370  17.0207130  67.7344640  94.7191960  17.1302470  66.9597890
  94.6820880  17.3944730  68.4499870 104.0116060  27.5063350  69.7807910
 103.5346620  28.3135540  69.5880520 103.3277850  26.8541680  69.9334120
  95.0148880  23.6713170  72.7692610  94.1177410  23.8953140  73.0166010
  95.0401750  23.7948110  71.8204010 102.0554100  20.5206290  58.6833870
 102.4947380  19.6828720  58.5371690 102.7682520  21.1535690  58.7698010
  93.8420100  20.5426490  71.3449980  93.7027870  21.4149290  71.7137380
  92.9601460  20.1999300  71.1997920 100.1649480  25.4602360  62.6515110
 100.6045390  26.2026690  62.2370500 100.1036370  25.7028930  63.5754070
  95.6400450  26.4848190  73.5535130  95.6115880  26.8891140  72.6863560
  95.4765420  25.5558550  73.3906730 105.6371240  11.7749100  56.9974910
 105.3243900  11.8675930  57.8973980 106.3983710  12.3530130  56.9472340
  92.1553380  19.1408900  61.4552250  92.0350980  19.8670990  60.8433520
  91.8454270  18.3711810  60.9780160 107.5915270  27.2675290  74.8499300
 108.0674990  27.7458180  75.5288380 108.2122430  27.1992780  74.1244800
  89.7938750  22.3124040  67.2620890  89.8719170  22.4472810  66.3176610
  90.4080430  21.6039930  67.4549010  91.0386380  24.0124230  63.6727070
  90.6314460  24.1538820  62.8180670  91.9299390  23.7284390  63.4698280
 106.9948520  24.4588140  72.0099310 107.1211580  24.2200020  71.0916490
 107.0369900  23.6272680  72.4821390 100.8565260  28.1616140  70.5794120
 101.3709930  28.0724150  71.3816550 100.0134340  28.5075840  70.8722030
 102.8319660  28.4471480  60.0078120 102.6720800  28.1574420  60.9059950
 102.6666370  27.6711610  59.4723350  95.3108040  28.2270010  61.7849740
  95.1350520  27.3105550  61.5717540  94.4563780  28.5857300  62.0247540
 102.5345790  25.9559040  58.5676120 101.8410950  25.9536330  57.9078400
 103.2768650  25.5318360  58.1370290 102.0995720  27.5821750  62.6424610
 102.5552670  26.8011130  62.9563230 102.4388240  28.2928570  63.1865790
 106.8472530  16.5120600  72.9749050 106.2316800  17.0200270  72.4464510
 106.5268950  15.6118930  72.9174990  89.8498270  23.3538210  69.8015350
  90.0129310  22.8843570  68.9834720  90.3150720  22.8461770  70.4664190
  94.6217040  12.4843970  64.8375920  94.1785190  13.2653510  64.5060440
  95.1802030  12.8073860  65.5446860  98.9086850  15.3512490  70.4411240
  98.4466220  15.5595510  71.2531180  98.5064960  14.5371840  70.1381910
 103.9091360  16.5721440  71.5707900 103.0584950  16.2727190  71.8916970
 103.7493150  16.8163450  70.6591720 101.0041070  18.0723190  73.6706690
 101.3294480  17.2386940  73.3308920 101.7921400  18.5951710  73.8185020
  97.7375860  12.1054670  59.7181750  97.1130040  12.1014540  60.4435060
  97.6505980  11.2385630  59.3217720  96.6592940  13.0291300  66.6965520
  96.9565270  13.9354130  66.6157540  97.2078500  12.5410080  66.0825090
  94.4131260  17.6077540  62.5657170  94.1872180  17.3914710  63.4703790
  93.6323790  18.0406000  62.2203140 101.6429020  17.6140910  61.1647820
 101.0437910  18.3376710  60.9811440 102.1908630  17.5517690  60.3824270
  96.8530470  18.5063120  73.2317440  96.7574070  17.5657850  73.0817840
  97.6962450  18.7278190  72.8365510 100.2493890  16.2504450  63.1951100
 100.6423460  16.5676650  62.3819790 100.6110740  15.3716330  63.3095620
  91.9841010  14.9176790  71.3851220  91.5904400  15.7652000  71.5924000
  91.2959410  14.2803160  71.5759860  98.5586060  15.0011760  74.4547960
  97.8684380  14.8083960  75.0894050  99.3018360  15.2846400  74.9872260
  89.2858060  12.8405250  65.4181300  88.9971110  13.4108110  66.1306280
  90.0303820  12.3609700  65.7812530  89.4728290  16.7825370  56.6284020
  89.3902960  17.7256130  56.7699010  89.1211350  16.6400280  55.7496370
 100.8349030  18.8410200  67.2901880 100.1030150  19.3497010  67.6391980
 100.4373370  18.0240180  66.9890660  97.2726420  15.5164400  65.6954370
  97.2762480  15.0754350  64.8458910  98.1677540  15.8381730  65.8026190
  93.1228800  15.3990890  64.6548580  92.7828850  15.8766120  65.4115630
  92.3606120  14.9456010  64.2949680  97.3346570  16.5176480  58.6861130
  97.4559390  16.4762960  59.6346950  96.9495080  17.3800630  58.5307860
 101.2974940  14.2943880  66.7024820 101.3147680  14.7452530  67.5466670
 101.0490520  13.3949520  66.9158260  96.3468070  18.8277620  58.0844430
  95.7784970  18.3795870  57.4580340  97.0557070  19.1870400  57.5509580
 104.7245690  11.7076060  72.5411200 105.0491460  10.9765720  73.0669180
 104.7602200  11.3889700  71.6392190  91.4237250  22.7289640  71.9611160
  91.0392040  22.0883310  72.5594120  91.7349440  23.4325760  72.5305890
  97.5734390  19.5766180  67.4419780  97.9404520  19.1024750  68.1881120
  97.3839450  20.4507750  67.7828120  90.4374880  14.3209870  63.5713250
  90.1521800  13.9565540  64.4091870  90.3753740  13.5890330  62.9576390
  95.3633760  18.6174820  69.7603990  95.0590830  19.4966800  69.9854350
  96.3180220  18.6774610  69.7961430  93.8915550  22.8235810  60.3570840
  93.1177810  22.2833430  60.1969560  94.6210180  22.3042420  60.0188600
 104.6503530  21.8201170  66.1497230 105.3702650  22.3156460  65.7593340
 104.4485350  21.1419060  65.5051100 100.1113470  13.2139130  60.2926620
  99.2978080  12.7152300  60.2171930  99.9175420  14.0537380  59.8762970
 100.0322330  21.8910230  72.0366230  99.9659640  20.9705900  71.7823820
  99.4027470  21.9885670  72.7510870 102.8261860  17.5858780  58.5888780
 103.7141480  17.8976010  58.4140120 102.7966950  16.7131030  58.1969360
  93.9352950  22.4916190  63.9949650  94.4531620  21.6884450  63.9406540
  93.4836970  22.4295330  64.8366480  98.8222450  23.7582470  59.2676950
  99.1638150  24.5024700  58.7720270  97.9935160  24.0713590  59.6301780
  91.4197490  19.4577560  70.9075350  91.0612430  20.1231410  71.4948690
  91.1252050  18.6261110  71.2787970  94.6210610  19.9161800  73.7914900
  94.3210750  20.0618980  72.8942720  95.3921850  19.3567090  73.6988290
  99.9639060  24.7130800  71.7870030  99.9783600  23.7811760  71.5688940
  99.2564160  24.7990560  72.4259800 105.0976130  18.8970620  58.0568640
 105.0139850  19.3284840  57.2065080 105.8170320  19.3568970  58.4895460
 106.1750270  21.3538140  71.1338610 105.4498460  21.9466920  70.9368000
 106.7025730  21.3461680  70.3351980 106.1263380  25.7512880  60.7850770
 105.4839540  25.0968500  61.0594490 105.7394040  26.1567970  60.0091440
 101.7049860  23.0798310  64.6322460 102.0573680  22.4826440  63.9723830
 100.8212190  22.7542540  64.8030710  97.7913140  23.8396000  62.0392870
  98.4784270  24.3865210  62.4200460  97.0045560  24.3836730  62.0742480
  89.9305540  19.4568820  57.5309950  90.8000390  19.7393620  57.8145870
  89.4395860  20.2704690  57.4158760  97.0940350  20.8442030  61.6518230
  97.5503130  21.6547280  61.8778420  96.7428560  20.5265170  62.4836720
  99.3972960  26.3548370  68.8810530 100.0415180  26.5607750  69.5583950
  99.7602400  25.5936770  68.4281380  92.9952130  11.1879680  62.1240750
  92.8666760  11.1797580  63.0725670  92.1714150  11.5262770  61.7731760
 100.6705040  24.3580720  67.5987980 101.3127270  23.6573880  67.7120150
 101.1954390  25.1379160  67.4184870 104.5160760  24.6429340  57.3227120
 104.2898340  23.9259780  57.9151760 104.1256960  24.3941780  56.4848870
 102.4442660  25.1575620  70.8024040 102.7798900  25.7442310  71.4801960
 101.5243000  25.0268330  71.0321830  89.9946060  12.9470800  71.5847450
  89.2804580  13.1467720  72.1900060  90.4141100  12.1710370  71.9562250
 104.0977010  22.5601280  58.9841280 103.8098710  23.0213970  59.7719160
 104.8929180  22.0999050  59.2525500  90.2818650  26.9351060  72.5713980
  90.3909770  25.9945800  72.4309370  89.6299210  27.2005810  71.9227710
  98.2731240  25.2066950  73.9712100  97.9528110  24.4876190  74.5157790
  97.5989600  25.8822020  74.0448160  96.3145410  26.0527400  58.9145250
  96.3055510  26.7857090  58.2989760  95.3943770  25.8058980  59.0072210
  91.9152050  21.2742290  59.6592010  91.3080000  22.0141190  59.6687310
  92.3901400  21.3641650  58.8330210 101.4884840  15.4393110  69.3348900
 101.8565660  14.6188320  69.6628470 100.6283040  15.4995000  69.7504550
 104.8546870  14.3950050  60.1436460 104.2260030  14.4995720  59.4294690
 104.3598790  14.6146830  60.9330340  99.3005010  26.1155640  57.5770440
  99.4016990  25.9119630  56.6472420  98.4006750  25.8613920  57.7818220
  96.8230900  16.6736000  61.5594340  96.1147050  17.1422340  62.0007950
  97.1075380  16.0158010  62.1939530  98.4486830  18.0932700  69.5586870
  98.9472080  18.5678520  70.2238720  98.5909780  17.1696220  69.7656900
 100.8546330  13.3986660  62.9990130 100.7314110  13.4172790  62.0499640
 101.8030890  13.4465600  63.1188530  97.9423120  28.6341960  62.2718110
  98.1964620  28.5963350  61.3497480  96.9935600  28.5075290  62.2646360
  95.0265920  14.9821080  58.9345050  95.8756450  15.4191230  58.8685240
  94.6597190  15.2941340  59.7617110 105.6553690  14.3100660  70.4015260
 105.1527290  15.0506060  70.7409070 106.4710350  14.6984660  70.0852050
 103.9475700  19.5533840  63.8476620 103.0065840  19.5684070  64.0224310
 104.2619770  18.7669800  64.2936920  93.9257340  21.2353440  57.4080580
  94.6920610  21.1234800  57.9706010  94.0032030  20.5391410  56.7557350
  92.6204100  18.6678510  58.0913470  92.7007690  17.7206020  58.2030870
  93.5123850  18.9985390  58.1974130 105.9501280  26.7242690  65.5230880
 106.0748700  27.5473860  65.9954690 106.8166840  26.5133420  65.1755030
  93.4218810  28.8173900  65.1948010  94.1581290  28.2689360  65.4656580
  93.8059730  29.6829910  65.0554000  90.3064290  24.8847470  61.0689520
  89.3804070  25.1268610  61.0594930  90.7720720  25.7121730  60.9474270
  92.4277090  28.0019970  74.3833590  93.2289820  28.3232020  74.7968990
  91.9128910  27.6415550  75.1053500  96.5321120  27.9904210  57.0173580
  97.3249730  28.2793040  56.5655370  96.0125470  27.5596380  56.3386060
 101.2641720  24.1099840  74.3309000 100.6579880  24.1331440  73.5904750
 100.9595830  23.3782880  74.8676250 102.6942090  27.8380130  72.9418410
 103.6463840  27.7538150  72.8918650 102.5470310  28.5021840  73.6152200
 105.5851290  27.2174340  58.4410320 105.2992800  26.8039480  57.6264500
 105.3870840  28.1462050  58.3210840  90.1474900  20.4893430  73.3269640
  90.6513920  19.9100710  73.8985870  89.4082320  20.7733660  73.8646010
  97.0498520  23.2107620  56.8815930  96.9449160  22.5959970  57.6077310
  96.8822740  22.6873510  56.0978940  97.2012840  21.8964420  72.8605160
  96.4358510  22.4649420  72.7759830  97.3828800  21.6040630  71.9673390
 100.2901250  22.2727650  57.4857920  99.7411350  22.7196950  58.1300660
 100.9120510  21.7676900  58.0095590 104.3436190  23.6269750  73.4180180
 105.0845660  23.9645510  72.9147640 103.5808870  23.7961810  72.8649950
  92.1797980  18.6323020  74.2219710  92.2203320  18.3336890  75.1304940
  93.0343480  19.0330630  74.0627230  95.9576370  21.2318570  59.3823220
  96.3792790  21.0658440  60.2254610  96.0827210  20.4218800  58.8878360
  94.1203790  17.2115120  72.1894200  93.5900250  16.7206070  71.5617540
  94.7891860  17.6399320  71.6552130  98.4704010  20.2556180  56.6300320
  98.9909670  19.5405200  56.2641470  99.1172410  20.8942050  56.9300830
 103.0181850  21.6784580  71.9535390 103.4322870  21.8329660  72.8025810
 102.0832850  21.8039800  72.1161170 103.4904020  19.0180740  73.9574540
 104.0724790  18.2633060  73.8695020 103.6665790  19.5488180  73.1806020
  94.6076090  14.1777490  72.2691490  94.5132960  13.5598240  71.5442360
  94.0273480  14.9043780  72.0421400  97.3737530  12.7350730  69.3018880
  96.9254830  12.7574990  68.4564430  96.7402730  12.3369750  69.8989180
  97.7797080  21.6305060  69.9231320  98.1985190  22.4737790  69.7507560
  96.8605710  21.7677100  69.6938100 100.1160980  19.3621240  71.3069160
 100.2357190  18.7662380  72.0464000 100.9754980  19.3990930  70.8870460
 102.4548880  19.9158430  69.8831670 101.9284100  20.4401050  69.2796810
 102.7980220  20.5485820  70.5141400  94.8535270  17.3051800  56.3281380
  94.6524330  16.4419160  56.6894720  94.6827320  17.2185160  55.3902980
  95.6304500  27.9358070  71.0389050  95.0925590  28.6604130  70.7197750
  95.8838460  27.4588410  70.2486390  96.8829750  15.9042590  72.5644980
  97.4729440  15.5958440  73.2522800  96.0649990  15.4322340  72.7204880
 101.7023180  15.5208400  72.7978000 101.0138700  14.8589940  72.7327990
 102.4229200  15.0746670  73.2426460 102.3323580  12.1160030  58.8568260
 102.6125870  11.2727930  59.2127680 101.5589310  12.3483140  59.3707010
  93.6518070  14.4052420  56.3159260  93.9543970  14.4119850  55.4078410
  94.3912660  14.0550280  56.8126920  98.4866710  29.1709280  71.2975700
  98.4125410  30.0744420  71.6048070  97.5845550  28.8521180  71.2697770
  96.8703000  13.3487040  57.3015460  96.5225000  12.6711030  56.7217910
  97.0715770  12.8876550  58.1158850  99.0352040  28.3367790  58.9202060
  99.9302830  28.6752760  58.9420820  99.0669670  27.6147200  58.2926340
  92.6748200  23.7094840  57.1489060  93.1123070  24.2524510  57.8046640
  93.1595930  22.8841790  57.1585400  89.8894000  26.4983870  64.6009320
  90.2197010  25.6304930  64.3687960  90.3185000  26.7042390  65.4314280
  94.4855920  24.8292880  62.2611290  94.1851460  24.7057850  63.1615200
  94.3793410  23.9701470  61.8527020  90.3784210  27.3654460  67.3390950
  89.9415200  27.5455260  68.1715100  90.9461890  28.1229080  67.1972670
 106.0146390  26.8671460  71.6268260 105.4148380  26.9264020  70.8832180
 106.1440290  25.9276440  71.7565110 107.2547840  24.6089280  56.9637970
 106.4240800  24.6765930  57.4345200 107.4319670  25.4993400  56.6604830
 106.7104300  21.3536760  59.4672170 107.4723210  21.9233410  59.5731860
 106.7258670  20.7863960  60.2380480  90.2108640  19.8774690  63.6979830
  89.5557480  19.6086330  63.0539530  91.0486590  19.7679170  63.2481810
 107.7164270  22.2086860  64.3114100 108.0873100  21.4254180  63.9050070
 108.3566200  22.8975960  64.1331400 104.6998030  23.5923440  69.7244420
 103.8857870  24.0220600  69.9870210 105.1072230  24.2041850  69.1113470
 106.7623470  21.6471130  56.6244690 107.0372310  22.5550010  56.4963910
 106.5734210  21.5833660  57.5606680 103.1599080  14.6715980  57.9198320
 103.5783960  14.4846960  57.0794980 102.8535140  13.8195030  58.2301250
 106.6588810  19.5840120  61.6174120 106.2832410  18.8168050  61.1855410
 105.9291930  19.9662820  62.1049050  91.2484570  20.2627260  68.2383170
  91.6157610  20.1754660  69.1179190  90.6795390  19.4993810  68.1390030
 106.0488430  18.7311640  71.2513640 105.8174520  18.5024390  70.3511590
 106.3092980  19.6511190  71.2058530  90.8000570  17.1736350  72.1441590
  89.9056620  17.1403110  72.4835300  91.3398120  17.3723140  72.9092840
 104.4876500  13.9568070  74.0293340 105.3646680  13.9651470  74.4127340
 104.4997340  13.2198910  73.4185690  89.4246720  17.0873620  59.6405160
  88.5210800  17.3503820  59.4656820  89.9087340  17.3584790  58.8605120
 105.9339770  17.8097610  64.9181360 106.4577250  17.3160260  64.2871530
 106.5199190  17.9447970  65.6628930 106.1129490  17.8937480  68.4400910
 105.1632200  17.8601020  68.5545900 106.2942500  18.8037590  68.2050680
  91.9673930  16.1439160  57.5499540  92.6765630  15.7222380  57.0646820
  91.2513870  16.2114390  56.9182890  91.6148090  12.1978490  56.5902190
  92.3376220  12.7387430  56.9083410  91.8872610  11.9241910  55.7143730
 105.4239740  17.0670960  60.8573770 105.9198860  16.8341830  61.6422650
 105.2255810  16.2282800  60.4411410  91.3040280  11.4484680  66.4924810
  91.9516470  10.8982060  66.0519970  91.7242120  11.7027830  67.3140620
 106.8526900  15.7031910  63.3911450 106.7426180  15.5487950  64.3293720
 107.6134490  15.1752850  63.1486860 105.1992620  11.6426040  69.8494450
 105.8364840  12.2560180  70.2153640 105.3467510  11.6786700  68.9043680
 107.7417170  13.5339830  56.6317590 108.6666480  13.4021010  56.4235880
 107.7192960  13.6132650  57.5854040 107.8155660  14.3050490  59.2574300
 107.0207160  14.2395610  59.7867210 108.0198940  15.2401130  59.2459650
 104.7574080  28.3442040  63.2512690 105.3533150  28.0226610  62.5747110
 105.0152230  27.8713860  64.0425960  91.0572280  11.6040350  69.2350130
  90.7087100  12.0604170  70.0008310  90.7259980  10.7097480  69.3172560
  92.6636650  24.7759950  73.4003320  92.6206280  24.4052860  74.2817780
  92.7947660  25.7137520  73.5405140  96.3642680  26.3319540  69.0013040
  96.1234040  26.5994100  68.1143560  97.3045320  26.5025270  69.0563900
  98.5697100  12.7952230  72.7569550  98.5085990  13.3874060  73.5064960
  99.5097480  12.6878190  72.6119810 101.2071660  12.4522290  72.3961840
 101.8212070  12.7701580  71.7342920 101.7521220  11.9670880  73.0157700
 107.6246840  28.3513920  69.8023680 107.1305120  28.7482790  69.0850810
 107.0160130  27.7263130  70.1960960  91.7292920  11.1316550  72.5100900
  92.2775910  10.9504600  71.7467010  91.7948230  10.3410660  73.0457210
  92.5024680  27.7222200  70.5201100  91.9085000  27.5906900  71.2591140
  92.4948520  26.8860340  70.0543200 101.9479700  11.0154430  68.7231130
 101.0739540  11.3489540  68.5204060 101.8390450  10.5427610  69.5483000
 102.8551680  13.2225300  70.1072850 102.5265040  12.4077060  69.7274580
 103.8033980  13.1795110  69.9838540 105.3086290  28.9937340  67.0810420
 104.8489260  29.7453150  66.7068440 104.6798750  28.2743810  67.0225220
  92.1336910  25.0880580  69.4709140  91.4070970  24.4685870  69.4035090
  92.1946060  25.4821190  68.6007220  95.7382010  27.3025580  66.2558550
  96.2547030  26.6912940  65.7306810  96.3879390  27.8054360  66.7469560
  98.4777510  28.1934070  67.0827530  98.7655320  27.9388370  66.2060540
  98.9900730  27.6411430  67.6733100  99.6954520  11.9324270  67.6624040
  98.9126310  12.4069770  67.9420800  99.4017450  11.0279100  67.5537220
 104.2475590  12.6347370  65.7073130 104.6883680  12.5792470  64.8594730
 103.9783180  13.5505380  65.7783310 106.1114160  12.2662610  63.7181950
 106.0502560  11.3223830  63.5712970 106.8906190  12.3742700  64.2635410
  90.4166910  28.4054970  62.6805900  90.2488950  27.7725650  63.3787790
  89.5501420  28.6114370  62.3300090  91.0394930  12.2371750  60.1837760
  91.7974290  12.3500630  59.6101790  90.5772100  13.0740950  60.1381190
  97.5808740  14.3511020  63.1740070  96.7683250  13.9767910  62.8335950
  98.0850380  13.5956100  63.4761260 102.0833720  11.0153470  64.4123140
 102.6863090  11.5873680  64.8871660 101.3426710  11.5792910  64.1897040
 105.2268320  11.4175030  59.6863420 105.4218950  12.3158480  59.9530850
 104.4398190  11.1862110  60.1796370  92.0229610  27.0988200  60.1256040
  91.4977230  27.4796230  59.4218000  91.9474190  27.7238970  60.8465750
  93.4120080  12.7635800  58.7239730  93.9412840  11.9765600  58.5947680
  94.0448400  13.4426990  58.9575260  95.6057920  12.5010940  61.7785120
  94.9760660  11.7998250  61.9455250  95.0663060  13.2615070  61.5618280
  98.5449870  29.1150170  74.4495730  99.4717180  28.8794440  74.4931690
  98.5300300  29.9422170  73.9681760 106.7794930  28.6575740  61.4469980
 106.9547120  27.9713480  60.8030900 106.0816500  29.1822790  61.0546650
  95.7313480  11.7794920  74.2137610  95.4497750  12.2828520  73.4498430
  96.1133180  10.9816670  73.8479740  94.6222580  29.0470580  59.0005290
  95.3541400  28.7629860  58.4529180  94.8816250  28.8083860  59.8904670
  93.7837370  25.1635310  59.0051620  93.1546250  25.6320410  59.5537450
  93.8985200  24.3184530  59.4397810 102.3328940  11.1948500  74.7918080
 102.2194390  11.5143110  75.6869600 103.1498680  11.5961010  74.4955360
 105.1127430  28.3420030  74.2736770 105.9052750  27.8469260  74.0662730
 105.4060580  29.0210170  74.8812380 101.2387090  19.2140970  45.1552820
 101.1581140  18.2995580  44.8844530 100.8251510  19.7108040  44.4492530
  99.3705130  20.9919990  47.0362090  98.5947230  20.5120430  47.3260660
 100.0218060  20.3125640  46.8618250  93.3870960  21.3039800  47.9137850
  92.5555840  21.0488510  48.3134360  93.9951940  21.3750570  48.6495770
 103.3912560  25.3980180  45.8161220 102.9294090  24.6267420  46.1448390
 104.2038110  25.4246250  46.3213670  93.3672220  25.3379890  48.1095870
  93.6700260  24.4477630  47.9306090  94.1115810  25.8950110  47.8818120
  91.7962910  16.2641690  41.6980240  90.9079610  16.6057660  41.5960120
  92.0804100  16.0642010  40.8061070  89.7595920  18.8647340  47.5819940
  90.3312030  18.0969540  47.5823580  89.7597460  19.1636100  46.6726550
  99.6175870  27.6838190  45.4365210  98.9987310  28.1395690  44.8659650
 100.4727650  27.8389650  45.0354910  98.8114120  23.6677180  47.0432250
  98.7422400  22.7267120  46.8821380  99.5733980  23.7578590  47.6154820
  91.0020790  14.2731700  49.3688870  90.8223630  13.3757450  49.6491630
  90.6000870  14.8203570  50.0435820  99.8419290  16.4747560  47.2701180
 100.2184110  15.6019440  47.1574850  99.7438800  16.8106260  46.3791620
  93.9724300  14.8473190  42.7318620  94.0791050  15.7476920  43.0387380
  93.0616660  14.7991160  42.4413270 103.6243410  13.9698000  44.2029520
 104.4453030  13.4794570  44.2455000 103.6577490  14.5595660  44.9561360
  91.6207460  16.7692200  47.9771210  92.3017570  17.0330570  48.5958610
  91.3055510  15.9293070  48.3109220  95.8132030  17.8159560  47.0643800
  96.3210250  18.3140530  47.7048820  96.3445270  17.0394760  46.8883160
 107.9142960  15.9864750  50.7673150 107.2095130  16.3746460  50.2488260
 108.1800880  16.6815040  51.3694080  94.0968130  12.4558120  51.3307220
  94.0986570  12.9730510  50.5253120  93.2672440  11.9788300  51.3077150
 100.4839220  22.5677430  42.8297120  99.8656490  23.0326880  42.2659840
 100.9962470  23.2604910  43.2466630  95.3470980  22.0953300  49.5080720
  95.0140360  22.7222220  50.1501790  95.5237660  22.6215180  48.7282390
 103.8604890  15.9098380  46.9757060 103.1560460  16.1983270  47.5560170
 104.2217050  16.7198490  46.6156620  93.7783460  14.1668080  49.3377670
  94.1200270  15.0110130  49.0431540  92.8399270  14.3151820  49.4543010
  94.5590080  24.0634100  51.3229900  95.1764080  24.7385180  51.0414350
  93.6983200  24.4722080  51.2317400  89.8522420  23.2533960  40.2036750
  89.4750400  23.7421060  39.4721650  90.1095490  23.9259240  40.8343280
 105.4767670  25.5273510  49.2384540 104.7931190  26.1972620  49.2301210
 106.0161960  25.7254160  48.4729400 106.9291810  15.3553170  47.3666270
 105.9816720  15.3892150  47.4981700 107.2541800  16.1692120  47.7515630
  97.4611350  11.6550350  45.6622260  97.7686330  11.0997240  44.9457760
  96.5312050  11.7894810  45.4795250 103.0126410  27.3717640  47.9529720
 103.0253570  26.9679930  47.0851980 102.4601630  28.1464930  47.8491150
 104.3071830  24.0933860  43.0419890 104.1968160  23.1508190  43.1669310
 104.3040080  24.4549500  43.9282650 102.4111850  22.2747480  49.2812330
 102.8280640  22.0607590  48.4465790 103.1351670  22.5320270  49.8520950
  99.8492110  19.7199180  42.3982380  98.9221390  19.6536560  42.6270850
 100.0016930  20.6579310  42.2837620  99.8361190  15.9916180  39.3949540
  98.8964860  16.1530140  39.4802000 100.1544450  16.7101860  38.8485530
 106.3573950  20.6734700  49.3728570 105.5292580  20.7427790  48.8978700
 106.9524430  21.2589010  48.9044400 103.8789400  21.2819480  42.9017630
 103.2601820  20.9439030  42.2543930 103.8613850  20.6379240  43.6096820
 103.3215960  17.4604020  50.3183440 102.9087140  18.2857730  50.5723430
 102.5891910  16.8749060  50.1259800  95.4548750  20.2463920  45.1802110
  95.0505750  19.5341170  44.6848010  95.5411870  19.9017160  46.0690150
  95.9230450  23.9331480  47.3441320  95.6258740  23.3276950  46.6649100
  96.8730270  23.9708790  47.2330680  94.1677370  17.0207130  48.9601150
  94.7191960  17.1302470  48.1854400  94.6820880  17.3944730  49.6756380
 104.0116060  27.5063350  51.0064420 103.5346620  28.3135540  50.8137030
 103.3277850  26.8541680  51.1590630  95.0148880  23.6713170  53.9949120
  94.1177410  23.8953140  54.2422520  95.0401750  23.7948110  53.0460520
 102.0554100  20.5206290  39.9090380 102.4947380  19.6828720  39.7628200
 102.7682520  21.1535690  39.9954520  93.8420100  20.5426490  52.5706490
  93.7027870  21.4149290  52.9393890  92.9601460  20.1999300  52.4254430
 100.1649480  25.4602360  43.8771620 100.6045390  26.2026690  43.4627010
 100.1036370  25.7028930  44.8010580  95.6400450  26.4848190  54.7791640
  95.6115880  26.8891140  53.9120070  95.4765420  25.5558550  54.6163240
 105.6371240  11.7749100  38.2231420 105.3243900  11.8675930  39.1230490
 106.3983710  12.3530130  38.1728850  92.1553380  19.1408900  42.6808760
  92.0350980  19.8670990  42.0690030  91.8454270  18.3711810  42.2036670
 107.5915270  27.2675290  56.0755810 108.0674990  27.7458180  56.7544890
 108.2122430  27.1992780  55.3501310  89.7938750  22.3124040  48.4877400
  89.8719170  22.4472810  47.5433120  90.4080430  21.6039930  48.6805520
  91.0386380  24.0124230  44.8983580  90.6314460  24.1538820  44.0437180
  91.9299390  23.7284390  44.6954790 106.9948520  24.4588140  53.2355820
 107.1211580  24.2200020  52.3173000 107.0369900  23.6272680  53.7077900
 100.8565260  28.1616140  51.8050630 101.3709930  28.0724150  52.6073060
 100.0134340  28.5075840  52.0978540 102.8319660  28.4471480  41.2334630
 102.6720800  28.1574420  42.1316460 102.6666370  27.6711610  40.6979860
  95.3108040  28.2270010  43.0106250  95.1350520  27.3105550  42.7974050
  94.4563780  28.5857300  43.2504050 102.5345790  25.9559040  39.7932630
 101.8410950  25.9536330  39.1334910 103.2768650  25.5318360  39.3626800
 102.0995720  27.5821750  43.8681120 102.5552670  26.8011130  44.1819740
 102.4388240  28.2928570  44.4122300 106.8472530  16.5120600  54.2005560
 106.2316800  17.0200270  53.6721020 106.5268950  15.6118930  54.1431500
  89.8498270  23.3538210  51.0271860  90.0129310  22.8843570  50.2091230
  90.3150720  22.8461770  51.6920700  94.6217040  12.4843970  46.0632430
  94.1785190  13.2653510  45.7316950  95.1802030  12.8073860  46.7703370
  98.9086850  15.3512490  51.6667750  98.4466220  15.5595510  52.4787690
  98.5064960  14.5371840  51.3638420 103.9091360  16.5721440  52.7964410
 103.0584950  16.2727190  53.1173480 103.7493150  16.8163450  51.8848230
 101.0041070  18.0723190  54.8963200 101.3294480  17.2386940  54.5565430
 101.7921400  18.5951710  55.0441530  97.7375860  12.1054670  40.9438260
  97.1130040  12.1014540  41.6691570  97.6505980  11.2385630  40.5474230
  96.6592940  13.0291300  47.9222030  96.9565270  13.9354130  47.8414050
  97.2078500  12.5410080  47.3081600  94.4131260  17.6077540  43.7913680
  94.1872180  17.3914710  44.6960300  93.6323790  18.0406000  43.4459650
 101.6429020  17.6140910  42.3904330 101.0437910  18.3376710  42.2067950
 102.1908630  17.5517690  41.6080780  96.8530470  18.5063120  54.4573950
  96.7574070  17.5657850  54.3074350  97.6962450  18.7278190  54.0622020
 100.2493890  16.2504450  44.4207610 100.6423460  16.5676650  43.6076300
 100.6110740  15.3716330  44.5352130  91.9841010  14.9176790  52.6107730
  91.5904400  15.7652000  52.8180510  91.2959410  14.2803160  52.8016370
  98.5586060  15.0011760  55.6804470  97.8684380  14.8083960  56.3150560
  99.3018360  15.2846400  56.2128770  89.2858060  12.8405250  46.6437810
  88.9971110  13.4108110  47.3562790  90.0303820  12.3609700  47.0069040
  89.4728290  16.7825370  37.8540530  89.3902960  17.7256130  37.9955520
  89.1211350  16.6400280  36.9752880 100.8349030  18.8410200  48.5158390
 100.1030150  19.3497010  48.8648490 100.4373370  18.0240180  48.2147170
  97.2726420  15.5164400  46.9210880  97.2762480  15.0754350  46.0715420
  98.1677540  15.8381730  47.0282700  93.1228800  15.3990890  45.8805090
  92.7828850  15.8766120  46.6372140  92.3606120  14.9456010  45.5206190
  97.3346570  16.5176480  39.9117640  97.4559390  16.4762960  40.8603460
  96.9495080  17.3800630  39.7564370 101.2974940  14.2943880  47.9281330
 101.3147680  14.7452530  48.7723180 101.0490520  13.3949520  48.1414770
  96.3468070  18.8277620  39.3100940  95.7784970  18.3795870  38.6836850
  97.0557070  19.1870400  38.7766090 104.7245690  11.7076060  53.7667710
 105.0491460  10.9765720  54.2925690 104.7602200  11.3889700  52.8648700
  91.4237250  22.7289640  53.1867670  91.0392040  22.0883310  53.7850630
  91.7349440  23.4325760  53.7562400  97.5734390  19.5766180  48.6676290
  97.9404520  19.1024750  49.4137630  97.3839450  20.4507750  49.0084630
  90.4374880  14.3209870  44.7969760  90.1521800  13.9565540  45.6348380
  90.3753740  13.5890330  44.1832900  95.3633760  18.6174820  50.9860500
  95.0590830  19.4966800  51.2110860  96.3180220  18.6774610  51.0217940
  93.8915550  22.8235810  41.5827350  93.1177810  22.2833430  41.4226070
  94.6210180  22.3042420  41.2445110 104.6503530  21.8201170  47.3753740
 105.3702650  22.3156460  46.9849850 104.4485350  21.1419060  46.7307610
 100.1113470  13.2139130  41.5183130  99.2978080  12.7152300  41.4428440
  99.9175420  14.0537380  41.1019480 100.0322330  21.8910230  53.2622740
  99.9659640  20.9705900  53.0080330  99.4027470  21.9885670  53.9767380
 102.8261860  17.5858780  39.8145290 103.7141480  17.8976010  39.6396630
 102.7966950  16.7131030  39.4225870  93.9352950  22.4916190  45.2206160
  94.4531620  21.6884450  45.1663050  93.4836970  22.4295330  46.0622990
  98.8222450  23.7582470  40.4933460  99.1638150  24.5024700  39.9976780
  97.9935160  24.0713590  40.8558290  91.4197490  19.4577560  52.1331860
  91.0612430  20.1231410  52.7205200  91.1252050  18.6261110  52.5044480
  94.6210610  19.9161800  55.0171410  94.3210750  20.0618980  54.1199230
  95.3921850  19.3567090  54.9244800  99.9639060  24.7130800  53.0126540
  99.9783600  23.7811760  52.7945450  99.2564160  24.7990560  53.6516310
 105.0976130  18.8970620  39.2825150 105.0139850  19.3284840  38.4321590
 105.8170320  19.3568970  39.7151970 106.1750270  21.3538140  52.3595120
 105.4498460  21.9466920  52.1624510 106.7025730  21.3461680  51.5608490
 106.1263380  25.7512880  42.0107280 105.4839540  25.0968500  42.2851000
 105.7394040  26.1567970  41.2347950 101.7049860  23.0798310  45.8578970
 102.0573680  22.4826440  45.1980340 100.8212190  22.7542540  46.0287220
  97.7913140  23.8396000  43.2649380  98.4784270  24.3865210  43.6456970
  97.0045560  24.3836730  43.2998990  89.9305540  19.4568820  38.7566460
  90.8000390  19.7393620  39.0402380  89.4395860  20.2704690  38.6415270
  97.0940350  20.8442030  42.8774740  97.5503130  21.6547280  43.1034930
  96.7428560  20.5265170  43.7093230  99.3972960  26.3548370  50.1067040
 100.0415180  26.5607750  50.7840460  99.7602400  25.5936770  49.6537890
  92.9952130  11.1879680  43.3497260  92.8666760  11.1797580  44.2982180
  92.1714150  11.5262770  42.9988270 100.6705040  24.3580720  48.8244490
 101.3127270  23.6573880  48.9376660 101.1954390  25.1379160  48.6441380
 104.5160760  24.6429340  38.5483630 104.2898340  23.9259780  39.1408270
 104.1256960  24.3941780  37.7105380 102.4442660  25.1575620  52.0280550
 102.7798900  25.7442310  52.7058470 101.5243000  25.0268330  52.2578340
  90.2976790  28.6696200  39.3228090  90.6574430  29.2685540  38.6685360
  90.1569130  29.2156090  40.0963120  89.9946060  12.9470800  52.8103960
  89.2804580  13.1467720  53.4156570  90.4141100  12.1710370  53.1818760
 104.0977010  22.5601280  40.2097790 103.8098710  23.0213970  40.9975670
 104.8929180  22.0999050  40.4782010  90.2818650  26.9351060  53.7970490
  90.3909770  25.9945800  53.6565880  89.6299210  27.2005810  53.1484220
  98.2731240  25.2066950  55.1968610  97.9528110  24.4876190  55.7414300
  97.5989600  25.8822020  55.2704670  96.3145410  26.0527400  40.1401760
  96.3055510  26.7857090  39.5246270  95.3943770  25.8058980  40.2328720
  91.9152050  21.2742290  40.8848520  91.3080000  22.0141190  40.8943820
  92.3901400  21.3641650  40.0586720 101.4884840  15.4393110  50.5605410
 101.8565660  14.6188320  50.8884980 100.6283040  15.4995000  50.9761060
 104.8546870  14.3950050  41.3692970 104.2260030  14.4995720  40.6551200
 104.3598790  14.6146830  42.1586850  99.3005010  26.1155640  38.8026950
  99.4016990  25.9119630  37.8728930  98.4006750  25.8613920  39.0074730
  96.8230900  16.6736000  42.7850850  96.1147050  17.1422340  43.2264460
  97.1075380  16.0158010  43.4196040  98.4486830  18.0932700  50.7843380
  98.9472080  18.5678520  51.4495230  98.5909780  17.1696220  50.9913410
 100.8546330  13.3986660  44.2246640 100.7314110  13.4172790  43.2756150
 101.8030890  13.4465600  44.3445040  97.9423120  28.6341960  43.4974620
  98.1964620  28.5963350  42.5753990  96.9935600  28.5075290  43.4902870
  95.0265920  14.9821080  40.1601560  95.8756450  15.4191230  40.0941750
  94.6597190  15.2941340  40.9873620 105.6553690  14.3100660  51.6271770
 105.1527290  15.0506060  51.9665580 106.4710350  14.6984660  51.3108560
 103.9475700  19.5533840  45.0733130 103.0065840  19.5684070  45.2480820
 104.2619770  18.7669800  45.5193430  93.9257340  21.2353440  38.6337090
  94.6920610  21.1234800  39.1962520  94.0032030  20.5391410  37.9813860
  92.6204100  18.6678510  39.3169980  92.7007690  17.7206020  39.4287380
  93.5123850  18.9985390  39.4230640 105.9501280  26.7242690  46.7487390
 106.0748700  27.5473860  47.2211200 106.8166840  26.5133420  46.4011540
  93.4218810  28.8173900  46.4204520  94.1581290  28.2689360  46.6913090
  93.8059730  29.6829910  46.2810510  90.3064290  24.8847470  42.2946030
  89.3804070  25.1268610  42.2851440  90.7720720  25.7121730  42.1730780
  92.4277090  28.0019970  55.6090100  93.2289820  28.3232020  56.0225500
  91.9128910  27.6415550  56.3310010  96.5321120  27.9904210  38.2430090
  97.3249730  28.2793040  37.7911880  96.0125470  27.5596380  37.5642570
 101.2641720  24.1099840  55.5565510 100.6579880  24.1331440  54.8161260
 100.9595830  23.3782880  56.0932760 102.6942090  27.8380130  54.1674920
 103.6463840  27.7538150  54.1175160 102.5470310  28.5021840  54.8408710
 105.5851290  27.2174340  39.6666830 105.2992800  26.8039480  38.8521010
 105.3870840  28.1462050  39.5467350  90.1474900  20.4893430  54.5526150
  90.6513920  19.9100710  55.1242380  89.4082320  20.7733660  55.0902520
  97.0498520  23.2107620  38.1072440  96.9449160  22.5959970  38.8333820
  96.8822740  22.6873510  37.3235450  97.2012840  21.8964420  54.0861670
  96.4358510  22.4649420  54.0016340  97.3828800  21.6040630  53.1929900
 100.2901250  22.2727650  38.7114430  99.7411350  22.7196950  39.3557170
 100.9120510  21.7676900  39.2352100 104.3436190  23.6269750  54.6436690
 105.0845660  23.9645510  54.1404150 103.5808870  23.7961810  54.0906460
  92.1797980  18.6323020  55.4476220  92.2203320  18.3336890  56.3561450
  93.0343480  19.0330630  55.2883740  95.9576370  21.2318570  40.6079730
  96.3792790  21.0658440  41.4511120  96.0827210  20.4218800  40.1134870
  94.1203790  17.2115120  53.4150710  93.5900250  16.7206070  52.7874050
  94.7891860  17.6399320  52.8808640  98.4704010  20.2556180  37.8556830
  98.9909670  19.5405200  37.4897980  99.1172410  20.8942050  38.1557340
 103.0181850  21.6784580  53.1791900 103.4322870  21.8329660  54.0282320
 102.0832850  21.8039800  53.3417680 103.4904020  19.0180740  55.1831050
 104.0724790  18.2633060  55.0951530 103.6665790  19.5488180  54.4062530
  94.6076090  14.1777490  53.4948000  94.5132960  13.5598240  52.7698870
  94.0273480  14.9043780  53.2677910  97.3737530  12.7350730  50.5275390
  96.9254830  12.7574990  49.6820940  96.7402730  12.3369750  51.1245690
  97.7797080  21.6305060  51.1487830  98.1985190  22.4737790  50.9764070
  96.8605710  21.7677100  50.9194610 100.1160980  19.3621240  52.5325670
 100.2357190  18.7662380  53.2720510 100.9754980  19.3990930  52.1126970
 102.4548880  19.9158430  51.1088180 101.9284100  20.4401050  50.5053320
 102.7980220  20.5485820  51.7397910  94.8535270  17.3051800  37.5537890
  94.6524330  16.4419160  37.9151230  94.6827320  17.2185160  36.6159490
  95.6304500  27.9358070  52.2645560  95.0925590  28.6604130  51.9454260
  95.8838460  27.4588410  51.4742900  96.8829750  15.9042590  53.7901490
  97.4729440  15.5958440  54.4779310  96.0649990  15.4322340  53.9461390
 101.7023180  15.5208400  54.0234510 101.0138700  14.8589940  53.9584500
 102.4229200  15.0746670  54.4682970 102.3323580  12.1160030  40.0824770
 102.6125870  11.2727930  40.4384190 101.5589310  12.3483140  40.5963520
  93.6518070  14.4052420  37.5415770  93.9543970  14.4119850  36.6334920
  94.3912660  14.0550280  38.0383430  98.4866710  29.1709280  52.5232210
  98.4125410  30.0744420  52.8304580  97.5845550  28.8521180  52.4954280
  96.8703000  13.3487040  38.5271970  96.5225000  12.6711030  37.9474420
  97.0715770  12.8876550  39.3415360  99.0352040  28.3367790  40.1458570
  99.9302830  28.6752760  40.1677330  99.0669670  27.6147200  39.5182850
  92.6748200  23.7094840  38.3745570  93.1123070  24.2524510  39.0303150
  93.1595930  22.8841790  38.3841910  89.8894000  26.4983870  45.8265830
  90.2197010  25.6304930  45.5944470  90.3185000  26.7042390  46.6570790
  94.4855920  24.8292880  43.4867800  94.1851460  24.7057850  44.3871710
  94.3793410  23.9701470  43.0783530  90.3784210  27.3654460  48.5647460
  89.9415200  27.5455260  49.3971610  90.9461890  28.1229080  48.4229180
 106.0146390  26.8671460  52.8524770 105.4148380  26.9264020  52.1088690
 106.1440290  25.9276440  52.9821620 107.2547840  24.6089280  38.1894480
 106.4240800  24.6765930  38.6601710 107.4319670  25.4993400  37.8861340
 106.7104300  21.3536760  40.6928680 107.4723210  21.9233410  40.7988370
 106.7258670  20.7863960  41.4636990  90.2108640  19.8774690  44.9236340
  89.5557480  19.6086330  44.2796040  91.0486590  19.7679170  44.4738320
 107.7164270  22.2086860  45.5370610 108.0873100  21.4254180  45.1306580
 108.3566200  22.8975960  45.3587910 104.6998030  23.5923440  50.9500930
 103.8857870  24.0220600  51.2126720 105.1072230  24.2041850  50.3369980
 106.7623470  21.6471130  37.8501200 107.0372310  22.5550010  37.7220420
 106.5734210  21.5833660  38.7863190 103.1599080  14.6715980  39.1454830
 103.5783960  14.4846960  38.3051490 102.8535140  13.8195030  39.4557760
 106.6588810  19.5840120  42.8430630 106.2832410  18.8168050  42.4111920
 105.9291930  19.9662820  43.3305560  91.2484570  20.2627260  49.4639680
  91.6157610  20.1754660  50.3435700  90.6795390  19.4993810  49.3646540
 106.0488430  18.7311640  52.4770150 105.8174520  18.5024390  51.5768100
 106.3092980  19.6511190  52.4315040  90.8000570  17.1736350  53.3698100
  89.9056620  17.1403110  53.7091810  91.3398120  17.3723140  54.1349350
 104.4876500  13.9568070  55.2549850 105.3646680  13.9651470  55.6383850
 104.4997340  13.2198910  54.6442200  89.4246720  17.0873620  40.8661670
  88.5210800  17.3503820  40.6913330  89.9087340  17.3584790  40.0861630
 105.9339770  17.8097610  46.1437870 106.4577250  17.3160260  45.5128040
 106.5199190  17.9447970  46.8885440 106.1129490  17.8937480  49.6657420
 105.1632200  17.8601020  49.7802410 106.2942500  18.8037590  49.4307190
  91.9673930  16.1439160  38.7756050  92.6765630  15.7222380  38.2903330
  91.2513870  16.2114390  38.1439400  91.6148090  12.1978490  37.8158700
  92.3376220  12.7387430  38.1339920  91.8872610  11.9241910  36.9400240
 105.4239740  17.0670960  42.0830280 105.9198860  16.8341830  42.8679160
 105.2255810  16.2282800  41.6667920  91.3040280  11.4484680  47.7181320
  91.9516470  10.8982060  47.2776480  91.7242120  11.7027830  48.5397130
 106.8526900  15.7031910  44.6167960 106.7426180  15.5487950  45.5550230
 107.6134490  15.1752850  44.3743370 105.1992620  11.6426040  51.0750960
 105.8364840  12.2560180  51.4410150 105.3467510  11.6786700  50.1300190
 107.7417170  13.5339830  37.8574100 108.6666480  13.4021010  37.6492390
 107.7192960  13.6132650  38.8110550 107.8155660  14.3050490  40.4830810
 107.0207160  14.2395610  41.0123720 108.0198940  15.2401130  40.4716160
 104.7574080  28.3442040  44.4769200 105.3533150  28.0226610  43.8003620
 105.0152230  27.8713860  45.2682470  91.0572280  11.6040350  50.4606640
  90.7087100  12.0604170  51.2264820  90.7259980  10.7097480  50.5429070
  92.6636650  24.7759950  54.6259830  92.6206280  24.4052860  55.5074290
  92.7947660  25.7137520  54.7661650  96.3642680  26.3319540  50.2269550
  96.1234040  26.5994100  49.3400070  97.3045320  26.5025270  50.2820410
  98.5697100  12.7952230  53.9826060  98.5085990  13.3874060  54.7321470
  99.5097480  12.6878190  53.8376320 101.2071660  12.4522290  53.6218350
 101.8212070  12.7701580  52.9599430 101.7521220  11.9670880  54.2414210
 107.6246840  28.3513920  51.0280190 107.1305120  28.7482790  50.3107320
 107.0160130  27.7263130  51.4217470  91.7292920  11.1316550  53.7357410
  92.2775910  10.9504600  52.9723520  91.7948230  10.3410660  54.2713720
  92.5024680  27.7222200  51.7457610  91.9085000  27.5906900  52.4847650
  92.4948520  26.8860340  51.2799710 101.9479700  11.0154430  49.9487640
 101.0739540  11.3489540  49.7460570 101.8390450  10.5427610  50.7739510
 102.8551680  13.2225300  51.3329360 102.5265040  12.4077060  50.9531090
 103.8033980  13.1795110  51.2095050 105.3086290  28.9937340  48.3066930
 104.8489260  29.7453150  47.9324950 104.6798750  28.2743810  48.2481730
  92.1336910  25.0880580  50.6965650  91.4070970  24.4685870  50.6291600
  92.1946060  25.4821190  49.8263730  95.7382010  27.3025580  47.4815060
  96.2547030  26.6912940  46.9563320  96.3879390  27.8054360  47.9726070
  98.4777510  28.1934070  48.3084040  98.7655320  27.9388370  47.4317050
  98.9900730  27.6411430  48.8989610  99.6954520  11.9324270  48.8880550
  98.9126310  12.4069770  49.1677310  99.4017450  11.0279100  48.7793730
 104.2475590  12.6347370  46.9329640 104.6883680  12.5792470  46.0851240
 103.9783180  13.5505380  47.0039820 106.1114160  12.2662610  44.9438460
 106.0502560  11.3223830  44.7969480 106.8906190  12.3742700  45.4891920
  90.4166910  28.4054970  43.9062410  90.2488950  27.7725650  44.6044300
  89.5501420  28.6114370  43.5556600  91.0394930  12.2371750  41.4094270
  91.7974290  12.3500630  40.8358300  90.5772100  13.0740950  41.3637700
  97.5808740  14.3511020  44.3996580  96.7683250  13.9767910  44.0592460
  98.0850380  13.5956100  44.7017770 102.0833720  11.0153470  45.6379650
 102.6863090  11.5873680  46.1128170 101.3426710  11.5792910  45.4153550
 105.2268320  11.4175030  40.9119930 105.4218950  12.3158480  41.1787360
 104.4398190  11.1862110  41.4052880  92.0229610  27.0988200  41.3512550
  91.4977230  27.4796230  40.6474510  91.9474190  27.7238970  42.0722260
  93.4120080  12.7635800  39.9496240  93.9412840  11.9765600  39.8204190
  94.0448400  13.4426990  40.1831770  95.6057920  12.5010940  43.0041630
  94.9760660  11.7998250  43.1711760  95.0663060  13.2615070  42.7874790
  98.5449870  29.1150170  55.6752240  99.4717180  28.8794440  55.7188200
  98.5300300  29.9422170  55.1938270 106.7794930  28.6575740  42.6726490
 106.9547120  27.9713480  42.0287410 106.0816500  29.1822790  42.2803160
  95.7313480  11.7794920  55.4394120  95.4497750  12.2828520  54.6754940
  96.1133180  10.9816670  55.0736250  94.6222580  29.0470580  40.2261800
  95.3541400  28.7629860  39.6785690  94.8816250  28.8083860  41.1161180
  93.7837370  25.1635310  40.2308130  93.1546250  25.6320410  40.7793960
  93.8985200  24.3184530  40.6654320 102.3328940  11.1948500  56.0174590
 102.2194390  11.5143110  56.9126110 103.1498680  11.5961010  55.7211870
 105.1127430  28.3420030  55.4993280 105.9052750  27.8469260  55.2919240
 105.4060580  29.0210170  56.1068890 101.2387090  19.2140970  26.3809330
 101.1581140  18.2995580  26.1101040 100.8251510  19.7108040  25.6749040
  99.3705130  20.9919990  28.2618600  98.5947230  20.5120430  28.5517170
 100.0218060  20.3125640  28.0874760  93.3870960  21.3039800  29.1394360
  92.5555840  21.0488510  29.5390870  93.9951940  21.3750570  29.8752280
 103.3912560  25.3980180  27.0417730 102.9294090  24.6267420  27.3704900
 104.2038110  25.4246250  27.5470180  93.3672220  25.3379890  29.3352380
  93.6700260  24.4477630  29.1562600  94.1115810  25.8950110  29.1074630
  91.7962910  16.2641690  22.9236750  90.9079610  16.6057660  22.8216630
  92.0804100  16.0642010  22.0317580  89.7595920  18.8647340  28.8076450
  90.3312030  18.0969540  28.8080090  89.7597460  19.1636100  27.8983060
  99.6175870  27.6838190  26.6621720  98.9987310  28.1395690  26.0916160
 100.4727650  27.8389650  26.2611420  98.8114120  23.6677180  28.2688760
  98.7422400  22.7267120  28.1077890  99.5733980  23.7578590  28.8411330
  91.0020790  14.2731700  30.5945380  90.8223630  13.3757450  30.8748140
  90.6000870  14.8203570  31.2692330  99.8419290  16.4747560  28.4957690
 100.2184110  15.6019440  28.3831360  99.7438800  16.8106260  27.6048130
  93.9724300  14.8473190  23.9575130  94.0791050  15.7476920  24.2643890
  93.0616660  14.7991160  23.6669780 103.6243410  13.9698000  25.4286030
 104.4453030  13.4794570  25.4711510 103.6577490  14.5595660  26.1817870
  91.6207460  16.7692200  29.2027720  92.3017570  17.0330570  29.8215120
  91.3055510  15.9293070  29.5365730  95.8132030  17.8159560  28.2900310
  96.3210250  18.3140530  28.9305330  96.3445270  17.0394760  28.1139670
 107.9142960  15.9864750  31.9929660 107.2095130  16.3746460  31.4744770
 108.1800880  16.6815040  32.5950590  94.0968130  12.4558120  32.5563730
  94.0986570  12.9730510  31.7509630  93.2672440  11.9788300  32.5333660
 100.4839220  22.5677430  24.0553630  99.8656490  23.0326880  23.4916350
 100.9962470  23.2604910  24.4723140  95.3470980  22.0953300  30.7337230
  95.0140360  22.7222220  31.3758300  95.5237660  22.6215180  29.9538900
 103.8604890  15.9098380  28.2013570 103.1560460  16.1983270  28.7816680
 104.2217050  16.7198490  27.8413130  93.7783460  14.1668080  30.5634180
  94.1200270  15.0110130  30.2688050  92.8399270  14.3151820  30.6799520
  94.5590080  24.0634100  32.5486410  95.1764080  24.7385180  32.2670860
  93.6983200  24.4722080  32.4573910  89.8522420  23.2533960  21.4293260
  89.4750400  23.7421060  20.6978160  90.1095490  23.9259240  22.0599790
 105.4767670  25.5273510  30.4641050 104.7931190  26.1972620  30.4557720
 106.0161960  25.7254160  29.6985910 106.9291810  15.3553170  28.5922780
 105.9816720  15.3892150  28.7238210 107.2541800  16.1692120  28.9772140
  97.4611350  11.6550350  26.8878770  97.7686330  11.0997240  26.1714270
  96.5312050  11.7894810  26.7051760 103.0126410  27.3717640  29.1786230
 103.0253570  26.9679930  28.3108490 102.4601630  28.1464930  29.0747660
 104.3071830  24.0933860  24.2676400 104.1968160  23.1508190  24.3925820
 104.3040080  24.4549500  25.1539160 102.4111850  22.2747480  30.5068840
 102.8280640  22.0607590  29.6722300 103.1351670  22.5320270  31.0777460
  99.8492110  19.7199180  23.6238890  98.9221390  19.6536560  23.8527360
 100.0016930  20.6579310  23.5094130  99.8361190  15.9916180  20.6206050
  98.8964860  16.1530140  20.7058510 100.1544450  16.7101860  20.0742040
 106.3573950  20.6734700  30.5985080 105.5292580  20.7427790  30.1235210
 106.9524430  21.2589010  30.1300910 103.8789400  21.2819480  24.1274140
 103.2601820  20.9439030  23.4800440 103.8613850  20.6379240  24.8353330
 103.3215960  17.4604020  31.5439950 102.9087140  18.2857730  31.7979940
 102.5891910  16.8749060  31.3516310  95.4548750  20.2463920  26.4058620
  95.0505750  19.5341170  25.9104520  95.5411870  19.9017160  27.2946660
  95.9230450  23.9331480  28.5697830  95.6258740  23.3276950  27.8905610
  96.8730270  23.9708790  28.4587190  94.1677370  17.0207130  30.1857660
  94.7191960  17.1302470  29.4110910  94.6820880  17.3944730  30.9012890
 104.0116060  27.5063350  32.2320930 103.5346620  28.3135540  32.0393540
 103.3277850  26.8541680  32.3847140  95.0148880  23.6713170  35.2205630
  94.1177410  23.8953140  35.4679030  95.0401750  23.7948110  34.2717030
 102.0554100  20.5206290  21.1346890 102.4947380  19.6828720  20.9884710
 102.7682520  21.1535690  21.2211030  93.8420100  20.5426490  33.7963000
  93.7027870  21.4149290  34.1650400  92.9601460  20.1999300  33.6510940
 100.1649480  25.4602360  25.1028130 100.6045390  26.2026690  24.6883520
 100.1036370  25.7028930  26.0267090  95.6400450  26.4848190  36.0048150
  95.6115880  26.8891140  35.1376580  95.4765420  25.5558550  35.8419750
 105.6371240  11.7749100  19.4487930 105.3243900  11.8675930  20.3487000
 106.3983710  12.3530130  19.3985360  92.1553380  19.1408900  23.9065270
  92.0350980  19.8670990  23.2946540  91.8454270  18.3711810  23.4293180
 107.5915270  27.2675290  37.3012320 108.0674990  27.7458180  37.9801400
 108.2122430  27.1992780  36.5757820  89.7938750  22.3124040  29.7133910
  89.8719170  22.4472810  28.7689630  90.4080430  21.6039930  29.9062030
  91.0386380  24.0124230  26.1240090  90.6314460  24.1538820  25.2693690
  91.9299390  23.7284390  25.9211300 106.9948520  24.4588140  34.4612330
 107.1211580  24.2200020  33.5429510 107.0369900  23.6272680  34.9334410
 100.8565260  28.1616140  33.0307140 101.3709930  28.0724150  33.8329570
 100.0134340  28.5075840  33.3235050 102.8319660  28.4471480  22.4591140
 102.6720800  28.1574420  23.3572970 102.6666370  27.6711610  21.9236370
  95.3108040  28.2270010  24.2362760  95.1350520  27.3105550  24.0230560
  94.4563780  28.5857300  24.4760560 102.5345790  25.9559040  21.0189140
 101.8410950  25.9536330  20.3591420 103.2768650  25.5318360  20.5883310
 102.0995720  27.5821750  25.0937630 102.5552670  26.8011130  25.4076250
 102.4388240  28.2928570  25.6378810 106.8472530  16.5120600  35.4262070
 106.2316800  17.0200270  34.8977530 106.5268950  15.6118930  35.3688010
  89.8498270  23.3538210  32.2528370  90.0129310  22.8843570  31.4347740
  90.3150720  22.8461770  32.9177210  94.6217040  12.4843970  27.2888940
  94.1785190  13.2653510  26.9573460  95.1802030  12.8073860  27.9959880
  98.9086850  15.3512490  32.8924260  98.4466220  15.5595510  33.7044200
  98.5064960  14.5371840  32.5894930 103.9091360  16.5721440  34.0220920
 103.0584950  16.2727190  34.3429990 103.7493150  16.8163450  33.1104740
 101.0041070  18.0723190  36.1219710 101.3294480  17.2386940  35.7821940
 101.7921400  18.5951710  36.2698040  97.7375860  12.1054670  22.1694770
  97.1130040  12.1014540  22.8948080  97.6505980  11.2385630  21.7730740
  96.6592940  13.0291300  29.1478540  96.9565270  13.9354130  29.0670560
  97.2078500  12.5410080  28.5338110  94.4131260  17.6077540  25.0170190
  94.1872180  17.3914710  25.9216810  93.6323790  18.0406000  24.6716160
 101.6429020  17.6140910  23.6160840 101.0437910  18.3376710  23.4324460
 102.1908630  17.5517690  22.8337290  96.8530470  18.5063120  35.6830460
  96.7574070  17.5657850  35.5330860  97.6962450  18.7278190  35.2878530
 100.2493890  16.2504450  25.6464120 100.6423460  16.5676650  24.8332810
 100.6110740  15.3716330  25.7608640  91.9841010  14.9176790  33.8364240
  91.5904400  15.7652000  34.0437020  91.2959410  14.2803160  34.0272880
  98.5586060  15.0011760  36.9060980  97.8684380  14.8083960  37.5407070
  99.3018360  15.2846400  37.4385280  89.2858060  12.8405250  27.8694320
  88.9971110  13.4108110  28.5819300  90.0303820  12.3609700  28.2325550
  89.4728290  16.7825370  19.0797040  89.3902960  17.7256130  19.2212030
  89.1211350  16.6400280  18.2009390 100.8349030  18.8410200  29.7414900
 100.1030150  19.3497010  30.0905000 100.4373370  18.0240180  29.4403680
  97.2726420  15.5164400  28.1467390  97.2762480  15.0754350  27.2971930
  98.1677540  15.8381730  28.2539210  93.1228800  15.3990890  27.1061600
  92.7828850  15.8766120  27.8628650  92.3606120  14.9456010  26.7462700
  97.3346570  16.5176480  21.1374150  97.4559390  16.4762960  22.0859970
  96.9495080  17.3800630  20.9820880 101.2974940  14.2943880  29.1537840
 101.3147680  14.7452530  29.9979690 101.0490520  13.3949520  29.3671280
  96.3468070  18.8277620  20.5357450  95.7784970  18.3795870  19.9093360
  97.0557070  19.1870400  20.0022600 104.7245690  11.7076060  34.9924220
 105.0491460  10.9765720  35.5182200 104.7602200  11.3889700  34.0905210
  91.4237250  22.7289640  34.4124180  91.0392040  22.0883310  35.0107140
  91.7349440  23.4325760  34.9818910  97.5734390  19.5766180  29.8932800
  97.9404520  19.1024750  30.6394140  97.3839450  20.4507750  30.2341140
  90.4374880  14.3209870  26.0226270  90.1521800  13.9565540  26.8604890
  90.3753740  13.5890330  25.4089410  95.3633760  18.6174820  32.2117010
  95.0590830  19.4966800  32.4367370  96.3180220  18.6774610  32.2474450
  93.8915550  22.8235810  22.8083860  93.1177810  22.2833430  22.6482580
  94.6210180  22.3042420  22.4701620 104.6503530  21.8201170  28.6010250
 105.3702650  22.3156460  28.2106360 104.4485350  21.1419060  27.9564120
 100.1113470  13.2139130  22.7439640  99.2978080  12.7152300  22.6684950
  99.9175420  14.0537380  22.3275990 100.0322330  21.8910230  34.4879250
  99.9659640  20.9705900  34.2336840  99.4027470  21.9885670  35.2023890
 102.8261860  17.5858780  21.0401800 103.7141480  17.8976010  20.8653140
 102.7966950  16.7131030  20.6482380  93.9352950  22.4916190  26.4462670
  94.4531620  21.6884450  26.3919560  93.4836970  22.4295330  27.2879500
  98.8222450  23.7582470  21.7189970  99.1638150  24.5024700  21.2233290
  97.9935160  24.0713590  22.0814800  91.4197490  19.4577560  33.3588370
  91.0612430  20.1231410  33.9461710  91.1252050  18.6261110  33.7300990
  94.6210610  19.9161800  36.2427920  94.3210750  20.0618980  35.3455740
  95.3921850  19.3567090  36.1501310  99.9639060  24.7130800  34.2383050
  99.9783600  23.7811760  34.0201960  99.2564160  24.7990560  34.8772820
 105.0976130  18.8970620  20.5081660 105.0139850  19.3284840  19.6578100
 105.8170320  19.3568970  20.9408480 106.1750270  21.3538140  33.5851630
 105.4498460  21.9466920  33.3881020 106.7025730  21.3461680  32.7865000
 106.1263380  25.7512880  23.2363790 105.4839540  25.0968500  23.5107510
 105.7394040  26.1567970  22.4604460 101.7049860  23.0798310  27.0835480
 102.0573680  22.4826440  26.4236850 100.8212190  22.7542540  27.2543730
  97.7913140  23.8396000  24.4905890  98.4784270  24.3865210  24.8713480
  97.0045560  24.3836730  24.5255500  89.9305540  19.4568820  19.9822970
  90.8000390  19.7393620  20.2658890  89.4395860  20.2704690  19.8671780
  97.0940350  20.8442030  24.1031250  97.5503130  21.6547280  24.3291440
  96.7428560  20.5265170  24.9349740  99.3972960  26.3548370  31.3323550
 100.0415180  26.5607750  32.0096970  99.7602400  25.5936770  30.8794400
  92.9952130  11.1879680  24.5753770  92.8666760  11.1797580  25.5238690
  92.1714150  11.5262770  24.2244780 100.6705040  24.3580720  30.0501000
 101.3127270  23.6573880  30.1633170 101.1954390  25.1379160  29.8697890
 104.5160760  24.6429340  19.7740140 104.2898340  23.9259780  20.3664780
 104.1256960  24.3941780  18.9361890 102.4442660  25.1575620  33.2537060
 102.7798900  25.7442310  33.9314980 101.5243000  25.0268330  33.4834850
  90.2976790  28.6696200  20.5484600  90.6574430  29.2685540  19.8941870
  90.1569130  29.2156090  21.3219630  89.9946060  12.9470800  34.0360470
  89.2804580  13.1467720  34.6413080  90.4141100  12.1710370  34.4075270
 104.0977010  22.5601280  21.4354300 103.8098710  23.0213970  22.2232180
 104.8929180  22.0999050  21.7038520  90.2818650  26.9351060  35.0227000
  90.3909770  25.9945800  34.8822390  89.6299210  27.2005810  34.3740730
  98.2731240  25.2066950  36.4225120  97.9528110  24.4876190  36.9670810
  97.5989600  25.8822020  36.4961180  96.3145410  26.0527400  21.3658270
  96.3055510  26.7857090  20.7502780  95.3943770  25.8058980  21.4585230
  91.9152050  21.2742290  22.1105030  91.3080000  22.0141190  22.1200330
  92.3901400  21.3641650  21.2843230 101.4884840  15.4393110  31.7861920
 101.8565660  14.6188320  32.1141490 100.6283040  15.4995000  32.2017570
 104.8546870  14.3950050  22.5949480 104.2260030  14.4995720  21.8807710
 104.3598790  14.6146830  23.3843360  99.3005010  26.1155640  20.0283460
  99.4016990  25.9119630  19.0985440  98.4006750  25.8613920  20.2331240
  96.8230900  16.6736000  24.0107360  96.1147050  17.1422340  24.4520970
  97.1075380  16.0158010  24.6452550  98.4486830  18.0932700  32.0099890
  98.9472080  18.5678520  32.6751740  98.5909780  17.1696220  32.2169920
 100.8546330  13.3986660  25.4503150 100.7314110  13.4172790  24.5012660
 101.8030890  13.4465600  25.5701550  97.9423120  28.6341960  24.7231130
  98.1964620  28.5963350  23.8010500  96.9935600  28.5075290  24.7159380
  95.0265920  14.9821080  21.3858070  95.8756450  15.4191230  21.3198260
  94.6597190  15.2941340  22.2130130 105.6553690  14.3100660  32.8528280
 105.1527290  15.0506060  33.1922090 106.4710350  14.6984660  32.5365070
 103.9475700  19.5533840  26.2989640 103.0065840  19.5684070  26.4737330
 104.2619770  18.7669800  26.7449940  93.9257340  21.2353440  19.8593600
  94.6920610  21.1234800  20.4219030  94.0032030  20.5391410  19.2070370
  92.6204100  18.6678510  20.5426490  92.7007690  17.7206020  20.6543890
  93.5123850  18.9985390  20.6487150 105.9501280  26.7242690  27.9743900
 106.0748700  27.5473860  28.4467710 106.8166840  26.5133420  27.6268050
  93.4218810  28.8173900  27.6461030  94.1581290  28.2689360  27.9169600
  93.8059730  29.6829910  27.5067020  90.3064290  24.8847470  23.5202540
  89.3804070  25.1268610  23.5107950  90.7720720  25.7121730  23.3987290
  92.4277090  28.0019970  36.8346610  93.2289820  28.3232020  37.2482010
  91.9128910  27.6415550  37.5566520  96.5321120  27.9904210  19.4686600
  97.3249730  28.2793040  19.0168390  96.0125470  27.5596380  18.7899080
 101.2641720  24.1099840  36.7822020 100.6579880  24.1331440  36.0417770
 100.9595830  23.3782880  37.3189270 102.6942090  27.8380130  35.3931430
 103.6463840  27.7538150  35.3431670 102.5470310  28.5021840  36.0665220
 105.5851290  27.2174340  20.8923340 105.2992800  26.8039480  20.0777520
 105.3870840  28.1462050  20.7723860  90.1474900  20.4893430  35.7782660
  90.6513920  19.9100710  36.3498890  89.4082320  20.7733660  36.3159030
  97.0498520  23.2107620  19.3328950  96.9449160  22.5959970  20.0590330
  96.8822740  22.6873510  18.5491960  97.2012840  21.8964420  35.3118180
  96.4358510  22.4649420  35.2272850  97.3828800  21.6040630  34.4186410
 100.2901250  22.2727650  19.9370940  99.7411350  22.7196950  20.5813680
 100.9120510  21.7676900  20.4608610 104.3436190  23.6269750  35.8693200
 105.0845660  23.9645510  35.3660660 103.5808870  23.7961810  35.3162970
  92.1797980  18.6323020  36.6732730  92.2203320  18.3336890  37.5817960
  93.0343480  19.0330630  36.5140250  95.9576370  21.2318570  21.8336240
  96.3792790  21.0658440  22.6767630  96.0827210  20.4218800  21.3391380
  94.1203790  17.2115120  34.6407220  93.5900250  16.7206070  34.0130560
  94.7891860  17.6399320  34.1065150  98.4704010  20.2556180  19.0813340
  98.9909670  19.5405200  18.7154490  99.1172410  20.8942050  19.3813850
 103.0181850  21.6784580  34.4048410 103.4322870  21.8329660  35.2538830
 102.0832850  21.8039800  34.5674190 103.4904020  19.0180740  36.4087560
 104.0724790  18.2633060  36.3208040 103.6665790  19.5488180  35.6319040
  94.6076090  14.1777490  34.7204510  94.5132960  13.5598240  33.9955380
  94.0273480  14.9043780  34.4934420  97.3737530  12.7350730  31.7531900
  96.9254830  12.7574990  30.9077450  96.7402730  12.3369750  32.3502200
  97.7797080  21.6305060  32.3744340  98.1985190  22.4737790  32.2020580
  96.8605710  21.7677100  32.1451120 100.1160980  19.3621240  33.7582180
 100.2357190  18.7662380  34.4977020 100.9754980  19.3990930  33.3383480
 102.4548880  19.9158430  32.3344690 101.9284100  20.4401050  31.7309830
 102.7980220  20.5485820  32.9654420  94.8535270  17.3051800  18.7794400
  94.6524330  16.4419160  19.1407740  94.6827320  17.2185160  17.8416000
  95.6304500  27.9358070  33.4902070  95.0925590  28.6604130  33.1710770
  95.8838460  27.4588410  32.6999410  96.8829750  15.9042590  35.0158000
  97.4729440  15.5958440  35.7035820  96.0649990  15.4322340  35.1717900
 101.7023180  15.5208400  35.2491020 101.0138700  14.8589940  35.1841010
 102.4229200  15.0746670  35.6939480 102.3323580  12.1160030  21.3081280
 102.6125870  11.2727930  21.6640700 101.5589310  12.3483140  21.8220030
  93.6518070  14.4052420  18.7672280  93.9543970  14.4119850  17.8591430
  94.3912660  14.0550280  19.2639940  98.4866710  29.1709280  33.7488720
  98.4125410  30.0744420  34.0561090  97.5845550  28.8521180  33.7210790
  96.8703000  13.3487040  19.7528480  96.5225000  12.6711030  19.1730930
  97.0715770  12.8876550  20.5671870  99.0352040  28.3367790  21.3715080
  99.9302830  28.6752760  21.3933840  99.0669670  27.6147200  20.7439360
  92.6748200  23.7094840  19.6002080  93.1123070  24.2524510  20.2559660
  93.1595930  22.8841790  19.6098420  89.8894000  26.4983870  27.0522340
  90.2197010  25.6304930  26.8200980  90.3185000  26.7042390  27.8827300
  94.4855920  24.8292880  24.7124310  94.1851460  24.7057850  25.6128220
  94.3793410  23.9701470  24.3040040  90.3784210  27.3654460  29.7903970
  89.9415200  27.5455260  30.6228120  90.9461890  28.1229080  29.6485690
 106.0146390  26.8671460  34.0781280 105.4148380  26.9264020  33.3345200
 106.1440290  25.9276440  34.2078130 107.2547840  24.6089280  19.4150990
 106.4240800  24.6765930  19.8858220 107.4319670  25.4993400  19.1117850
 106.7104300  21.3536760  21.9185190 107.4723210  21.9233410  22.0244880
 106.7258670  20.7863960  22.6893500  90.2108640  19.8774690  26.1492850
  89.5557480  19.6086330  25.5052550  91.0486590  19.7679170  25.6994830
 107.7164270  22.2086860  26.7627120 108.0873100  21.4254180  26.3563090
 108.3566200  22.8975960  26.5844420 104.6998030  23.5923440  32.1757440
 103.8857870  24.0220600  32.4383230 105.1072230  24.2041850  31.5626490
 106.7623470  21.6471130  19.0757710 107.0372310  22.5550010  18.9476930
 106.5734210  21.5833660  20.0119700 103.1599080  14.6715980  20.3711340
 103.5783960  14.4846960  19.5308000 102.8535140  13.8195030  20.6814270
 106.6588810  19.5840120  24.0687140 106.2832410  18.8168050  23.6368430
 105.9291930  19.9662820  24.5562070  91.2484570  20.2627260  30.6896190
  91.6157610  20.1754660  31.5692210  90.6795390  19.4993810  30.5903050
 106.0488430  18.7311640  33.7026660 105.8174520  18.5024390  32.8024610
 106.3092980  19.6511190  33.6571550  90.8000570  17.1736350  34.5954610
  89.9056620  17.1403110  34.9348320  91.3398120  17.3723140  35.3605860
 104.4876500  13.9568070  36.4806360 105.3646680  13.9651470  36.8640360
 104.4997340  13.2198910  35.8698710  89.4246720  17.0873620  22.0918180
  88.5210800  17.3503820  21.9169840  89.9087340  17.3584790  21.3118140
 105.9339770  17.8097610  27.3694380 106.4577250  17.3160260  26.7384550
 106.5199190  17.9447970  28.1141950 106.1129490  17.8937480  30.8913930
 105.1632200  17.8601020  31.0058920 106.2942500  18.8037590  30.6563700
  91.9673930  16.1439160  20.0012560  92.6765630  15.7222380  19.5159840
  91.2513870  16.2114390  19.3695910  91.6148090  12.1978490  19.0415210
  92.3376220  12.7387430  19.3596430  91.8872610  11.9241910  18.1656750
 105.4239740  17.0670960  23.3086790 105.9198860  16.8341830  24.0935670
 105.2255810  16.2282800  22.8924430  91.3040280  11.4484680  28.9437830
  91.9516470  10.8982060  28.5032990  91.7242120  11.7027830  29.7653640
 106.8526900  15.7031910  25.8424470 106.7426180  15.5487950  26.7806740
 107.6134490  15.1752850  25.5999880 105.1992620  11.6426040  32.3007470
 105.8364840  12.2560180  32.6666660 105.3467510  11.6786700  31.3556700
 107.7417170  13.5339830  19.0830610 108.6666480  13.4021010  18.8748900
 107.7192960  13.6132650  20.0367060 107.8155660  14.3050490  21.7087320
 107.0207160  14.2395610  22.2380230 108.0198940  15.2401130  21.6972670
 104.7574080  28.3442040  25.7025710 105.3533150  28.0226610  25.0260130
 105.0152230  27.8713860  26.4938980  91.0572280  11.6040350  31.6863150
  90.7087100  12.0604170  32.4521330  90.7259980  10.7097480  31.7685580
  92.6636650  24.7759950  35.8516340  92.6206280  24.4052860  36.7330800
  92.7947660  25.7137520  35.9918160  96.3642680  26.3319540  31.4526060
  96.1234040  26.5994100  30.5656580  97.3045320  26.5025270  31.5076920
  98.5697100  12.7952230  35.2082570  98.5085990  13.3874060  35.9577980
  99.5097480  12.6878190  35.0632830 101.2071660  12.4522290  34.8474860
 101.8212070  12.7701580  34.1855940 101.7521220  11.9670880  35.4670720
 107.6246840  28.3513920  32.2536700 107.1305120  28.7482790  31.5363830
 107.0160130  27.7263130  32.6473980  91.7292920  11.1316550  34.9613920
  92.2775910  10.9504600  34.1980030  91.7948230  10.3410660  35.4970230
  92.5024680  27.7222200  32.9714120  91.9085000  27.5906900  33.7104160
  92.4948520  26.8860340  32.5056220 101.9479700  11.0154430  31.1744150
 101.0739540  11.3489540  30.9717080 101.8390450  10.5427610  31.9996020
 102.8551680  13.2225300  32.5585870 102.5265040  12.4077060  32.1787600
 103.8033980  13.1795110  32.4351560 105.3086290  28.9937340  29.5323440
 104.8489260  29.7453150  29.1581460 104.6798750  28.2743810  29.4738240
  92.1336910  25.0880580  31.9222160  91.4070970  24.4685870  31.8548110
  92.1946060  25.4821190  31.0520240  95.7382010  27.3025580  28.7071570
  96.2547030  26.6912940  28.1819830  96.3879390  27.8054360  29.1982580
  98.4777510  28.1934070  29.5340550  98.7655320  27.9388370  28.6573560
  98.9900730  27.6411430  30.1246120  99.6954520  11.9324270  30.1137060
  98.9126310  12.4069770  30.3933820  99.4017450  11.0279100  30.0050240
 104.2475590  12.6347370  28.1586150 104.6883680  12.5792470  27.3107750
 103.9783180  13.5505380  28.2296330 106.1114160  12.2662610  26.1694970
 106.0502560  11.3223830  26.0225990 106.8906190  12.3742700  26.7148430
  90.4166910  28.4054970  25.1318920  90.2488950  27.7725650  25.8300810
  89.5501420  28.6114370  24.7813110  91.0394930  12.2371750  22.6350780
  91.7974290  12.3500630  22.0614810  90.5772100  13.0740950  22.5894210
  97.5808740  14.3511020  25.6253090  96.7683250  13.9767910  25.2848970
  98.0850380  13.5956100  25.9274280 102.0833720  11.0153470  26.8636160
 102.6863090  11.5873680  27.3384680 101.3426710  11.5792910  26.6410060
 105.2268320  11.4175030  22.1376440 105.4218950  12.3158480  22.4043870
 104.4398190  11.1862110  22.6309390  92.0229610  27.0988200  22.5769060
  91.4977230  27.4796230  21.8731020  91.9474190  27.7238970  23.2978770
  93.4120080  12.7635800  21.1752750  93.9412840  11.9765600  21.0460700
  94.0448400  13.4426990  21.4088280  95.6057920  12.5010940  24.2298140
  94.9760660  11.7998250  24.3968270  95.0663060  13.2615070  24.0131300
  98.5449870  29.1150170  36.9008750  99.4717180  28.8794440  36.9444710
  98.5300300  29.9422170  36.4194780 106.7794930  28.6575740  23.8983000
 106.9547120  27.9713480  23.2543920 106.0816500  29.1822790  23.5059670
  95.7313480  11.7794920  36.6650630  95.4497750  12.2828520  35.9011450
  96.1133180  10.9816670  36.2992760  94.6222580  29.0470580  21.4518310
  95.3541400  28.7629860  20.9042200  94.8816250  28.8083860  22.3417690
  93.7837370  25.1635310  21.4564640  93.1546250  25.6320410  22.0050470
  93.8985200  24.3184530  21.8910830 102.3328940  11.1948500  37.2431100
 102.2194390  11.5143110  38.1382620 103.1498680  11.5961010  36.9468380
 105.1127430  28.3420030  36.7249790 105.9052750  27.8469260  36.5175750
 105.4060580  29.0210170  37.3325400 101.2387090  19.2140970   7.6065840
 101.1581140  18.2995580   7.3357550 100.8251510  19.7108040   6.9005550
  99.3705130  20.9919990   9.4875110  98.5947230  20.5120430   9.7773680
 100.0218060  20.3125640   9.3131270  93.3870960  21.3039800  10.3650870
  92.5555840  21.0488510  10.7647380  93.9951940  21.3750570  11.1008790
 103.3912560  25.3980180   8.2674240 102.9294090  24.6267420   8.5961410
 104.2038110  25.4246250   8.7726690  93.3672220  25.3379890  10.5608890
  93.6700260  24.4477630  10.3819110  94.1115810  25.8950110  10.3331140
  91.7962910  16.2641690   4.1493260  90.9079610  16.6057660   4.0473140
  92.0804100  16.0642010   3.2574090  89.7595920  18.8647340  10.0332960
  90.3312030  18.0969540  10.0336600  89.7597460  19.1636100   9.1239570
  99.6175870  27.6838190   7.8878230  98.9987310  28.1395690   7.3172670
 100.4727650  27.8389650   7.4867930  98.8114120  23.6677180   9.4945270
  98.7422400  22.7267120   9.3334400  99.5733980  23.7578590  10.0667840
  91.0020790  14.2731700  11.8201890  90.8223630  13.3757450  12.1004650
  90.6000870  14.8203570  12.4948840  99.8419290  16.4747560   9.7214200
 100.2184110  15.6019440   9.6087870  99.7438800  16.8106260   8.8304640
  93.9724300  14.8473190   5.1831640  94.0791050  15.7476920   5.4900400
  93.0616660  14.7991160   4.8926290 103.6243410  13.9698000   6.6542540
 104.4453030  13.4794570   6.6968020 103.6577490  14.5595660   7.4074380
  91.6207460  16.7692200  10.4284230  92.3017570  17.0330570  11.0471630
  91.3055510  15.9293070  10.7622240  95.8132030  17.8159560   9.5156820
  96.3210250  18.3140530  10.1561840  96.3445270  17.0394760   9.3396180
 107.9142960  15.9864750  13.2186170 107.2095130  16.3746460  12.7001280
 108.1800880  16.6815040  13.8207100  94.0968130  12.4558120  13.7820240
  94.0986570  12.9730510  12.9766140  93.2672440  11.9788300  13.7590170
 100.4839220  22.5677430   5.2810140  99.8656490  23.0326880   4.7172860
 100.9962470  23.2604910   5.6979650  95.3470980  22.0953300  11.9593740
  95.0140360  22.7222220  12.6014810  95.5237660  22.6215180  11.1795410
 103.8604890  15.9098380   9.4270080 103.1560460  16.1983270  10.0073190
 104.2217050  16.7198490   9.0669640  93.7783460  14.1668080  11.7890690
  94.1200270  15.0110130  11.4944560  92.8399270  14.3151820  11.9056030
  94.5590080  24.0634100  13.7742920  95.1764080  24.7385180  13.4927370
  93.6983200  24.4722080  13.6830420  89.8522420  23.2533960   2.6549770
  89.4750400  23.7421060   1.9234670  90.1095490  23.9259240   3.2856300
 105.4767670  25.5273510  11.6897560 104.7931190  26.1972620  11.6814230
 106.0161960  25.7254160  10.9242420 106.9291810  15.3553170   9.8179290
 105.9816720  15.3892150   9.9494720 107.2541800  16.1692120  10.2028650
  97.4611350  11.6550350   8.1135280  97.7686330  11.0997240   7.3970780
  96.5312050  11.7894810   7.9308270 103.0126410  27.3717640  10.4042740
 103.0253570  26.9679930   9.5365000 102.4601630  28.1464930  10.3004170
 104.3071830  24.0933860   5.4932910 104.1968160  23.1508190   5.6182330
 104.3040080  24.4549500   6.3795670 102.4111850  22.2747480  11.7325350
 102.8280640  22.0607590  10.8978810 103.1351670  22.5320270  12.3033970
  99.8492110  19.7199180   4.8495400  98.9221390  19.6536560   5.0783870
 100.0016930  20.6579310   4.7350640  99.8361190  15.9916180   1.8462560
  98.8964860  16.1530140   1.9315020 100.1544450  16.7101860   1.2998550
 106.3573950  20.6734700  11.8241590 105.5292580  20.7427790  11.3491720
 106.9524430  21.2589010  11.3557420 103.8789400  21.2819480   5.3530650
 103.2601820  20.9439030   4.7056950 103.8613850  20.6379240   6.0609840
 103.3215960  17.4604020  12.7696460 102.9087140  18.2857730  13.0236450
 102.5891910  16.8749060  12.5772820  95.4548750  20.2463920   7.6315130
  95.0505750  19.5341170   7.1361030  95.5411870  19.9017160   8.5203170
  95.9230450  23.9331480   9.7954340  95.6258740  23.3276950   9.1162120
  96.8730270  23.9708790   9.6843700  94.1677370  17.0207130  11.4114170
  94.7191960  17.1302470  10.6367420  94.6820880  17.3944730  12.1269400
 104.0116060  27.5063350  13.4577440 103.5346620  28.3135540  13.2650050
 103.3277850  26.8541680  13.6103650  95.0148880  23.6713170  16.4462140
  94.1177410  23.8953140  16.6935540  95.0401750  23.7948110  15.4973540
 102.0554100  20.5206290   2.3603400 102.4947380  19.6828720   2.2141220
 102.7682520  21.1535690   2.4467540  93.8420100  20.5426490  15.0219510
  93.7027870  21.4149290  15.3906910  92.9601460  20.1999300  14.8767450
 100.1649480  25.4602360   6.3284640 100.6045390  26.2026690   5.9140030
 100.1036370  25.7028930   7.2523600  95.6400450  26.4848190  17.2304660
  95.6115880  26.8891140  16.3633090  95.4765420  25.5558550  17.0676260
  92.1553380  19.1408900   5.1321780  92.0350980  19.8670990   4.5203050
  91.8454270  18.3711810   4.6549690 107.5915270  27.2675290  18.5268830
 108.0674990  27.7458180  19.2057910 108.2122430  27.1992780  17.8014330
  89.7938750  22.3124040  10.9390420  89.8719170  22.4472810   9.9946140
  90.4080430  21.6039930  11.1318540  91.0386380  24.0124230   7.3496600
  90.6314460  24.1538820   6.4950200  91.9299390  23.7284390   7.1467810
 106.9948520  24.4588140  15.6868840 107.1211580  24.2200020  14.7686020
 107.0369900  23.6272680  16.1590920 100.8565260  28.1616140  14.2563650
 101.3709930  28.0724150  15.0586080 100.0134340  28.5075840  14.5491560
 102.8319660  28.4471480   3.6847650 102.6720800  28.1574420   4.5829480
 102.6666370  27.6711610   3.1492880  95.3108040  28.2270010   5.4619270
  95.1350520  27.3105550   5.2487070  94.4563780  28.5857300   5.7017070
 102.5345790  25.9559040   2.2445650 101.8410950  25.9536330   1.5847930
 103.2768650  25.5318360   1.8139820 102.0995720  27.5821750   6.3194140
 102.5552670  26.8011130   6.6332760 102.4388240  28.2928570   6.8635320
 106.8472530  16.5120600  16.6518580 106.2316800  17.0200270  16.1234040
 106.5268950  15.6118930  16.5944520  89.8498270  23.3538210  13.4784880
  90.0129310  22.8843570  12.6604250  90.3150720  22.8461770  14.1433720
  94.6217040  12.4843970   8.5145450  94.1785190  13.2653510   8.1829970
  95.1802030  12.8073860   9.2216390  98.9086850  15.3512490  14.1180770
  98.4466220  15.5595510  14.9300710  98.5064960  14.5371840  13.8151440
 103.9091360  16.5721440  15.2477430 103.0584950  16.2727190  15.5686500
 103.7493150  16.8163450  14.3361250 101.0041070  18.0723190  17.3476220
 101.3294480  17.2386940  17.0078450 101.7921400  18.5951710  17.4954550
  97.7375860  12.1054670   3.3951280  97.1130040  12.1014540   4.1204590
  97.6505980  11.2385630   2.9987250  96.6592940  13.0291300  10.3735050
  96.9565270  13.9354130  10.2927070  97.2078500  12.5410080   9.7594620
  94.4131260  17.6077540   6.2426700  94.1872180  17.3914710   7.1473320
  93.6323790  18.0406000   5.8972670 101.6429020  17.6140910   4.8417350
 101.0437910  18.3376710   4.6580970 102.1908630  17.5517690   4.0593800
  96.8530470  18.5063120  16.9086970  96.7574070  17.5657850  16.7587370
  97.6962450  18.7278190  16.5135040 100.2493890  16.2504450   6.8720630
 100.6423460  16.5676650   6.0589320 100.6110740  15.3716330   6.9865150
  91.9841010  14.9176790  15.0620750  91.5904400  15.7652000  15.2693530
  91.2959410  14.2803160  15.2529390  98.5586060  15.0011760  18.1317490
  97.8684380  14.8083960  18.7663580  99.3018360  15.2846400  18.6641790
  89.2858060  12.8405250   9.0950830  88.9971110  13.4108110   9.8075810
  90.0303820  12.3609700   9.4582060 100.8349030  18.8410200  10.9671410
 100.1030150  19.3497010  11.3161510 100.4373370  18.0240180  10.6660190
  97.2726420  15.5164400   9.3723900  97.2762480  15.0754350   8.5228440
  98.1677540  15.8381730   9.4795720  93.1228800  15.3990890   8.3318110
  92.7828850  15.8766120   9.0885160  92.3606120  14.9456010   7.9719210
  97.3346570  16.5176480   2.3630660  97.4559390  16.4762960   3.3116480
  96.9495080  17.3800630   2.2077390 101.2974940  14.2943880  10.3794350
 101.3147680  14.7452530  11.2236200 101.0490520  13.3949520  10.5927790
 104.7245690  11.7076060  16.2180730 105.0491460  10.9765720  16.7438710
 104.7602200  11.3889700  15.3161720  91.4237250  22.7289640  15.6380690
  91.0392040  22.0883310  16.2363650  91.7349440  23.4325760  16.2075420
  97.5734390  19.5766180  11.1189310  97.9404520  19.1024750  11.8650650
  97.3839450  20.4507750  11.4597650  90.4374880  14.3209870   7.2482780
  90.1521800  13.9565540   8.0861400  90.3753740  13.5890330   6.6345920
  95.3633760  18.6174820  13.4373520  95.0590830  19.4966800  13.6623880
  96.3180220  18.6774610  13.4730960  93.8915550  22.8235810   4.0340370
  93.1177810  22.2833430   3.8739090  94.6210180  22.3042420   3.6958130
 104.6503530  21.8201170   9.8266760 105.3702650  22.3156460   9.4362870
 104.4485350  21.1419060   9.1820630 100.1113470  13.2139130   3.9696150
  99.2978080  12.7152300   3.8941460  99.9175420  14.0537380   3.5532500
 100.0322330  21.8910230  15.7135760  99.9659640  20.9705900  15.4593350
  99.4027470  21.9885670  16.4280400 102.8261860  17.5858780   2.2658310
 103.7141480  17.8976010   2.0909650 102.7966950  16.7131030   1.8738890
  93.9352950  22.4916190   7.6719180  94.4531620  21.6884450   7.6176070
  93.4836970  22.4295330   8.5136010  98.8222450  23.7582470   2.9446480
  99.1638150  24.5024700   2.4489800  97.9935160  24.0713590   3.3071310
  91.4197490  19.4577560  14.5844880  91.0612430  20.1231410  15.1718220
  91.1252050  18.6261110  14.9557500  94.6210610  19.9161800  17.4684430
  94.3210750  20.0618980  16.5712250  95.3921850  19.3567090  17.3757820
  99.9639060  24.7130800  15.4639560  99.9783600  23.7811760  15.2458470
  99.2564160  24.7990560  16.1029330 106.1750270  21.3538140  14.8108140
 105.4498460  21.9466920  14.6137530 106.7025730  21.3461680  14.0121510
 106.1263380  25.7512880   4.4620300 105.4839540  25.0968500   4.7364020
 105.7394040  26.1567970   3.6860970 101.7049860  23.0798310   8.3091990
 102.0573680  22.4826440   7.6493360 100.8212190  22.7542540   8.4800240
  97.7913140  23.8396000   5.7162400  98.4784270  24.3865210   6.0969990
  97.0045560  24.3836730   5.7512010  97.0940350  20.8442030   5.3287760
  97.5503130  21.6547280   5.5547950  96.7428560  20.5265170   6.1606250
  99.3972960  26.3548370  12.5580060 100.0415180  26.5607750  13.2353480
  99.7602400  25.5936770  12.1050910  92.9952130  11.1879680   5.8010280
  92.8666760  11.1797580   6.7495200  92.1714150  11.5262770   5.4501290
 100.6705040  24.3580720  11.2757510 101.3127270  23.6573880  11.3889680
 101.1954390  25.1379160  11.0954400 102.4442660  25.1575620  14.4793570
 102.7798900  25.7442310  15.1571490 101.5243000  25.0268330  14.7091360
  89.9946060  12.9470800  15.2616980  89.2804580  13.1467720  15.8669590
  90.4141100  12.1710370  15.6331780 104.0977010  22.5601280   2.6610810
 103.8098710  23.0213970   3.4488690 104.8929180  22.0999050   2.9295030
  90.2818650  26.9351060  16.2483510  90.3909770  25.9945800  16.1078900
  89.6299210  27.2005810  15.5997240  98.2731240  25.2066950  17.6481630
  97.9528110  24.4876190  18.1927320  97.5989600  25.8822020  17.7217690
  96.3145410  26.0527400   2.5914780  96.3055510  26.7857090   1.9759290
  95.3943770  25.8058980   2.6841740  91.9152050  21.2742290   3.3361540
  91.3080000  22.0141190   3.3456840  92.3901400  21.3641650   2.5099740
 101.4884840  15.4393110  13.0118430 101.8565660  14.6188320  13.3398000
 100.6283040  15.4995000  13.4274080 104.8546870  14.3950050   3.8205990
 104.2260030  14.4995720   3.1064220 104.3598790  14.6146830   4.6099870
  96.8230900  16.6736000   5.2363870  96.1147050  17.1422340   5.6777480
  97.1075380  16.0158010   5.8709060  98.4486830  18.0932700  13.2356400
  98.9472080  18.5678520  13.9008250  98.5909780  17.1696220  13.4426430
 100.8546330  13.3986660   6.6759660 100.7314110  13.4172790   5.7269170
 101.8030890  13.4465600   6.7958060  97.9423120  28.6341960   5.9487640
  98.1964620  28.5963350   5.0267010  96.9935600  28.5075290   5.9415890
  95.0265920  14.9821080   2.6114580  95.8756450  15.4191230   2.5454770
  94.6597190  15.2941340   3.4386640 105.6553690  14.3100660  14.0784790
 105.1527290  15.0506060  14.4178600 106.4710350  14.6984660  13.7621580
 103.9475700  19.5533840   7.5246150 103.0065840  19.5684070   7.6993840
 104.2619770  18.7669800   7.9706450  92.6204100  18.6678510   1.7683000
  92.7007690  17.7206020   1.8800400  93.5123850  18.9985390   1.8743660
 105.9501280  26.7242690   9.2000410 106.0748700  27.5473860   9.6724220
 106.8166840  26.5133420   8.8524560  93.4218810  28.8173900   8.8717540
  94.1581290  28.2689360   9.1426110  93.8059730  29.6829910   8.7323530
  90.3064290  24.8847470   4.7459050  89.3804070  25.1268610   4.7364460
  90.7720720  25.7121730   4.6243800  92.4277090  28.0019970  18.0603120
  93.2289820  28.3232020  18.4738520  91.9128910  27.6415550  18.7823030
 101.2641720  24.1099840  18.0078530 100.6579880  24.1331440  17.2674280
 100.9595830  23.3782880  18.5445780 102.6942090  27.8380130  16.6187940
 103.6463840  27.7538150  16.5688180 102.5470310  28.5021840  17.2921730
 105.5851290  27.2174340   2.1179850 105.2992800  26.8039480   1.3034030
 105.3870840  28.1462050   1.9980370  90.1474900  20.4893430  17.0039170
  90.6513920  19.9100710  17.5755400  89.4082320  20.7733660  17.5415540
  97.2012840  21.8964420  16.5374690  96.4358510  22.4649420  16.4529360
  97.3828800  21.6040630  15.6442920 104.3436190  23.6269750  17.0949710
 105.0845660  23.9645510  16.5917170 103.5808870  23.7961810  16.5419480
  92.1797980  18.6323020  17.8989240  92.2203320  18.3336890  18.8074470
  93.0343480  19.0330630  17.7396760  95.9576370  21.2318570   3.0592750
  96.3792790  21.0658440   3.9024140  96.0827210  20.4218800   2.5647890
  94.1203790  17.2115120  15.8663730  93.5900250  16.7206070  15.2387070
  94.7891860  17.6399320  15.3321660 103.0181850  21.6784580  15.6304920
 103.4322870  21.8329660  16.4795340 102.0832850  21.8039800  15.7930700
 103.4904020  19.0180740  17.6344070 104.0724790  18.2633060  17.5464550
 103.6665790  19.5488180  16.8575550  94.6076090  14.1777490  15.9461020
  94.5132960  13.5598240  15.2211890  94.0273480  14.9043780  15.7190930
  97.3737530  12.7350730  12.9788410  96.9254830  12.7574990  12.1333960
  96.7402730  12.3369750  13.5758710  97.7797080  21.6305060  13.6000850
  98.1985190  22.4737790  13.4277090  96.8605710  21.7677100  13.3707630
 100.1160980  19.3621240  14.9838690 100.2357190  18.7662380  15.7233530
 100.9754980  19.3990930  14.5639990 102.4548880  19.9158430  13.5601200
 101.9284100  20.4401050  12.9566340 102.7980220  20.5485820  14.1910930
  95.6304500  27.9358070  14.7158580  95.0925590  28.6604130  14.3967280
  95.8838460  27.4588410  13.9255920  96.8829750  15.9042590  16.2414510
  97.4729440  15.5958440  16.9292330  96.0649990  15.4322340  16.3974410
 101.7023180  15.5208400  16.4747530 101.0138700  14.8589940  16.4097520
 102.4229200  15.0746670  16.9195990 102.3323580  12.1160030   2.5337790
 102.6125870  11.2727930   2.8897210 101.5589310  12.3483140   3.0476540
  98.4866710  29.1709280  14.9745230  98.4125410  30.0744420  15.2817600
  97.5845550  28.8521180  14.9467300  99.0352040  28.3367790   2.5971590
  99.9302830  28.6752760   2.6190350  99.0669670  27.6147200   1.9695870
  89.8894000  26.4983870   8.2778850  90.2197010  25.6304930   8.0457490
  90.3185000  26.7042390   9.1083810  94.4855920  24.8292880   5.9380820
  94.1851460  24.7057850   6.8384730  94.3793410  23.9701470   5.5296550
  90.3784210  27.3654460  11.0160480  89.9415200  27.5455260  11.8484630
  90.9461890  28.1229080  10.8742200 106.0146390  26.8671460  15.3037790
 105.4148380  26.9264020  14.5601710 106.1440290  25.9276440  15.4334640
 106.7104300  21.3536760   3.1441700 107.4723210  21.9233410   3.2501390
 106.7258670  20.7863960   3.9150010  90.2108640  19.8774690   7.3749360
  89.5557480  19.6086330   6.7309060  91.0486590  19.7679170   6.9251340
 107.7164270  22.2086860   7.9883630 108.0873100  21.4254180   7.5819600
 108.3566200  22.8975960   7.8100930 104.6998030  23.5923440  13.4013950
 103.8857870  24.0220600  13.6639740 105.1072230  24.2041850  12.7883000
 106.6588810  19.5840120   5.2943650 106.2832410  18.8168050   4.8624940
 105.9291930  19.9662820   5.7818580  91.2484570  20.2627260  11.9152700
  91.6157610  20.1754660  12.7948720  90.6795390  19.4993810  11.8159560
 106.0488430  18.7311640  14.9283170 105.8174520  18.5024390  14.0281120
 106.3092980  19.6511190  14.8828060  90.8000570  17.1736350  15.8211120
  89.9056620  17.1403110  16.1604830  91.3398120  17.3723140  16.5862370
 104.4876500  13.9568070  17.7062870 105.3646680  13.9651470  18.0896870
 104.4997340  13.2198910  17.0955220  89.4246720  17.0873620   3.3174690
  88.5210800  17.3503820   3.1426350  89.9087340  17.3584790   2.5374650
 105.9339770  17.8097610   8.5950890 106.4577250  17.3160260   7.9641060
 106.5199190  17.9447970   9.3398460 106.1129490  17.8937480  12.1170440
 105.1632200  17.8601020  12.2315430 106.2942500  18.8037590  11.8820210
 105.4239740  17.0670960   4.5343300 105.9198860  16.8341830   5.3192180
 105.2255810  16.2282800   4.1180940  91.3040280  11.4484680  10.1694340
  91.9516470  10.8982060   9.7289500  91.7242120  11.7027830  10.9910150
 106.8526900  15.7031910   7.0680980 106.7426180  15.5487950   8.0063250
 107.6134490  15.1752850   6.8256390 105.1992620  11.6426040  13.5263980
 105.8364840  12.2560180  13.8923170 105.3467510  11.6786700  12.5813210
 107.8155660  14.3050490   2.9343830 107.0207160  14.2395610   3.4636740
 108.0198940  15.2401130   2.9229180 104.7574080  28.3442040   6.9282220
 105.3533150  28.0226610   6.2516640 105.0152230  27.8713860   7.7195490
  91.0572280  11.6040350  12.9119660  90.7087100  12.0604170  13.6777840
  90.7259980  10.7097480  12.9942090  92.6636650  24.7759950  17.0772850
  92.6206280  24.4052860  17.9587310  92.7947660  25.7137520  17.2174670
  96.3642680  26.3319540  12.6782570  96.1234040  26.5994100  11.7913090
  97.3045320  26.5025270  12.7333430  98.5697100  12.7952230  16.4339080
  98.5085990  13.3874060  17.1834490  99.5097480  12.6878190  16.2889340
 101.2071660  12.4522290  16.0731370 101.8212070  12.7701580  15.4112450
 101.7521220  11.9670880  16.6927230 107.6246840  28.3513920  13.4793210
 107.1305120  28.7482790  12.7620340 107.0160130  27.7263130  13.8730490
  91.7292920  11.1316550  16.1870430  92.2775910  10.9504600  15.4236540
  91.7948230  10.3410660  16.7226740  92.5024680  27.7222200  14.1970630
  91.9085000  27.5906900  14.9360670  92.4948520  26.8860340  13.7312730
 101.9479700  11.0154430  12.4000660 101.0739540  11.3489540  12.1973590
 101.8390450  10.5427610  13.2252530 102.8551680  13.2225300  13.7842380
 102.5265040  12.4077060  13.4044110 103.8033980  13.1795110  13.6608070
 105.3086290  28.9937340  10.7579950 104.8489260  29.7453150  10.3837970
 104.6798750  28.2743810  10.6994750  92.1336910  25.0880580  13.1478670
  91.4070970  24.4685870  13.0804620  92.1946060  25.4821190  12.2776750
  95.7382010  27.3025580   9.9328080  96.2547030  26.6912940   9.4076340
  96.3879390  27.8054360  10.4239090  98.4777510  28.1934070  10.7597060
  98.7655320  27.9388370   9.8830070  98.9900730  27.6411430  11.3502630
  99.6954520  11.9324270  11.3393570  98.9126310  12.4069770  11.6190330
  99.4017450  11.0279100  11.2306750 104.2475590  12.6347370   9.3842660
 104.6883680  12.5792470   8.5364260 103.9783180  13.5505380   9.4552840
 106.1114160  12.2662610   7.3951480 106.0502560  11.3223830   7.2482500
 106.8906190  12.3742700   7.9404940  90.4166910  28.4054970   6.3575430
  90.2488950  27.7725650   7.0557320  89.5501420  28.6114370   6.0069620
  91.0394930  12.2371750   3.8607290  91.7974290  12.3500630   3.2871320
  90.5772100  13.0740950   3.8150720  97.5808740  14.3511020   6.8509600
  96.7683250  13.9767910   6.5105480  98.0850380  13.5956100   7.1530790
 102.0833720  11.0153470   8.0892670 102.6863090  11.5873680   8.5641190
 101.3426710  11.5792910   7.8666570 105.2268320  11.4175030   3.3632950
 105.4218950  12.3158480   3.6300380 104.4398190  11.1862110   3.8565900
  92.0229610  27.0988200   3.8025570  91.4977230  27.4796230   3.0987530
  91.9474190  27.7238970   4.5235280  93.4120080  12.7635800   2.4009260
  93.9412840  11.9765600   2.2717210  94.0448400  13.4426990   2.6344790
  95.6057920  12.5010940   5.4554650  94.9760660  11.7998250   5.6224780
  95.0663060  13.2615070   5.2387810  98.5449870  29.1150170  18.1265260
  99.4717180  28.8794440  18.1701220  98.5300300  29.9422170  17.6451290
 106.7794930  28.6575740   5.1239510 106.9547120  27.9713480   4.4800430
 106.0816500  29.1822790   4.7316180  95.7313480  11.7794920  17.8907140
  95.4497750  12.2828520  17.1267960  96.1133180  10.9816670  17.5249270
  94.6222580  29.0470580   2.6774820  95.3541400  28.7629860   2.1298710
  94.8816250  28.8083860   3.5674200  93.7837370  25.1635310   2.6821150
  93.1546250  25.6320410   3.2306980  93.8985200  24.3184530   3.1167340
 102.3328940  11.1948500  18.4687610 102.2194390  11.5143110  19.3639130
 103.1498680  11.5961010  18.1724890 105.1127430  28.3420030  17.9506300
 105.9052750  27.8469260  17.7432260 105.4060580  29.0210170  18.5581910
  99.3705130   2.2176500 103.3592560  98.5947230   1.7376940 103.6491130
 100.0218060   1.5382150 103.1848720  93.3870960   2.5296310 104.2368320
  92.5555840   2.2745020 104.6364830  93.9951940   2.6007080 104.9726240
 103.3912560   6.6236690 102.1391690 102.9294090   5.8523930 102.4678860
 104.2038110   6.6502760 102.6444140  93.3672220   6.5636400 104.4326340
  93.6700260   5.6734140 104.2536560  94.1115810   7.1206620 104.2048590
  99.6175870   8.9094700 101.7595680  98.9987310   9.3652200 101.1890120
 100.4727650   9.0646160 101.3585380  98.8114120   4.8933690 103.3662720
  98.7422400   3.9523630 103.2051850  99.5733980   4.9835100 103.9385290
 100.4839220   3.7933940  99.1527590  99.8656490   4.2583390  98.5890310
 100.9962470   4.4861420  99.5697100  95.3470980   3.3209810 105.8311190
  95.0140360   3.9478730 106.4732260  95.5237660   3.8471690 105.0512860
  94.5590080   5.2890610 107.6460370  95.1764080   5.9641690 107.3644820
  93.6983200   5.6978590 107.5547870  89.8522420   4.4790470  96.5267220
  89.4750400   4.9677570  95.7952120  90.1095490   5.1515750  97.1573750
 105.4767670   6.7530020 105.5615010 104.7931190   7.4229130 105.5531680
 106.0161960   6.9510670 104.7959870 103.0126410   8.5974150 104.2760190
 103.0253570   8.1936440 103.4082450 102.4601630   9.3721440 104.1721620
 104.3071830   5.3190370  99.3650360 104.1968160   4.3764700  99.4899780
 104.3040080   5.6806010 100.2513120 102.4111850   3.5003990 105.6042800
 102.8280640   3.2864100 104.7696260 103.1351670   3.7576780 106.1751420
 106.3573950   1.8991210 105.6959040 105.5292580   1.9684300 105.2209170
 106.9524430   2.4845520 105.2274870 103.8789400   2.5075990  99.2248100
 103.2601820   2.1695540  98.5774400 103.8613850   1.8635750  99.9327290
  95.9230450   5.1587990 103.6671790  95.6258740   4.5533460 102.9879570
  96.8730270   5.1965300 103.5561150 104.0116060   8.7319860 107.3294890
 103.5346620   9.5392050 107.1367500 103.3277850   8.0798190 107.4821100
  95.0148880   4.8969680 110.3179590  94.1177410   5.1209650 110.5652990
  95.0401750   5.0204620 109.3690990  93.8420100   1.7683000 108.8936960
  93.7027870   2.6405800 109.2624360  92.9601460   1.4255810 108.7484900
 100.1649480   6.6858870 100.2002090 100.6045390   7.4283200  99.7857480
 100.1036370   6.9285440 101.1241050  89.7938750   3.5380550 104.8107870
  89.8719170   3.6729320 103.8663590  90.4080430   2.8296440 105.0035990
  91.0386380   5.2380740 101.2214050  90.6314460   5.3795330 100.3667650
  91.9299390   4.9540900 101.0185260 106.9948520   5.6844650 109.5586290
 107.1211580   5.4456530 108.6403470 107.0369900   4.8529190 110.0308370
 100.8565260   9.3872650 108.1281100 101.3709930   9.2980660 108.9303530
 100.0134340   9.7332350 108.4209010 102.8319660   9.6727990  97.5565100
 102.6720800   9.3830930  98.4546930 102.6666370   8.8968120  97.0210330
  95.3108040   9.4526520  99.3336720  95.1350520   8.5362060  99.1204520
  94.4563780   9.8113810  99.5734520 102.5345790   7.1815550  96.1163100
 101.8410950   7.1792840  95.4565380 103.2768650   6.7574870  95.6857270
 102.0995720   8.8078260 100.1911590 102.5552670   8.0267640 100.5050210
 102.4388240   9.5185080 100.7352770  89.8498270   4.5794720 107.3502330
  90.0129310   4.1100080 106.5321700  90.3150720   4.0718280 108.0151170
  91.4237250   3.9546150 109.5098140  91.0392040   3.3139820 110.1081100
  91.7349440   4.6582270 110.0792870  93.8915550   4.0492320  97.9057820
  93.1177810   3.5089940  97.7456540  94.6210180   3.5298930  97.5675580
 104.6503530   3.0457680 103.6984210 105.3702650   3.5412970 103.3080320
 104.4485350   2.3675570 103.0538080 100.0322330   3.1166740 109.5853210
  99.9659640   2.1962410 109.3310800  99.4027470   3.2142180 110.2997850
  93.9352950   3.7172700 101.5436630  94.4531620   2.9140960 101.4893520
  93.4836970   3.6551840 102.3853460  98.8222450   4.9838980  96.8163930
  99.1638150   5.7281210  96.3207250  97.9935160   5.2970100  97.1788760
  99.9639060   5.9387310 109.3357010  99.9783600   5.0068270 109.1175920
  99.2564160   6.0247070 109.9746780 106.1750270   2.5794650 108.6825590
 105.4498460   3.1723430 108.4854980 106.7025730   2.5718190 107.8838960
 106.1263380   6.9769390  98.3337750 105.4839540   6.3225010  98.6081470
 105.7394040   7.3824480  97.5578420 101.7049860   4.3054820 102.1809440
 102.0573680   3.7082950 101.5210810 100.8212190   3.9799050 102.3517690
  97.7913140   5.0652510  99.5879850  98.4784270   5.6121720  99.9687440
  97.0045560   5.6093240  99.6229460  97.0940350   2.0698540  99.2005210
  97.5503130   2.8803790  99.4265400  96.7428560   1.7521680 100.0323700
  99.3972960   7.5804880 106.4297510 100.0415180   7.7864260 107.1070930
  99.7602400   6.8193280 105.9768360 100.6705040   5.5837230 105.1474960
 101.3127270   4.8830390 105.2607130 101.1954390   6.3635670 104.9671850
 104.5160760   5.8685850  94.8714100 104.2898340   5.1516290  95.4638740
 104.1256960   5.6198290  94.0335850 102.4442660   6.3832130 108.3511020
 102.7798900   6.9698820 109.0288940 101.5243000   6.2524840 108.5808810
  90.2976790   9.8952710  95.6458560  90.6574430  10.4942050  94.9915830
  90.1569130  10.4412600  96.4193590 104.0977010   3.7857790  96.5328260
 103.8098710   4.2470480  97.3206140 104.8929180   3.3255560  96.8012480
  90.2818650   8.1607570 110.1200960  90.3909770   7.2202310 109.9796350
  89.6299210   8.4262320 109.4714690  96.3145410   7.2783910  96.4632230
  96.3055510   8.0113600  95.8476740  95.3943770   7.0315490  96.5559190
  91.9152050   2.4998800  97.2078990  91.3080000   3.2397700  97.2174290
  92.3901400   2.5898160  96.3817190  99.3005010   7.3412150  95.1257420
  99.4016990   7.1376140  94.1959400  98.4006750   7.0870430  95.3305200
  97.9423120   9.8598470  99.8205090  98.1964620   9.8219860  98.8984460
  96.9935600   9.7331800  99.8133340  93.9257340   2.4609950  94.9567560
  94.6920610   2.3491310  95.5192990  94.0032030   1.7647920  94.3044330
 105.9501280   7.9499200 103.0717860 106.0748700   8.7730370 103.5441670
 106.8166840   7.7389930 102.7242010  93.4218810  10.0430410 102.7434990
  94.1581290   9.4945870 103.0143560  93.8059730  10.9086420 102.6040980
  90.3064290   6.1103980  98.6176500  89.3804070   6.3525120  98.6081910
  90.7720720   6.9378240  98.4961250  96.5321120   9.2160720  94.5660560
  97.3249730   9.5049550  94.1142350  96.0125470   8.7852890  93.8873040
 105.5851290   8.4430850  95.9897300 105.2992800   8.0295990  95.1751480
 105.3870840   9.3718560  95.8697820  97.0498520   4.4364130  94.4302910
  96.9449160   3.8216480  95.1564290  96.8822740   3.9130020  93.6465920
  97.2012840   3.1220930 110.4092140  96.4358510   3.6905930 110.3246810
  97.3828800   2.8297140 109.5160370 100.2901250   3.4984160  95.0344900
  99.7411350   3.9453460  95.6787640 100.9120510   2.9933410  95.5582570
 104.3436190   4.8526260 110.9667160 105.0845660   5.1902020 110.4634620
 103.5808870   5.0218320 110.4136930  95.9576370   2.4575080  96.9310200
  96.3792790   2.2914950  97.7741590  96.0827210   1.6475310  96.4365340
 103.0181850   2.9041090 109.5022370 103.4322870   3.0586170 110.3512790
 102.0832850   3.0296310 109.6648150  97.7797080   2.8561570 107.4718300
  98.1985190   3.6994300 107.2994540  96.8605710   2.9933610 107.2425080
  95.6304500   9.1614580 108.5876030  95.0925590   9.8860640 108.2684730
  95.8838460   8.6844920 107.7973370  98.4866710  10.3965790 108.8462680
  98.4125410  11.3000930 109.1535050  97.5845550  10.0777690 108.8184750
  99.0352040   9.5624300  96.4689040  99.9302830   9.9009270  96.4907800
  99.0669670   8.8403710  95.8413320  92.6748200   4.9351350  94.6976040
  93.1123070   5.4781020  95.3533620  93.1595930   4.1098300  94.7072380
  89.8894000   7.7240380 102.1496300  90.2197010   6.8561440 101.9174940
  90.3185000   7.9298900 102.9801260  94.4855920   6.0549390  99.8098270
  94.1851460   5.9314360 100.7102180  94.3793410   5.1957980  99.4014000
  90.3784210   8.5910970 104.8877930  89.9415200   8.7711770 105.7202080
  90.9461890   9.3485590 104.7459650 106.0146390   8.0927970 109.1755240
 105.4148380   8.1520530 108.4319160 106.1440290   7.1532950 109.3052090
 107.2547840   5.8345790  94.5124950 106.4240800   5.9022440  94.9832180
 107.4319670   6.7249910  94.2091810 106.7104300   2.5793270  97.0159150
 107.4723210   3.1489920  97.1218840 106.7258670   2.0120470  97.7867460
 107.7164270   3.4343370 101.8601080 108.0873100   2.6510690 101.4537050
 108.3566200   4.1232470 101.6818380 104.6998030   4.8179950 107.2731400
 103.8857870   5.2477110 107.5357190 105.1072230   5.4298360 106.6600450
 106.7623470   2.8727640  94.1731670 107.0372310   3.7806520  94.0450890
 106.5734210   2.8090170  95.1093660 104.7574080   9.5698550 100.7999670
 105.3533150   9.2483120 100.1234090 105.0152230   9.0970370 101.5912940
  96.3642680   7.5576050 106.5500020  96.1234040   7.8250610 105.6630540
  97.3045320   7.7281780 106.6050880 107.6246840   9.5770430 107.3510660
 107.1305120   9.9739300 106.6337790 107.0160130   8.9519640 107.7447940
  92.5024680   8.9478710 108.0688080  91.9085000   8.8163410 108.8078120
  92.4948520   8.1116850 107.6030180 105.3086290  10.2193850 104.6297400
 104.8489260  10.9709660 104.2555420 104.6798750   9.5000320 104.5712200
  92.1336910   6.3137090 107.0196120  91.4070970   5.6942380 106.9522070
  92.1946060   6.7077700 106.1494200  95.7382010   8.5282090 103.8045530
  96.2547030   7.9169450 103.2793790  96.3879390   9.0310870 104.2956540
  98.4777510   9.4190580 104.6314510  98.7655320   9.1644880 103.7547520
  98.9900730   8.8667940 105.2220080  90.4166910   9.6311480 100.2292880
  90.2488950   8.9982160 100.9274770  89.5501420   9.8370880  99.8787070
  92.0229610   8.3244710  97.6743020  91.4977230   8.7052740  96.9704980
  91.9474190   8.9495480  98.3952730 106.7794930   9.8832250  98.9956960
 106.9547120   9.1969990  98.3517880 106.0816500  10.4079300  98.6033630
  94.6222580  10.2727090  96.5492270  95.3541400   9.9886370  96.0016160
  94.8816250  10.0340370  97.4391650  93.7837370   6.3891820  96.5538600
  93.1546250   6.8576920  97.1024430  93.8985200   5.5441040  96.9884790
  99.3705130   2.2176500  84.5849070  98.5947230   1.7376940  84.8747640
 100.0218060   1.5382150  84.4105230  93.3870960   2.5296310  85.4624830
  92.5555840   2.2745020  85.8621340  93.9951940   2.6007080  86.1982750
 103.3912560   6.6236690  83.3648200 102.9294090   5.8523930  83.6935370
 104.2038110   6.6502760  83.8700650  93.3672220   6.5636400  85.6582850
  93.6700260   5.6734140  85.4793070  94.1115810   7.1206620  85.4305100
  99.6175870   8.9094700  82.9852190  98.9987310   9.3652200  82.4146630
 100.4727650   9.0646160  82.5841890  98.8114120   4.8933690  84.5919230
  98.7422400   3.9523630  84.4308360  99.5733980   4.9835100  85.1641800
 100.4839220   3.7933940  80.3784100  99.8656490   4.2583390  79.8146820
 100.9962470   4.4861420  80.7953610  95.3470980   3.3209810  87.0567700
  95.0140360   3.9478730  87.6988770  95.5237660   3.8471690  86.2769370
  94.5590080   5.2890610  88.8716880  95.1764080   5.9641690  88.5901330
  93.6983200   5.6978590  88.7804380  89.8522420   4.4790470  77.7523730
  89.4750400   4.9677570  77.0208630  90.1095490   5.1515750  78.3830260
 105.4767670   6.7530020  86.7871520 104.7931190   7.4229130  86.7788190
 106.0161960   6.9510670  86.0216380 103.0126410   8.5974150  85.5016700
 103.0253570   8.1936440  84.6338960 102.4601630   9.3721440  85.3978130
 104.3071830   5.3190370  80.5906870 104.1968160   4.3764700  80.7156290
 104.3040080   5.6806010  81.4769630 102.4111850   3.5003990  86.8299310
 102.8280640   3.2864100  85.9952770 103.1351670   3.7576780  87.4007930
 106.3573950   1.8991210  86.9215550 105.5292580   1.9684300  86.4465680
 106.9524430   2.4845520  86.4531380 103.8789400   2.5075990  80.4504610
 103.2601820   2.1695540  79.8030910 103.8613850   1.8635750  81.1583800
  95.9230450   5.1587990  84.8928300  95.6258740   4.5533460  84.2136080
  96.8730270   5.1965300  84.7817660 104.0116060   8.7319860  88.5551400
 103.5346620   9.5392050  88.3624010 103.3277850   8.0798190  88.7077610
  95.0148880   4.8969680  91.5436100  94.1177410   5.1209650  91.7909500
  95.0401750   5.0204620  90.5947500  93.8420100   1.7683000  90.1193470
  93.7027870   2.6405800  90.4880870  92.9601460   1.4255810  89.9741410
 100.1649480   6.6858870  81.4258600 100.6045390   7.4283200  81.0113990
 100.1036370   6.9285440  82.3497560  95.6400450   7.7104700  92.3278620
  95.6115880   8.1147650  91.4607050  95.4765420   6.7815060  92.1650220
 107.5915270   8.4931800  93.6242790 108.0674990   8.9714690  94.3031870
 108.2122430   8.4249290  92.8988290  89.7938750   3.5380550  86.0364380
  89.8719170   3.6729320  85.0920100  90.4080430   2.8296440  86.2292500
  91.0386380   5.2380740  82.4470560  90.6314460   5.3795330  81.5924160
  91.9299390   4.9540900  82.2441770 106.9948520   5.6844650  90.7842800
 107.1211580   5.4456530  89.8659980 107.0369900   4.8529190  91.2564880
 100.8565260   9.3872650  89.3537610 101.3709930   9.2980660  90.1560040
 100.0134340   9.7332350  89.6465520 102.8319660   9.6727990  78.7821610
 102.6720800   9.3830930  79.6803440 102.6666370   8.8968120  78.2466840
  95.3108040   9.4526520  80.5593230  95.1350520   8.5362060  80.3461030
  94.4563780   9.8113810  80.7991030 102.5345790   7.1815550  77.3419610
 101.8410950   7.1792840  76.6821890 103.2768650   6.7574870  76.9113780
 102.0995720   8.8078260  81.4168100 102.5552670   8.0267640  81.7306720
 102.4388240   9.5185080  81.9609280  89.8498270   4.5794720  88.5758840
  90.0129310   4.1100080  87.7578210  90.3150720   4.0718280  89.2407680
  91.4237250   3.9546150  90.7354650  91.0392040   3.3139820  91.3337610
  91.7349440   4.6582270  91.3049380  93.8915550   4.0492320  79.1314330
  93.1177810   3.5089940  78.9713050  94.6210180   3.5298930  78.7932090
 104.6503530   3.0457680  84.9240720 105.3702650   3.5412970  84.5336830
 104.4485350   2.3675570  84.2794590 100.0322330   3.1166740  90.8109720
  99.9659640   2.1962410  90.5567310  99.4027470   3.2142180  91.5254360
  93.9352950   3.7172700  82.7693140  94.4531620   2.9140960  82.7150030
  93.4836970   3.6551840  83.6109970  98.8222450   4.9838980  78.0420440
  99.1638150   5.7281210  77.5463760  97.9935160   5.2970100  78.4045270
  99.9639060   5.9387310  90.5613520  99.9783600   5.0068270  90.3432430
  99.2564160   6.0247070  91.2003290 106.1750270   2.5794650  89.9082100
 105.4498460   3.1723430  89.7111490 106.7025730   2.5718190  89.1095470
 106.1263380   6.9769390  79.5594260 105.4839540   6.3225010  79.8337980
 105.7394040   7.3824480  78.7834930 101.7049860   4.3054820  83.4065950
 102.0573680   3.7082950  82.7467320 100.8212190   3.9799050  83.5774200
  97.7913140   5.0652510  80.8136360  98.4784270   5.6121720  81.1943950
  97.0045560   5.6093240  80.8485970  97.0940350   2.0698540  80.4261720
  97.5503130   2.8803790  80.6521910  96.7428560   1.7521680  81.2580210
  99.3972960   7.5804880  87.6554020 100.0415180   7.7864260  88.3327440
  99.7602400   6.8193280  87.2024870 100.6705040   5.5837230  86.3731470
 101.3127270   4.8830390  86.4863640 101.1954390   6.3635670  86.1928360
 104.5160760   5.8685850  76.0970610 104.2898340   5.1516290  76.6895250
 104.1256960   5.6198290  75.2592360 102.4442660   6.3832130  89.5767530
 102.7798900   6.9698820  90.2545450 101.5243000   6.2524840  89.8065320
  90.2976790   9.8952710  76.8715070  90.6574430  10.4942050  76.2172340
  90.1569130  10.4412600  77.6450100 104.0977010   3.7857790  77.7584770
 103.8098710   4.2470480  78.5462650 104.8929180   3.3255560  78.0268990
  90.2818650   8.1607570  91.3457470  90.3909770   7.2202310  91.2052860
  89.6299210   8.4262320  90.6971200  98.2731240   6.4323460  92.7455590
  97.9528110   5.7132700  93.2901280  97.5989600   7.1078530  92.8191650
  96.3145410   7.2783910  77.6888740  96.3055510   8.0113600  77.0733250
  95.3943770   7.0315490  77.7815700  91.9152050   2.4998800  78.4335500
  91.3080000   3.2397700  78.4430800  92.3901400   2.5898160  77.6073700
  99.3005010   7.3412150  76.3513930  99.4016990   7.1376140  75.4215910
  98.4006750   7.0870430  76.5561710  97.9423120   9.8598470  81.0461600
  98.1964620   9.8219860  80.1240970  96.9935600   9.7331800  81.0389850
  93.9257340   2.4609950  76.1824070  94.6920610   2.3491310  76.7449500
  94.0032030   1.7647920  75.5300840 105.9501280   7.9499200  84.2974370
 106.0748700   8.7730370  84.7698180 106.8166840   7.7389930  83.9498520
  93.4218810  10.0430410  83.9691500  94.1581290   9.4945870  84.2400070
  93.8059730  10.9086420  83.8297490  90.3064290   6.1103980  79.8433010
  89.3804070   6.3525120  79.8338420  90.7720720   6.9378240  79.7217760
  92.4277090   9.2276480  93.1577080  93.2289820   9.5488530  93.5712480
  91.9128910   8.8672060  93.8796990  96.5321120   9.2160720  75.7917070
  97.3249730   9.5049550  75.3398860  96.0125470   8.7852890  75.1129550
 101.2641720   5.3356350  93.1052490 100.6579880   5.3587950  92.3648240
 100.9595830   4.6039390  93.6419740 102.6942090   9.0636640  91.7161900
 103.6463840   8.9794660  91.6662140 102.5470310   9.7278350  92.3895690
 105.5851290   8.4430850  77.2153810 105.2992800   8.0295990  76.4007990
 105.3870840   9.3718560  77.0954330  97.0498520   4.4364130  75.6559420
  96.9449160   3.8216480  76.3820800  96.8822740   3.9130020  74.8722430
  97.2012840   3.1220930  91.6348650  96.4358510   3.6905930  91.5503320
  97.3828800   2.8297140  90.7416880 100.2901250   3.4984160  76.2601410
  99.7411350   3.9453460  76.9044150 100.9120510   2.9933410  76.7839080
 104.3436190   4.8526260  92.1923670 105.0845660   5.1902020  91.6891130
 103.5808870   5.0218320  91.6393440  95.9576370   2.4575080  78.1566710
  96.3792790   2.2914950  78.9998100  96.0827210   1.6475310  77.6621850
 103.0181850   2.9041090  90.7278880 103.4322870   3.0586170  91.5769300
 102.0832850   3.0296310  90.8904660  97.7797080   2.8561570  88.6974810
  98.1985190   3.6994300  88.5251050  96.8605710   2.9933610  88.4681590
  95.6304500   9.1614580  89.8132540  95.0925590   9.8860640  89.4941240
  95.8838460   8.6844920  89.0229880  98.4866710  10.3965790  90.0719190
  98.4125410  11.3000930  90.3791560  97.5845550  10.0777690  90.0441260
  99.0352040   9.5624300  77.6945550  99.9302830   9.9009270  77.7164310
  99.0669670   8.8403710  77.0669830  92.6748200   4.9351350  75.9232550
  93.1123070   5.4781020  76.5790130  93.1595930   4.1098300  75.9328890
  89.8894000   7.7240380  83.3752810  90.2197010   6.8561440  83.1431450
  90.3185000   7.9298900  84.2057770  94.4855920   6.0549390  81.0354780
  94.1851460   5.9314360  81.9358690  94.3793410   5.1957980  80.6270510
  90.3784210   8.5910970  86.1134440  89.9415200   8.7711770  86.9458590
  90.9461890   9.3485590  85.9716160 106.0146390   8.0927970  90.4011750
 105.4148380   8.1520530  89.6575670 106.1440290   7.1532950  90.5308600
 107.2547840   5.8345790  75.7381460 106.4240800   5.9022440  76.2088690
 107.4319670   6.7249910  75.4348320 106.7104300   2.5793270  78.2415660
 107.4723210   3.1489920  78.3475350 106.7258670   2.0120470  79.0123970
 107.7164270   3.4343370  83.0857590 108.0873100   2.6510690  82.6793560
 108.3566200   4.1232470  82.9074890 104.6998030   4.8179950  88.4987910
 103.8857870   5.2477110  88.7613700 105.1072230   5.4298360  87.8856960
 106.7623470   2.8727640  75.3988180 107.0372310   3.7806520  75.2707400
 106.5734210   2.8090170  76.3350170 104.7574080   9.5698550  82.0256180
 105.3533150   9.2483120  81.3490600 105.0152230   9.0970370  82.8169450
  92.6636650   6.0016460  92.1746810  92.6206280   5.6309370  93.0561270
  92.7947660   6.9394030  92.3148630  96.3642680   7.5576050  87.7756530
  96.1234040   7.8250610  86.8887050  97.3045320   7.7281780  87.8307390
 107.6246840   9.5770430  88.5767170 107.1305120   9.9739300  87.8594300
 107.0160130   8.9519640  88.9704450  92.5024680   8.9478710  89.2944590
  91.9085000   8.8163410  90.0334630  92.4948520   8.1116850  88.8286690
 105.3086290  10.2193850  85.8553910 104.8489260  10.9709660  85.4811930
 104.6798750   9.5000320  85.7968710  92.1336910   6.3137090  88.2452630
  91.4070970   5.6942380  88.1778580  92.1946060   6.7077700  87.3750710
  95.7382010   8.5282090  85.0302040  96.2547030   7.9169450  84.5050300
  96.3879390   9.0310870  85.5213050  98.4777510   9.4190580  85.8571020
  98.7655320   9.1644880  84.9804030  98.9900730   8.8667940  86.4476590
  90.4166910   9.6311480  81.4549390  90.2488950   8.9982160  82.1531280
  89.5501420   9.8370880  81.1043580  92.0229610   8.3244710  78.8999530
  91.4977230   8.7052740  78.1961490  91.9474190   8.9495480  79.6209240
  98.5449870  10.3406680  93.2239220  99.4717180  10.1050950  93.2675180
  98.5300300  11.1678680  92.7425250 106.7794930   9.8832250  80.2213470
 106.9547120   9.1969990  79.5774390 106.0816500  10.4079300  79.8290140
  94.6222580  10.2727090  77.7748780  95.3541400   9.9886370  77.2272670
  94.8816250  10.0340370  78.6648160  93.7837370   6.3891820  77.7795110
  93.1546250   6.8576920  78.3280940  93.8985200   5.5441040  78.2141300
 105.1127430   9.5676540  93.0480260 105.9052750   9.0725770  92.8406220
 105.4060580  10.2466680  93.6555870  99.3705130   2.2176500  65.8105580
  98.5947230   1.7376940  66.1004150 100.0218060   1.5382150  65.6361740
  93.3870960   2.5296310  66.6881340  92.5555840   2.2745020  67.0877850
  93.9951940   2.6007080  67.4239260 103.3912560   6.6236690  64.5904710
 102.9294090   5.8523930  64.9191880 104.2038110   6.6502760  65.0957160
  93.3672220   6.5636400  66.8839360  93.6700260   5.6734140  66.7049580
  94.1115810   7.1206620  66.6561610  99.6175870   8.9094700  64.2108700
  98.9987310   9.3652200  63.6403140 100.4727650   9.0646160  63.8098400
  98.8114120   4.8933690  65.8175740  98.7422400   3.9523630  65.6564870
  99.5733980   4.9835100  66.3898310 100.4839220   3.7933940  61.6040610
  99.8656490   4.2583390  61.0403330 100.9962470   4.4861420  62.0210120
  95.3470980   3.3209810  68.2824210  95.0140360   3.9478730  68.9245280
  95.5237660   3.8471690  67.5025880  94.5590080   5.2890610  70.0973390
  95.1764080   5.9641690  69.8157840  93.6983200   5.6978590  70.0060890
  89.8522420   4.4790470  58.9780240  89.4750400   4.9677570  58.2465140
  90.1095490   5.1515750  59.6086770 105.4767670   6.7530020  68.0128030
 104.7931190   7.4229130  68.0044700 106.0161960   6.9510670  67.2472890
 103.0126410   8.5974150  66.7273210 103.0253570   8.1936440  65.8595470
 102.4601630   9.3721440  66.6234640 104.3071830   5.3190370  61.8163380
 104.1968160   4.3764700  61.9412800 104.3040080   5.6806010  62.7026140
 102.4111850   3.5003990  68.0555820 102.8280640   3.2864100  67.2209280
 103.1351670   3.7576780  68.6264440 106.3573950   1.8991210  68.1472060
 105.5292580   1.9684300  67.6722190 106.9524430   2.4845520  67.6787890
 103.8789400   2.5075990  61.6761120 103.2601820   2.1695540  61.0287420
 103.8613850   1.8635750  62.3840310  95.9230450   5.1587990  66.1184810
  95.6258740   4.5533460  65.4392590  96.8730270   5.1965300  66.0074170
 104.0116060   8.7319860  69.7807910 103.5346620   9.5392050  69.5880520
 103.3277850   8.0798190  69.9334120  95.0148880   4.8969680  72.7692610
  94.1177410   5.1209650  73.0166010  95.0401750   5.0204620  71.8204010
  93.8420100   1.7683000  71.3449980  93.7027870   2.6405800  71.7137380
  92.9601460   1.4255810  71.1997920 100.1649480   6.6858870  62.6515110
 100.6045390   7.4283200  62.2370500 100.1036370   6.9285440  63.5754070
  95.6400450   7.7104700  73.5535130  95.6115880   8.1147650  72.6863560
  95.4765420   6.7815060  73.3906730 107.5915270   8.4931800  74.8499300
 108.0674990   8.9714690  75.5288380 108.2122430   8.4249290  74.1244800
  89.7938750   3.5380550  67.2620890  89.8719170   3.6729320  66.3176610
  90.4080430   2.8296440  67.4549010  91.0386380   5.2380740  63.6727070
  90.6314460   5.3795330  62.8180670  91.9299390   4.9540900  63.4698280
 106.9948520   5.6844650  72.0099310 107.1211580   5.4456530  71.0916490
 107.0369900   4.8529190  72.4821390 100.8565260   9.3872650  70.5794120
 101.3709930   9.2980660  71.3816550 100.0134340   9.7332350  70.8722030
 102.8319660   9.6727990  60.0078120 102.6720800   9.3830930  60.9059950
 102.6666370   8.8968120  59.4723350  95.3108040   9.4526520  61.7849740
  95.1350520   8.5362060  61.5717540  94.4563780   9.8113810  62.0247540
 102.5345790   7.1815550  58.5676120 101.8410950   7.1792840  57.9078400
 103.2768650   6.7574870  58.1370290 102.0995720   8.8078260  62.6424610
 102.5552670   8.0267640  62.9563230 102.4388240   9.5185080  63.1865790
  89.8498270   4.5794720  69.8015350  90.0129310   4.1100080  68.9834720
  90.3150720   4.0718280  70.4664190  91.4237250   3.9546150  71.9611160
  91.0392040   3.3139820  72.5594120  91.7349440   4.6582270  72.5305890
  93.8915550   4.0492320  60.3570840  93.1177810   3.5089940  60.1969560
  94.6210180   3.5298930  60.0188600 104.6503530   3.0457680  66.1497230
 105.3702650   3.5412970  65.7593340 104.4485350   2.3675570  65.5051100
 100.0322330   3.1166740  72.0366230  99.9659640   2.1962410  71.7823820
  99.4027470   3.2142180  72.7510870  93.9352950   3.7172700  63.9949650
  94.4531620   2.9140960  63.9406540  93.4836970   3.6551840  64.8366480
  98.8222450   4.9838980  59.2676950  99.1638150   5.7281210  58.7720270
  97.9935160   5.2970100  59.6301780  99.9639060   5.9387310  71.7870030
  99.9783600   5.0068270  71.5688940  99.2564160   6.0247070  72.4259800
 106.1750270   2.5794650  71.1338610 105.4498460   3.1723430  70.9368000
 106.7025730   2.5718190  70.3351980 106.1263380   6.9769390  60.7850770
 105.4839540   6.3225010  61.0594490 105.7394040   7.3824480  60.0091440
 101.7049860   4.3054820  64.6322460 102.0573680   3.7082950  63.9723830
 100.8212190   3.9799050  64.8030710  97.7913140   5.0652510  62.0392870
  98.4784270   5.6121720  62.4200460  97.0045560   5.6093240  62.0742480
  97.0940350   2.0698540  61.6518230  97.5503130   2.8803790  61.8778420
  96.7428560   1.7521680  62.4836720  99.3972960   7.5804880  68.8810530
 100.0415180   7.7864260  69.5583950  99.7602400   6.8193280  68.4281380
 100.6705040   5.5837230  67.5987980 101.3127270   4.8830390  67.7120150
 101.1954390   6.3635670  67.4184870 104.5160760   5.8685850  57.3227120
 104.2898340   5.1516290  57.9151760 104.1256960   5.6198290  56.4848870
 102.4442660   6.3832130  70.8024040 102.7798900   6.9698820  71.4801960
 101.5243000   6.2524840  71.0321830  90.2976790   9.8952710  58.0971580
  90.6574430  10.4942050  57.4428850  90.1569130  10.4412600  58.8706610
 104.0977010   3.7857790  58.9841280 103.8098710   4.2470480  59.7719160
 104.8929180   3.3255560  59.2525500  90.2818650   8.1607570  72.5713980
  90.3909770   7.2202310  72.4309370  89.6299210   8.4262320  71.9227710
  98.2731240   6.4323460  73.9712100  97.9528110   5.7132700  74.5157790
  97.5989600   7.1078530  74.0448160  96.3145410   7.2783910  58.9145250
  96.3055510   8.0113600  58.2989760  95.3943770   7.0315490  59.0072210
  91.9152050   2.4998800  59.6592010  91.3080000   3.2397700  59.6687310
  92.3901400   2.5898160  58.8330210  99.3005010   7.3412150  57.5770440
  99.4016990   7.1376140  56.6472420  98.4006750   7.0870430  57.7818220
  97.9423120   9.8598470  62.2718110  98.1964620   9.8219860  61.3497480
  96.9935600   9.7331800  62.2646360  93.9257340   2.4609950  57.4080580
  94.6920610   2.3491310  57.9706010  94.0032030   1.7647920  56.7557350
 105.9501280   7.9499200  65.5230880 106.0748700   8.7730370  65.9954690
 106.8166840   7.7389930  65.1755030  93.4218810  10.0430410  65.1948010
  94.1581290   9.4945870  65.4656580  93.8059730  10.9086420  65.0554000
  90.3064290   6.1103980  61.0689520  89.3804070   6.3525120  61.0594930
  90.7720720   6.9378240  60.9474270  92.4277090   9.2276480  74.3833590
  93.2289820   9.5488530  74.7968990  91.9128910   8.8672060  75.1053500
  96.5321120   9.2160720  57.0173580  97.3249730   9.5049550  56.5655370
  96.0125470   8.7852890  56.3386060 101.2641720   5.3356350  74.3309000
 100.6579880   5.3587950  73.5904750 100.9595830   4.6039390  74.8676250
 102.6942090   9.0636640  72.9418410 103.6463840   8.9794660  72.8918650
 102.5470310   9.7278350  73.6152200 105.5851290   8.4430850  58.4410320
 105.2992800   8.0295990  57.6264500 105.3870840   9.3718560  58.3210840
  97.0498520   4.4364130  56.8815930  96.9449160   3.8216480  57.6077310
  96.8822740   3.9130020  56.0978940  97.2012840   3.1220930  72.8605160
  96.4358510   3.6905930  72.7759830  97.3828800   2.8297140  71.9673390
 100.2901250   3.4984160  57.4857920  99.7411350   3.9453460  58.1300660
 100.9120510   2.9933410  58.0095590 104.3436190   4.8526260  73.4180180
 105.0845660   5.1902020  72.9147640 103.5808870   5.0218320  72.8649950
  95.9576370   2.4575080  59.3823220  96.3792790   2.2914950  60.2254610
  96.0827210   1.6475310  58.8878360 103.0181850   2.9041090  71.9535390
 103.4322870   3.0586170  72.8025810 102.0832850   3.0296310  72.1161170
  97.7797080   2.8561570  69.9231320  98.1985190   3.6994300  69.7507560
  96.8605710   2.9933610  69.6938100  95.6304500   9.1614580  71.0389050
  95.0925590   9.8860640  70.7197750  95.8838460   8.6844920  70.2486390
  98.4866710  10.3965790  71.2975700  98.4125410  11.3000930  71.6048070
  97.5845550  10.0777690  71.2697770  99.0352040   9.5624300  58.9202060
  99.9302830   9.9009270  58.9420820  99.0669670   8.8403710  58.2926340
  92.6748200   4.9351350  57.1489060  93.1123070   5.4781020  57.8046640
  93.1595930   4.1098300  57.1585400  89.8894000   7.7240380  64.6009320
  90.2197010   6.8561440  64.3687960  90.3185000   7.9298900  65.4314280
  94.4855920   6.0549390  62.2611290  94.1851460   5.9314360  63.1615200
  94.3793410   5.1957980  61.8527020  90.3784210   8.5910970  67.3390950
  89.9415200   8.7711770  68.1715100  90.9461890   9.3485590  67.1972670
 106.0146390   8.0927970  71.6268260 105.4148380   8.1520530  70.8832180
 106.1440290   7.1532950  71.7565110 107.2547840   5.8345790  56.9637970
 106.4240800   5.9022440  57.4345200 107.4319670   6.7249910  56.6604830
 106.7104300   2.5793270  59.4672170 107.4723210   3.1489920  59.5731860
 106.7258670   2.0120470  60.2380480 107.7164270   3.4343370  64.3114100
 108.0873100   2.6510690  63.9050070 108.3566200   4.1232470  64.1331400
 104.6998030   4.8179950  69.7244420 103.8857870   5.2477110  69.9870210
 105.1072230   5.4298360  69.1113470 106.7623470   2.8727640  56.6244690
 107.0372310   3.7806520  56.4963910 106.5734210   2.8090170  57.5606680
 104.7574080   9.5698550  63.2512690 105.3533150   9.2483120  62.5747110
 105.0152230   9.0970370  64.0425960  92.6636650   6.0016460  73.4003320
  92.6206280   5.6309370  74.2817780  92.7947660   6.9394030  73.5405140
  96.3642680   7.5576050  69.0013040  96.1234040   7.8250610  68.1143560
  97.3045320   7.7281780  69.0563900 107.6246840   9.5770430  69.8023680
 107.1305120   9.9739300  69.0850810 107.0160130   8.9519640  70.1960960
  92.5024680   8.9478710  70.5201100  91.9085000   8.8163410  71.2591140
  92.4948520   8.1116850  70.0543200 105.3086290  10.2193850  67.0810420
 104.8489260  10.9709660  66.7068440 104.6798750   9.5000320  67.0225220
  92.1336910   6.3137090  69.4709140  91.4070970   5.6942380  69.4035090
  92.1946060   6.7077700  68.6007220  95.7382010   8.5282090  66.2558550
  96.2547030   7.9169450  65.7306810  96.3879390   9.0310870  66.7469560
  98.4777510   9.4190580  67.0827530  98.7655320   9.1644880  66.2060540
  98.9900730   8.8667940  67.6733100  90.4166910   9.6311480  62.6805900
  90.2488950   8.9982160  63.3787790  89.5501420   9.8370880  62.3300090
  92.0229610   8.3244710  60.1256040  91.4977230   8.7052740  59.4218000
  91.9474190   8.9495480  60.8465750  98.5449870  10.3406680  74.4495730
  99.4717180  10.1050950  74.4931690  98.5300300  11.1678680  73.9681760
 106.7794930   9.8832250  61.4469980 106.9547120   9.1969990  60.8030900
 106.0816500  10.4079300  61.0546650  94.6222580  10.2727090  59.0005290
  95.3541400   9.9886370  58.4529180  94.8816250  10.0340370  59.8904670
  93.7837370   6.3891820  59.0051620  93.1546250   6.8576920  59.5537450
  93.8985200   5.5441040  59.4397810 105.1127430   9.5676540  74.2736770
 105.9052750   9.0725770  74.0662730 105.4060580  10.2466680  74.8812380
  99.3705130   2.2176500  47.0362090  98.5947230   1.7376940  47.3260660
 100.0218060   1.5382150  46.8618250  93.3870960   2.5296310  47.9137850
  92.5555840   2.2745020  48.3134360  93.9951940   2.6007080  48.6495770
 103.3912560   6.6236690  45.8161220 102.9294090   5.8523930  46.1448390
 104.2038110   6.6502760  46.3213670  93.3672220   6.5636400  48.1095870
  93.6700260   5.6734140  47.9306090  94.1115810   7.1206620  47.8818120
  99.6175870   8.9094700  45.4365210  98.9987310   9.3652200  44.8659650
 100.4727650   9.0646160  45.0354910  98.8114120   4.8933690  47.0432250
  98.7422400   3.9523630  46.8821380  99.5733980   4.9835100  47.6154820
 100.4839220   3.7933940  42.8297120  99.8656490   4.2583390  42.2659840
 100.9962470   4.4861420  43.2466630  95.3470980   3.3209810  49.5080720
  95.0140360   3.9478730  50.1501790  95.5237660   3.8471690  48.7282390
  94.5590080   5.2890610  51.3229900  95.1764080   5.9641690  51.0414350
  93.6983200   5.6978590  51.2317400  89.8522420   4.4790470  40.2036750
  89.4750400   4.9677570  39.4721650  90.1095490   5.1515750  40.8343280
 105.4767670   6.7530020  49.2384540 104.7931190   7.4229130  49.2301210
 106.0161960   6.9510670  48.4729400 103.0126410   8.5974150  47.9529720
 103.0253570   8.1936440  47.0851980 102.4601630   9.3721440  47.8491150
 104.3071830   5.3190370  43.0419890 104.1968160   4.3764700  43.1669310
 104.3040080   5.6806010  43.9282650 102.4111850   3.5003990  49.2812330
 102.8280640   3.2864100  48.4465790 103.1351670   3.7576780  49.8520950
 106.3573950   1.8991210  49.3728570 105.5292580   1.9684300  48.8978700
 106.9524430   2.4845520  48.9044400 103.8789400   2.5075990  42.9017630
 103.2601820   2.1695540  42.2543930 103.8613850   1.8635750  43.6096820
  95.9230450   5.1587990  47.3441320  95.6258740   4.5533460  46.6649100
  96.8730270   5.1965300  47.2330680 104.0116060   8.7319860  51.0064420
 103.5346620   9.5392050  50.8137030 103.3277850   8.0798190  51.1590630
  95.0148880   4.8969680  53.9949120  94.1177410   5.1209650  54.2422520
  95.0401750   5.0204620  53.0460520  93.8420100   1.7683000  52.5706490
  93.7027870   2.6405800  52.9393890  92.9601460   1.4255810  52.4254430
 100.1649480   6.6858870  43.8771620 100.6045390   7.4283200  43.4627010
 100.1036370   6.9285440  44.8010580  95.6400450   7.7104700  54.7791640
  95.6115880   8.1147650  53.9120070  95.4765420   6.7815060  54.6163240
 107.5915270   8.4931800  56.0755810 108.0674990   8.9714690  56.7544890
 108.2122430   8.4249290  55.3501310  89.7938750   3.5380550  48.4877400
  89.8719170   3.6729320  47.5433120  90.4080430   2.8296440  48.6805520
  91.0386380   5.2380740  44.8983580  90.6314460   5.3795330  44.0437180
  91.9299390   4.9540900  44.6954790 106.9948520   5.6844650  53.2355820
 107.1211580   5.4456530  52.3173000 107.0369900   4.8529190  53.7077900
 100.8565260   9.3872650  51.8050630 101.3709930   9.2980660  52.6073060
 100.0134340   9.7332350  52.0978540 102.8319660   9.6727990  41.2334630
 102.6720800   9.3830930  42.1316460 102.6666370   8.8968120  40.6979860
  95.3108040   9.4526520  43.0106250  95.1350520   8.5362060  42.7974050
  94.4563780   9.8113810  43.2504050 102.5345790   7.1815550  39.7932630
 101.8410950   7.1792840  39.1334910 103.2768650   6.7574870  39.3626800
 102.0995720   8.8078260  43.8681120 102.5552670   8.0267640  44.1819740
 102.4388240   9.5185080  44.4122300  89.8498270   4.5794720  51.0271860
  90.0129310   4.1100080  50.2091230  90.3150720   4.0718280  51.6920700
  91.4237250   3.9546150  53.1867670  91.0392040   3.3139820  53.7850630
  91.7349440   4.6582270  53.7562400  93.8915550   4.0492320  41.5827350
  93.1177810   3.5089940  41.4226070  94.6210180   3.5298930  41.2445110
 104.6503530   3.0457680  47.3753740 105.3702650   3.5412970  46.9849850
 104.4485350   2.3675570  46.7307610 100.0322330   3.1166740  53.2622740
  99.9659640   2.1962410  53.0080330  99.4027470   3.2142180  53.9767380
  93.9352950   3.7172700  45.2206160  94.4531620   2.9140960  45.1663050
  93.4836970   3.6551840  46.0622990  98.8222450   4.9838980  40.4933460
  99.1638150   5.7281210  39.9976780  97.9935160   5.2970100  40.8558290
  99.9639060   5.9387310  53.0126540  99.9783600   5.0068270  52.7945450
  99.2564160   6.0247070  53.6516310 106.1750270   2.5794650  52.3595120
 105.4498460   3.1723430  52.1624510 106.7025730   2.5718190  51.5608490
 106.1263380   6.9769390  42.0107280 105.4839540   6.3225010  42.2851000
 105.7394040   7.3824480  41.2347950 101.7049860   4.3054820  45.8578970
 102.0573680   3.7082950  45.1980340 100.8212190   3.9799050  46.0287220
  97.7913140   5.0652510  43.2649380  98.4784270   5.6121720  43.6456970
  97.0045560   5.6093240  43.2998990  97.0940350   2.0698540  42.8774740
  97.5503130   2.8803790  43.1034930  96.7428560   1.7521680  43.7093230
  99.3972960   7.5804880  50.1067040 100.0415180   7.7864260  50.7840460
  99.7602400   6.8193280  49.6537890 100.6705040   5.5837230  48.8244490
 101.3127270   4.8830390  48.9376660 101.1954390   6.3635670  48.6441380
 104.5160760   5.8685850  38.5483630 104.2898340   5.1516290  39.1408270
 104.1256960   5.6198290  37.7105380 102.4442660   6.3832130  52.0280550
 102.7798900   6.9698820  52.7058470 101.5243000   6.2524840  52.2578340
  90.2976790   9.8952710  39.3228090  90.6574430  10.4942050  38.6685360
  90.1569130  10.4412600  40.0963120 104.0977010   3.7857790  40.2097790
 103.8098710   4.2470480  40.9975670 104.8929180   3.3255560  40.4782010
  90.2818650   8.1607570  53.7970490  90.3909770   7.2202310  53.6565880
  89.6299210   8.4262320  53.1484220  98.2731240   6.4323460  55.1968610
  97.9528110   5.7132700  55.7414300  97.5989600   7.1078530  55.2704670
  96.3145410   7.2783910  40.1401760  96.3055510   8.0113600  39.5246270
  95.3943770   7.0315490  40.2328720  91.9152050   2.4998800  40.8848520
  91.3080000   3.2397700  40.8943820  92.3901400   2.5898160  40.0586720
  99.3005010   7.3412150  38.8026950  99.4016990   7.1376140  37.8728930
  98.4006750   7.0870430  39.0074730  97.9423120   9.8598470  43.4974620
  98.1964620   9.8219860  42.5753990  96.9935600   9.7331800  43.4902870
  93.9257340   2.4609950  38.6337090  94.6920610   2.3491310  39.1962520
  94.0032030   1.7647920  37.9813860 105.9501280   7.9499200  46.7487390
 106.0748700   8.7730370  47.2211200 106.8166840   7.7389930  46.4011540
  93.4218810  10.0430410  46.4204520  94.1581290   9.4945870  46.6913090
  93.8059730  10.9086420  46.2810510  90.3064290   6.1103980  42.2946030
  89.3804070   6.3525120  42.2851440  90.7720720   6.9378240  42.1730780
  92.4277090   9.2276480  55.6090100  93.2289820   9.5488530  56.0225500
  91.9128910   8.8672060  56.3310010  96.5321120   9.2160720  38.2430090
  97.3249730   9.5049550  37.7911880  96.0125470   8.7852890  37.5642570
 101.2641720   5.3356350  55.5565510 100.6579880   5.3587950  54.8161260
 100.9595830   4.6039390  56.0932760 102.6942090   9.0636640  54.1674920
 103.6463840   8.9794660  54.1175160 102.5470310   9.7278350  54.8408710
 105.5851290   8.4430850  39.6666830 105.2992800   8.0295990  38.8521010
 105.3870840   9.3718560  39.5467350  97.0498520   4.4364130  38.1072440
  96.9449160   3.8216480  38.8333820  96.8822740   3.9130020  37.3235450
  97.2012840   3.1220930  54.0861670  96.4358510   3.6905930  54.0016340
  97.3828800   2.8297140  53.1929900 100.2901250   3.4984160  38.7114430
  99.7411350   3.9453460  39.3557170 100.9120510   2.9933410  39.2352100
 104.3436190   4.8526260  54.6436690 105.0845660   5.1902020  54.1404150
 103.5808870   5.0218320  54.0906460  95.9576370   2.4575080  40.6079730
  96.3792790   2.2914950  41.4511120  96.0827210   1.6475310  40.1134870
 103.0181850   2.9041090  53.1791900 103.4322870   3.0586170  54.0282320
 102.0832850   3.0296310  53.3417680  97.7797080   2.8561570  51.1487830
  98.1985190   3.6994300  50.9764070  96.8605710   2.9933610  50.9194610
  95.6304500   9.1614580  52.2645560  95.0925590   9.8860640  51.9454260
  95.8838460   8.6844920  51.4742900  98.4866710  10.3965790  52.5232210
  98.4125410  11.3000930  52.8304580  97.5845550  10.0777690  52.4954280
  99.0352040   9.5624300  40.1458570  99.9302830   9.9009270  40.1677330
  99.0669670   8.8403710  39.5182850  92.6748200   4.9351350  38.3745570
  93.1123070   5.4781020  39.0303150  93.1595930   4.1098300  38.3841910
  89.8894000   7.7240380  45.8265830  90.2197010   6.8561440  45.5944470
  90.3185000   7.9298900  46.6570790  94.4855920   6.0549390  43.4867800
  94.1851460   5.9314360  44.3871710  94.3793410   5.1957980  43.0783530
  90.3784210   8.5910970  48.5647460  89.9415200   8.7711770  49.3971610
  90.9461890   9.3485590  48.4229180 106.0146390   8.0927970  52.8524770
 105.4148380   8.1520530  52.1088690 106.1440290   7.1532950  52.9821620
 107.2547840   5.8345790  38.1894480 106.4240800   5.9022440  38.6601710
 107.4319670   6.7249910  37.8861340 106.7104300   2.5793270  40.6928680
 107.4723210   3.1489920  40.7988370 106.7258670   2.0120470  41.4636990
 107.7164270   3.4343370  45.5370610 108.0873100   2.6510690  45.1306580
 108.3566200   4.1232470  45.3587910 104.6998030   4.8179950  50.9500930
 103.8857870   5.2477110  51.2126720 105.1072230   5.4298360  50.3369980
 106.7623470   2.8727640  37.8501200 107.0372310   3.7806520  37.7220420
 106.5734210   2.8090170  38.7863190 104.7574080   9.5698550  44.4769200
 105.3533150   9.2483120  43.8003620 105.0152230   9.0970370  45.2682470
  92.6636650   6.0016460  54.6259830  92.6206280   5.6309370  55.5074290
  92.7947660   6.9394030  54.7661650  96.3642680   7.5576050  50.2269550
  96.1234040   7.8250610  49.3400070  97.3045320   7.7281780  50.2820410
 107.6246840   9.5770430  51.0280190 107.1305120   9.9739300  50.3107320
 107.0160130   8.9519640  51.4217470  92.5024680   8.9478710  51.7457610
  91.9085000   8.8163410  52.4847650  92.4948520   8.1116850  51.2799710
 105.3086290  10.2193850  48.3066930 104.8489260  10.9709660  47.9324950
 104.6798750   9.5000320  48.2481730  92.1336910   6.3137090  50.6965650
  91.4070970   5.6942380  50.6291600  92.1946060   6.7077700  49.8263730
  95.7382010   8.5282090  47.4815060  96.2547030   7.9169450  46.9563320
  96.3879390   9.0310870  47.9726070  98.4777510   9.4190580  48.3084040
  98.7655320   9.1644880  47.4317050  98.9900730   8.8667940  48.8989610
  90.4166910   9.6311480  43.9062410  90.2488950   8.9982160  44.6044300
  89.5501420   9.8370880  43.5556600  92.0229610   8.3244710  41.3512550
  91.4977230   8.7052740  40.6474510  91.9474190   8.9495480  42.0722260
  98.5449870  10.3406680  55.6752240  99.4717180  10.1050950  55.7188200
  98.5300300  11.1678680  55.1938270 106.7794930   9.8832250  42.6726490
 106.9547120   9.1969990  42.0287410 106.0816500  10.4079300  42.2803160
  94.6222580  10.2727090  40.2261800  95.3541400   9.9886370  39.6785690
  94.8816250  10.0340370  41.1161180  93.7837370   6.3891820  40.2308130
  93.1546250   6.8576920  40.7793960  93.8985200   5.5441040  40.6654320
 105.1127430   9.5676540  55.4993280 105.9052750   9.0725770  55.2919240
 105.4060580  10.2466680  56.1068890  99.3705130   2.2176500  28.2618600
  98.5947230   1.7376940  28.5517170 100.0218060   1.5382150  28.0874760
  93.3870960   2.5296310  29.1394360  92.5555840   2.2745020  29.5390870
  93.9951940   2.6007080  29.8752280 103.3912560   6.6236690  27.0417730
 102.9294090   5.8523930  27.3704900 104.2038110   6.6502760  27.5470180
  93.3672220   6.5636400  29.3352380  93.6700260   5.6734140  29.1562600
  94.1115810   7.1206620  29.1074630  99.6175870   8.9094700  26.6621720
  98.9987310   9.3652200  26.0916160 100.4727650   9.0646160  26.2611420
  98.8114120   4.8933690  28.2688760  98.7422400   3.9523630  28.1077890
  99.5733980   4.9835100  28.8411330 100.4839220   3.7933940  24.0553630
  99.8656490   4.2583390  23.4916350 100.9962470   4.4861420  24.4723140
  95.3470980   3.3209810  30.7337230  95.0140360   3.9478730  31.3758300
  95.5237660   3.8471690  29.9538900  94.5590080   5.2890610  32.5486410
  95.1764080   5.9641690  32.2670860  93.6983200   5.6978590  32.4573910
  89.8522420   4.4790470  21.4293260  89.4750400   4.9677570  20.6978160
  90.1095490   5.1515750  22.0599790 105.4767670   6.7530020  30.4641050
 104.7931190   7.4229130  30.4557720 106.0161960   6.9510670  29.6985910
 103.0126410   8.5974150  29.1786230 103.0253570   8.1936440  28.3108490
 102.4601630   9.3721440  29.0747660 104.3071830   5.3190370  24.2676400
 104.1968160   4.3764700  24.3925820 104.3040080   5.6806010  25.1539160
 102.4111850   3.5003990  30.5068840 102.8280640   3.2864100  29.6722300
 103.1351670   3.7576780  31.0777460 106.3573950   1.8991210  30.5985080
 105.5292580   1.9684300  30.1235210 106.9524430   2.4845520  30.1300910
 103.8789400   2.5075990  24.1274140 103.2601820   2.1695540  23.4800440
 103.8613850   1.8635750  24.8353330  95.9230450   5.1587990  28.5697830
  95.6258740   4.5533460  27.8905610  96.8730270   5.1965300  28.4587190
 104.0116060   8.7319860  32.2320930 103.5346620   9.5392050  32.0393540
 103.3277850   8.0798190  32.3847140  95.0148880   4.8969680  35.2205630
  94.1177410   5.1209650  35.4679030  95.0401750   5.0204620  34.2717030
  93.8420100   1.7683000  33.7963000  93.7027870   2.6405800  34.1650400
  92.9601460   1.4255810  33.6510940 100.1649480   6.6858870  25.1028130
 100.6045390   7.4283200  24.6883520 100.1036370   6.9285440  26.0267090
  95.6400450   7.7104700  36.0048150  95.6115880   8.1147650  35.1376580
  95.4765420   6.7815060  35.8419750 107.5915270   8.4931800  37.3012320
 108.0674990   8.9714690  37.9801400 108.2122430   8.4249290  36.5757820
  89.7938750   3.5380550  29.7133910  89.8719170   3.6729320  28.7689630
  90.4080430   2.8296440  29.9062030  91.0386380   5.2380740  26.1240090
  90.6314460   5.3795330  25.2693690  91.9299390   4.9540900  25.9211300
 106.9948520   5.6844650  34.4612330 107.1211580   5.4456530  33.5429510
 107.0369900   4.8529190  34.9334410 100.8565260   9.3872650  33.0307140
 101.3709930   9.2980660  33.8329570 100.0134340   9.7332350  33.3235050
 102.8319660   9.6727990  22.4591140 102.6720800   9.3830930  23.3572970
 102.6666370   8.8968120  21.9236370  95.3108040   9.4526520  24.2362760
  95.1350520   8.5362060  24.0230560  94.4563780   9.8113810  24.4760560
 102.5345790   7.1815550  21.0189140 101.8410950   7.1792840  20.3591420
 103.2768650   6.7574870  20.5883310 102.0995720   8.8078260  25.0937630
 102.5552670   8.0267640  25.4076250 102.4388240   9.5185080  25.6378810
  89.8498270   4.5794720  32.2528370  90.0129310   4.1100080  31.4347740
  90.3150720   4.0718280  32.9177210  91.4237250   3.9546150  34.4124180
  91.0392040   3.3139820  35.0107140  91.7349440   4.6582270  34.9818910
  93.8915550   4.0492320  22.8083860  93.1177810   3.5089940  22.6482580
  94.6210180   3.5298930  22.4701620 104.6503530   3.0457680  28.6010250
 105.3702650   3.5412970  28.2106360 104.4485350   2.3675570  27.9564120
 100.0322330   3.1166740  34.4879250  99.9659640   2.1962410  34.2336840
  99.4027470   3.2142180  35.2023890  93.9352950   3.7172700  26.4462670
  94.4531620   2.9140960  26.3919560  93.4836970   3.6551840  27.2879500
  98.8222450   4.9838980  21.7189970  99.1638150   5.7281210  21.2233290
  97.9935160   5.2970100  22.0814800  99.9639060   5.9387310  34.2383050
  99.9783600   5.0068270  34.0201960  99.2564160   6.0247070  34.8772820
 106.1750270   2.5794650  33.5851630 105.4498460   3.1723430  33.3881020
 106.7025730   2.5718190  32.7865000 106.1263380   6.9769390  23.2363790
 105.4839540   6.3225010  23.5107510 105.7394040   7.3824480  22.4604460
 101.7049860   4.3054820  27.0835480 102.0573680   3.7082950  26.4236850
 100.8212190   3.9799050  27.2543730  97.7913140   5.0652510  24.4905890
  98.4784270   5.6121720  24.8713480  97.0045560   5.6093240  24.5255500
  97.0940350   2.0698540  24.1031250  97.5503130   2.8803790  24.3291440
  96.7428560   1.7521680  24.9349740  99.3972960   7.5804880  31.3323550
 100.0415180   7.7864260  32.0096970  99.7602400   6.8193280  30.8794400
 100.6705040   5.5837230  30.0501000 101.3127270   4.8830390  30.1633170
 101.1954390   6.3635670  29.8697890 104.5160760   5.8685850  19.7740140
 104.2898340   5.1516290  20.3664780 104.1256960   5.6198290  18.9361890
 102.4442660   6.3832130  33.2537060 102.7798900   6.9698820  33.9314980
 101.5243000   6.2524840  33.4834850  90.2976790   9.8952710  20.5484600
  90.6574430  10.4942050  19.8941870  90.1569130  10.4412600  21.3219630
 104.0977010   3.7857790  21.4354300 103.8098710   4.2470480  22.2232180
 104.8929180   3.3255560  21.7038520  90.2818650   8.1607570  35.0227000
  90.3909770   7.2202310  34.8822390  89.6299210   8.4262320  34.3740730
  98.2731240   6.4323460  36.4225120  97.9528110   5.7132700  36.9670810
  97.5989600   7.1078530  36.4961180  96.3145410   7.2783910  21.3658270
  96.3055510   8.0113600  20.7502780  95.3943770   7.0315490  21.4585230
  91.9152050   2.4998800  22.1105030  91.3080000   3.2397700  22.1200330
  92.3901400   2.5898160  21.2843230  99.3005010   7.3412150  20.0283460
  99.4016990   7.1376140  19.0985440  98.4006750   7.0870430  20.2331240
  97.9423120   9.8598470  24.7231130  98.1964620   9.8219860  23.8010500
  96.9935600   9.7331800  24.7159380  93.9257340   2.4609950  19.8593600
  94.6920610   2.3491310  20.4219030  94.0032030   1.7647920  19.2070370
 105.9501280   7.9499200  27.9743900 106.0748700   8.7730370  28.4467710
 106.8166840   7.7389930  27.6268050  93.4218810  10.0430410  27.6461030
  94.1581290   9.4945870  27.9169600  93.8059730  10.9086420  27.5067020
  90.3064290   6.1103980  23.5202540  89.3804070   6.3525120  23.5107950
  90.7720720   6.9378240  23.3987290  92.4277090   9.2276480  36.8346610
  93.2289820   9.5488530  37.2482010  91.9128910   8.8672060  37.5566520
  96.5321120   9.2160720  19.4686600  97.3249730   9.5049550  19.0168390
  96.0125470   8.7852890  18.7899080 101.2641720   5.3356350  36.7822020
 100.6579880   5.3587950  36.0417770 100.9595830   4.6039390  37.3189270
 102.6942090   9.0636640  35.3931430 103.6463840   8.9794660  35.3431670
 102.5470310   9.7278350  36.0665220 105.5851290   8.4430850  20.8923340
 105.2992800   8.0295990  20.0777520 105.3870840   9.3718560  20.7723860
  97.0498520   4.4364130  19.3328950  96.9449160   3.8216480  20.0590330
  96.8822740   3.9130020  18.5491960  97.2012840   3.1220930  35.3118180
  96.4358510   3.6905930  35.2272850  97.3828800   2.8297140  34.4186410
 100.2901250   3.4984160  19.9370940  99.7411350   3.9453460  20.5813680
 100.9120510   2.9933410  20.4608610 104.3436190   4.8526260  35.8693200
 105.0845660   5.1902020  35.3660660 103.5808870   5.0218320  35.3162970
  95.9576370   2.4575080  21.8336240  96.3792790   2.2914950  22.6767630
  96.0827210   1.6475310  21.3391380 103.0181850   2.9041090  34.4048410
 103.4322870   3.0586170  35.2538830 102.0832850   3.0296310  34.5674190
  97.7797080   2.8561570  32.3744340  98.1985190   3.6994300  32.2020580
  96.8605710   2.9933610  32.1451120  95.6304500   9.1614580  33.4902070
  95.0925590   9.8860640  33.1710770  95.8838460   8.6844920  32.6999410
  98.4866710  10.3965790  33.7488720  98.4125410  11.3000930  34.0561090
  97.5845550  10.0777690  33.7210790  99.0352040   9.5624300  21.3715080
  99.9302830   9.9009270  21.3933840  99.0669670   8.8403710  20.7439360
  92.6748200   4.9351350  19.6002080  93.1123070   5.4781020  20.2559660
  93.1595930   4.1098300  19.6098420  89.8894000   7.7240380  27.0522340
  90.2197010   6.8561440  26.8200980  90.3185000   7.9298900  27.8827300
  94.4855920   6.0549390  24.7124310  94.1851460   5.9314360  25.6128220
  94.3793410   5.1957980  24.3040040  90.3784210   8.5910970  29.7903970
  89.9415200   8.7711770  30.6228120  90.9461890   9.3485590  29.6485690
 106.0146390   8.0927970  34.0781280 105.4148380   8.1520530  33.3345200
 106.1440290   7.1532950  34.2078130 107.2547840   5.8345790  19.4150990
 106.4240800   5.9022440  19.8858220 107.4319670   6.7249910  19.1117850
 106.7104300   2.5793270  21.9185190 107.4723210   3.1489920  22.0244880
 106.7258670   2.0120470  22.6893500 107.7164270   3.4343370  26.7627120
 108.0873100   2.6510690  26.3563090 108.3566200   4.1232470  26.5844420
 104.6998030   4.8179950  32.1757440 103.8857870   5.2477110  32.4383230
 105.1072230   5.4298360  31.5626490 106.7623470   2.8727640  19.0757710
 107.0372310   3.7806520  18.9476930 106.5734210   2.8090170  20.0119700
 104.7574080   9.5698550  25.7025710 105.3533150   9.2483120  25.0260130
 105.0152230   9.0970370  26.4938980  92.6636650   6.0016460  35.8516340
  92.6206280   5.6309370  36.7330800  92.7947660   6.9394030  35.9918160
  96.3642680   7.5576050  31.4526060  96.1234040   7.8250610  30.5656580
  97.3045320   7.7281780  31.5076920 107.6246840   9.5770430  32.2536700
 107.1305120   9.9739300  31.5363830 107.0160130   8.9519640  32.6473980
  92.5024680   8.9478710  32.9714120  91.9085000   8.8163410  33.7104160
  92.4948520   8.1116850  32.5056220 105.3086290  10.2193850  29.5323440
 104.8489260  10.9709660  29.1581460 104.6798750   9.5000320  29.4738240
  92.1336910   6.3137090  31.9222160  91.4070970   5.6942380  31.8548110
  92.1946060   6.7077700  31.0520240  95.7382010   8.5282090  28.7071570
  96.2547030   7.9169450  28.1819830  96.3879390   9.0310870  29.1982580
  98.4777510   9.4190580  29.5340550  98.7655320   9.1644880  28.6573560
  98.9900730   8.8667940  30.1246120  90.4166910   9.6311480  25.1318920
  90.2488950   8.9982160  25.8300810  89.5501420   9.8370880  24.7813110
  92.0229610   8.3244710  22.5769060  91.4977230   8.7052740  21.8731020
  91.9474190   8.9495480  23.2978770  98.5449870  10.3406680  36.9008750
  99.4717180  10.1050950  36.9444710  98.5300300  11.1678680  36.4194780
 106.7794930   9.8832250  23.8983000 106.9547120   9.1969990  23.2543920
 106.0816500  10.4079300  23.5059670  94.6222580  10.2727090  21.4518310
  95.3541400   9.9886370  20.9042200  94.8816250  10.0340370  22.3417690
  93.7837370   6.3891820  21.4564640  93.1546250   6.8576920  22.0050470
  93.8985200   5.5441040  21.8910830 105.1127430   9.5676540  36.7249790
 105.9052750   9.0725770  36.5175750 105.4060580  10.2466680  37.3325400
  99.3705130   2.2176500   9.4875110  98.5947230   1.7376940   9.7773680
 100.0218060   1.5382150   9.3131270  93.3870960   2.5296310  10.3650870
  92.5555840   2.2745020  10.7647380  93.9951940   2.6007080  11.1008790
 103.3912560   6.6236690   8.2674240 102.9294090   5.8523930   8.5961410
 104.2038110   6.6502760   8.7726690  93.3672220   6.5636400  10.5608890
  93.6700260   5.6734140  10.3819110  94.1115810   7.1206620  10.3331140
  99.6175870   8.9094700   7.8878230  98.9987310   9.3652200   7.3172670
 100.4727650   9.0646160   7.4867930  98.8114120   4.8933690   9.4945270
  98.7422400   3.9523630   9.3334400  99.5733980   4.9835100  10.0667840
 100.4839220   3.7933940   5.2810140  99.8656490   4.2583390   4.7172860
 100.9962470   4.4861420   5.6979650  95.3470980   3.3209810  11.9593740
  95.0140360   3.9478730  12.6014810  95.5237660   3.8471690  11.1795410
  94.5590080   5.2890610  13.7742920  95.1764080   5.9641690  13.4927370
  93.6983200   5.6978590  13.6830420  89.8522420   4.4790470   2.6549770
  89.4750400   4.9677570   1.9234670  90.1095490   5.1515750   3.2856300
 105.4767670   6.7530020  11.6897560 104.7931190   7.4229130  11.6814230
 106.0161960   6.9510670  10.9242420 103.0126410   8.5974150  10.4042740
 103.0253570   8.1936440   9.5365000 102.4601630   9.3721440  10.3004170
 104.3071830   5.3190370   5.4932910 104.1968160   4.3764700   5.6182330
 104.3040080   5.6806010   6.3795670 102.4111850   3.5003990  11.7325350
 102.8280640   3.2864100  10.8978810 103.1351670   3.7576780  12.3033970
 106.3573950   1.8991210  11.8241590 105.5292580   1.9684300  11.3491720
 106.9524430   2.4845520  11.3557420 103.8789400   2.5075990   5.3530650
 103.2601820   2.1695540   4.7056950 103.8613850   1.8635750   6.0609840
  95.9230450   5.1587990   9.7954340  95.6258740   4.5533460   9.1162120
  96.8730270   5.1965300   9.6843700 104.0116060   8.7319860  13.4577440
 103.5346620   9.5392050  13.2650050 103.3277850   8.0798190  13.6103650
  95.0148880   4.8969680  16.4462140  94.1177410   5.1209650  16.6935540
  95.0401750   5.0204620  15.4973540  93.8420100   1.7683000  15.0219510
  93.7027870   2.6405800  15.3906910  92.9601460   1.4255810  14.8767450
 100.1649480   6.6858870   6.3284640 100.6045390   7.4283200   5.9140030
 100.1036370   6.9285440   7.2523600  95.6400450   7.7104700  17.2304660
  95.6115880   8.1147650  16.3633090  95.4765420   6.7815060  17.0676260
 107.5915270   8.4931800  18.5268830 108.0674990   8.9714690  19.2057910
 108.2122430   8.4249290  17.8014330  89.7938750   3.5380550  10.9390420
  89.8719170   3.6729320   9.9946140  90.4080430   2.8296440  11.1318540
  91.0386380   5.2380740   7.3496600  90.6314460   5.3795330   6.4950200
  91.9299390   4.9540900   7.1467810 106.9948520   5.6844650  15.6868840
 107.1211580   5.4456530  14.7686020 107.0369900   4.8529190  16.1590920
 100.8565260   9.3872650  14.2563650 101.3709930   9.2980660  15.0586080
 100.0134340   9.7332350  14.5491560 102.8319660   9.6727990   3.6847650
 102.6720800   9.3830930   4.5829480 102.6666370   8.8968120   3.1492880
  95.3108040   9.4526520   5.4619270  95.1350520   8.5362060   5.2487070
  94.4563780   9.8113810   5.7017070 102.5345790   7.1815550   2.2445650
 101.8410950   7.1792840   1.5847930 103.2768650   6.7574870   1.8139820
 102.0995720   8.8078260   6.3194140 102.5552670   8.0267640   6.6332760
 102.4388240   9.5185080   6.8635320  89.8498270   4.5794720  13.4784880
  90.0129310   4.1100080  12.6604250  90.3150720   4.0718280  14.1433720
  91.4237250   3.9546150  15.6380690  91.0392040   3.3139820  16.2363650
  91.7349440   4.6582270  16.2075420  93.8915550   4.0492320   4.0340370
  93.1177810   3.5089940   3.8739090  94.6210180   3.5298930   3.6958130
 104.6503530   3.0457680   9.8266760 105.3702650   3.5412970   9.4362870
 104.4485350   2.3675570   9.1820630 100.0322330   3.1166740  15.7135760
  99.9659640   2.1962410  15.4593350  99.4027470   3.2142180  16.4280400
  93.9352950   3.7172700   7.6719180  94.4531620   2.9140960   7.6176070
  93.4836970   3.6551840   8.5136010  98.8222450   4.9838980   2.9446480
  99.1638150   5.7281210   2.4489800  97.9935160   5.2970100   3.3071310
  99.9639060   5.9387310  15.4639560  99.9783600   5.0068270  15.2458470
  99.2564160   6.0247070  16.1029330 106.1750270   2.5794650  14.8108140
 105.4498460   3.1723430  14.6137530 106.7025730   2.5718190  14.0121510
 106.1263380   6.9769390   4.4620300 105.4839540   6.3225010   4.7364020
 105.7394040   7.3824480   3.6860970 101.7049860   4.3054820   8.3091990
 102.0573680   3.7082950   7.6493360 100.8212190   3.9799050   8.4800240
  97.7913140   5.0652510   5.7162400  98.4784270   5.6121720   6.0969990
  97.0045560   5.6093240   5.7512010  97.0940350   2.0698540   5.3287760
  97.5503130   2.8803790   5.5547950  96.7428560   1.7521680   6.1606250
  99.3972960   7.5804880  12.5580060 100.0415180   7.7864260  13.2353480
  99.7602400   6.8193280  12.1050910 100.6705040   5.5837230  11.2757510
 101.3127270   4.8830390  11.3889680 101.1954390   6.3635670  11.0954400
 102.4442660   6.3832130  14.4793570 102.7798900   6.9698820  15.1571490
 101.5243000   6.2524840  14.7091360 104.0977010   3.7857790   2.6610810
 103.8098710   4.2470480   3.4488690 104.8929180   3.3255560   2.9295030
  90.2818650   8.1607570  16.2483510  90.3909770   7.2202310  16.1078900
  89.6299210   8.4262320  15.5997240  98.2731240   6.4323460  17.6481630
  97.9528110   5.7132700  18.1927320  97.5989600   7.1078530  17.7217690
  96.3145410   7.2783910   2.5914780  96.3055510   8.0113600   1.9759290
  95.3943770   7.0315490   2.6841740  91.9152050   2.4998800   3.3361540
  91.3080000   3.2397700   3.3456840  92.3901400   2.5898160   2.5099740
  97.9423120   9.8598470   5.9487640  98.1964620   9.8219860   5.0267010
  96.9935600   9.7331800   5.9415890 105.9501280   7.9499200   9.2000410
 106.0748700   8.7730370   9.6724220 106.8166840   7.7389930   8.8524560
  93.4218810  10.0430410   8.8717540  94.1581290   9.4945870   9.1426110
  93.8059730  10.9086420   8.7323530  90.3064290   6.1103980   4.7459050
  89.3804070   6.3525120   4.7364460  90.7720720   6.9378240   4.6243800
  92.4277090   9.2276480  18.0603120  93.2289820   9.5488530  18.4738520
  91.9128910   8.8672060  18.7823030 101.2641720   5.3356350  18.0078530
 100.6579880   5.3587950  17.2674280 100.9595830   4.6039390  18.5445780
 102.6942090   9.0636640  16.6187940 103.6463840   8.9794660  16.5688180
 102.5470310   9.7278350  17.2921730 105.5851290   8.4430850   2.1179850
 105.2992800   8.0295990   1.3034030 105.3870840   9.3718560   1.9980370
  97.2012840   3.1220930  16.5374690  96.4358510   3.6905930  16.4529360
  97.3828800   2.8297140  15.6442920 104.3436190   4.8526260  17.0949710
 105.0845660   5.1902020  16.5917170 103.5808870   5.0218320  16.5419480
  95.9576370   2.4575080   3.0592750  96.3792790   2.2914950   3.9024140
  96.0827210   1.6475310   2.5647890 103.0181850   2.9041090  15.6304920
 103.4322870   3.0586170  16.4795340 102.0832850   3.0296310  15.7930700
  97.7797080   2.8561570  13.6000850  98.1985190   3.6994300  13.4277090
  96.8605710   2.9933610  13.3707630  95.6304500   9.1614580  14.7158580
  95.0925590   9.8860640  14.3967280  95.8838460   8.6844920  13.9255920
  98.4866710  10.3965790  14.9745230  98.4125410  11.3000930  15.2817600
  97.5845550  10.0777690  14.9467300  99.0352040   9.5624300   2.5971590
  99.9302830   9.9009270   2.6190350  99.0669670   8.8403710   1.9695870
  89.8894000   7.7240380   8.2778850  90.2197010   6.8561440   8.0457490
  90.3185000   7.9298900   9.1083810  94.4855920   6.0549390   5.9380820
  94.1851460   5.9314360   6.8384730  94.3793410   5.1957980   5.5296550
  90.3784210   8.5910970  11.0160480  89.9415200   8.7711770  11.8484630
  90.9461890   9.3485590  10.8742200 106.0146390   8.0927970  15.3037790
 105.4148380   8.1520530  14.5601710 106.1440290   7.1532950  15.4334640
 106.7104300   2.5793270   3.1441700 107.4723210   3.1489920   3.2501390
 106.7258670   2.0120470   3.9150010 107.7164270   3.4343370   7.9883630
 108.0873100   2.6510690   7.5819600 108.3566200   4.1232470   7.8100930
 104.6998030   4.8179950  13.4013950 103.8857870   5.2477110  13.6639740
 105.1072230   5.4298360  12.7883000 104.7574080   9.5698550   6.9282220
 105.3533150   9.2483120   6.2516640 105.0152230   9.0970370   7.7195490
  92.6636650   6.0016460  17.0772850  92.6206280   5.6309370  17.9587310
  92.7947660   6.9394030  17.2174670  96.3642680   7.5576050  12.6782570
  96.1234040   7.8250610  11.7913090  97.3045320   7.7281780  12.7333430
 107.6246840   9.5770430  13.4793210 107.1305120   9.9739300  12.7620340
 107.0160130   8.9519640  13.8730490  92.5024680   8.9478710  14.1970630
  91.9085000   8.8163410  14.9360670  92.4948520   8.1116850  13.7312730
 105.3086290  10.2193850  10.7579950 104.8489260  10.9709660  10.3837970
 104.6798750   9.5000320  10.6994750  92.1336910   6.3137090  13.1478670
  91.4070970   5.6942380  13.0804620  92.1946060   6.7077700  12.2776750
  95.7382010   8.5282090   9.9328080  96.2547030   7.9169450   9.4076340
  96.3879390   9.0310870  10.4239090  98.4777510   9.4190580  10.7597060
  98.7655320   9.1644880   9.8830070  98.9900730   8.8667940  11.3502630
  90.4166910   9.6311480   6.3575430  90.2488950   8.9982160   7.0557320
  89.5501420   9.8370880   6.0069620  92.0229610   8.3244710   3.8025570
  91.4977230   8.7052740   3.0987530  91.9474190   8.9495480   4.5235280
  98.5449870  10.3406680  18.1265260  99.4717180  10.1050950  18.1701220
  98.5300300  11.1678680  17.6451290 106.7794930   9.8832250   5.1239510
 106.9547120   9.1969990   4.4800430 106.0816500  10.4079300   4.7316180
  94.6222580  10.2727090   2.6774820  95.3541400   9.9886370   2.1298710
  94.8816250  10.0340370   3.5674200  93.7837370   6.3891820   2.6821150
  93.1546250   6.8576920   3.2306980  93.8985200   5.5441040   3.1167340
 105.1127430   9.5676540  17.9506300 105.9052750   9.0725770  17.7432260
 105.4060580  10.2466680  18.5581910  82.4643600 113.0858420 101.4783290
  82.3837650 112.1713030 101.2075000  82.0508020 113.5825490 100.7723000
  73.0219420 110.1359140  98.0210710  72.1336120 110.4775110  97.9190590
  73.3060610 109.9359460  97.1291540  70.9852430 112.7364790 103.9050410
  71.5568540 111.9686990 103.9054050  70.9853970 113.0353550 102.9957020
  72.2277300 108.1449150 105.6919340  72.0480140 107.2474900 105.9722100
  71.8257380 108.6921020 106.3666290  81.0675800 110.3465010 103.5931650
  81.4440620 109.4736890 103.4805320  80.9695310 110.6823710 102.7022090
  75.1980810 108.7190640  99.0549090  75.3047560 109.6194370  99.3617850
  74.2873170 108.6708610  98.7643740  84.8499920 107.8415450 100.5259990
  85.6709540 107.3512020 100.5685470  84.8834000 108.4313110 101.2791830
  72.8463970 110.6409650 104.3001680  73.5274080 110.9048020 104.9189080
  72.5312020 109.8010520 104.6339690  77.0388540 111.6877010 103.3874270
  77.5466760 112.1857980 104.0279290  77.5701780 110.9112210 103.2113630
  89.1399470 109.8582200 107.0903620  88.4351640 110.2463910 106.5718730
  89.4057390 110.5532490 107.6924550  75.3224640 106.3275570 107.6537690
  75.3243080 106.8447960 106.8483590  74.4928950 105.8505750 107.6307620
  85.0861400 109.7815830 103.2987530  84.3816970 110.0700720 103.8790640
  85.4473560 110.5915940 102.9387090  75.0039970 108.0385530 105.6608140
  75.3456780 108.8827580 105.3662010  74.0655780 108.1869270 105.7773480
  88.1548320 109.2270620 103.6896740  87.2073230 109.2609600 103.8212170
  88.4798310 110.0409570 104.0746100  78.6867860 105.5267800 101.9852730
  78.9942840 104.9714690 101.2688230  77.7568560 105.6612260 101.8025720
  81.0617700 109.8633630  95.7180010  80.1221370 110.0247590  95.8032470
  81.3800960 110.5819310  95.1716000  84.5472470 111.3321470 106.6413910
  84.1343650 112.1575180 106.8953900  83.8148420 110.7466510 106.4490270
  75.3933880 110.8924580 105.2831620  75.9448470 111.0019920 104.5084870
  75.9077390 111.2662180 105.9986850  86.8627750 105.6466550  94.5461890
  86.5500410 105.7393380  95.4460960  87.6240220 106.2247580  94.4959320
  73.3809890 113.0126350  99.0039230  73.2607490 113.7388440  98.3920500
  73.0710780 112.2429260  98.5267140  88.0729040 110.3838050 110.5236030
  87.4573310 110.8917720 109.9951490  87.7525460 109.4836380 110.4661970
  75.8473550 106.3561420 102.3862900  75.4041700 107.1370960 102.0547420
  76.4058540 106.6791310 103.0933840  80.1343360 109.2229940 107.9898220
  79.6722730 109.4312960 108.8018160  79.7321470 108.4089290 107.6868890
  85.1347870 110.4438890 109.1194880  84.2841460 110.1444640 109.4403950
  84.9749660 110.6880900 108.2078700  78.9632370 105.9772120  97.2668730
  78.3386550 105.9731990  97.9922040  78.8762490 105.1103080  96.8704700
  77.8849450 106.9008750 104.2452500  78.1821780 107.8071580 104.1644520
  78.4335010 106.4127530 103.6312070  75.6387770 111.4794990 100.1144150
  75.4128690 111.2632160 101.0190770  74.8580300 111.9123450  99.7690120
  82.8685530 111.4858360  98.7134800  82.2694420 112.2094160  98.5298420
  83.4165140 111.4235140  97.9311250  78.0786980 112.3780570 110.7804420
  77.9830580 111.4375300 110.6304820  78.9218960 112.5995640 110.3852490
  81.4750400 110.1221900 100.7438080  81.8679970 110.4394100  99.9306770
  81.8367250 109.2433780 100.8582600  73.2097520 108.7894240 108.9338200
  72.8160910 109.6369450 109.1410980  72.5215920 108.1520610 109.1246840
  70.5114570 106.7122700 102.9668280  70.2227620 107.2825560 103.6793260
  71.2560330 106.2327150 103.3299510  70.6984800 110.6542820  94.1771000
  70.6159470 111.5973580  94.3185990  70.3467860 110.5117730  93.2983350
  82.0605540 112.7127650 104.8388860  81.3286660 113.2214460 105.1878960
  81.6629880 111.8957630 104.5377640  78.4982930 109.3881850 103.2441350
  78.5018990 108.9471800 102.3945890  79.3934050 109.7099180 103.3513170
  74.3485310 109.2708340 102.2035560  74.0085360 109.7483570 102.9602610
  73.5862630 108.8173460 101.8436660  78.5603080 110.3893930  96.2348110
  78.6815900 110.3480410  97.1833930  78.1751590 111.2518080  96.0794840
  82.5231450 108.1661330 104.2511800  82.5404190 108.6169980 105.0953650
  82.2747030 107.2666970 104.4645240  77.5724580 112.6995070  95.6331410
  77.0041480 112.2513320  95.0067320  78.2813580 113.0587850  95.0996560
  85.9502200 105.5793510 110.0898180  86.2747970 104.8483170 110.6156160
  85.9858710 105.2607150 109.1879170  71.6631390 108.1927320 101.1200230
  71.3778310 107.8282990 101.9578850  71.6010250 107.4607780 100.5063370
  76.5890270 112.4892270 107.3090970  76.2847340 113.3684250 107.5341330
  77.5436730 112.5492060 107.3448410  81.3369980 107.0856580  97.8413600
  80.5234590 106.5869750  97.7658910  81.1431930 107.9254830  97.4249950
  84.0518370 111.4576230  96.1375760  84.9397990 111.7693460  95.9627100
  84.0223460 110.5848480  95.7456340  86.3232640 112.7688070  95.6055620
  86.2396360 113.2002290  94.7552060  87.0426830 113.2286420  96.0382440
  74.2208640 105.0597130  99.6727730  74.0923270 105.0515030 100.6212650
  73.3970660 105.3980220  99.3218740  71.2202570 106.8188250 109.1334430
  70.5061090 107.0185170 109.7387040  71.6397610 106.0427820 109.5049230
  82.7141350 109.3110560 106.8835880  83.0822170 108.4905770 107.2115450
  81.8539550 109.3712450 107.2991530  86.0803380 108.2667500  97.6923440
  85.4516540 108.3713170  96.9781670  85.5855300 108.4864280  98.4817320
  78.0487410 110.5453450  99.1081320  77.3403560 111.0139790  99.5494930
  78.3331890 109.8875460  99.7426510  79.6743340 111.9650150 107.1073850
  80.1728590 112.4395970 107.7725700  79.8166290 111.0413670 107.3143880
  82.0802840 107.2704110 100.5477110  81.9570620 107.2890240  99.5986620
  83.0287400 107.3183050 100.6675510  76.2522430 108.8538530  96.4832030
  77.1012960 109.2908680  96.4172220  75.8853700 109.1658790  97.3104090
  86.8810200 108.1818110 107.9502240  86.3783800 108.9223510 108.2896050
  87.6966860 108.5702110 107.6339030  85.1732210 113.4251290 101.3963600
  84.2322350 113.4401520 101.5711290  85.4876280 112.6387250 101.8423900
  73.8460610 112.5395960  95.6400450  73.9264200 111.5923470  95.7517850
  74.7380360 112.8702840  95.7461110  75.3460300 111.0832570 109.7381180
  74.8156760 110.5923520 109.1104520  76.0148370 111.5116770 109.2039110
  75.8332600 108.0494940 109.8178470  75.7389470 107.4315690 109.0929340
  75.2529990 108.7761230 109.5908380  78.5994040 106.6068180 106.8505860
  78.1511340 106.6292440 106.0051410  77.9659240 106.2087200 107.4476160
  81.3417490 113.2338690 108.8556140  81.4613700 112.6379830 109.5950980
  82.2011490 113.2708380 108.4357440  76.0791780 111.1769250  93.8768360
  75.8780840 110.3136610  94.2381700  75.9083830 111.0902610  92.9389960
  78.1086260 109.7760040 110.1131960  78.6985950 109.4675890 110.8009780
  77.2906500 109.3039790 110.2691860  82.9279690 109.3925850 110.3464980
  82.2395210 108.7307390 110.2814970  83.6485710 108.9464120 110.7913440
  83.5580090 105.9877480  96.4055240  83.8382380 105.1445380  96.7614660
  82.7845820 106.2200590  96.9193990  74.8774580 108.2769870  93.8646240
  75.1800480 108.2837300  92.9565390  75.6169170 107.9267730  94.3613900
  78.0959510 107.2204490  94.8502440  77.7481510 106.5428480  94.2704890
  78.2972280 106.7594000  95.6645830  71.4365150 113.7492140 101.2466810
  70.7813990 113.4803780 100.6026510  72.2743100 113.6396620 100.7968790
  84.3855590 108.5433430  95.4685300  84.8040470 108.3564410  94.6281960
  84.0791650 107.6912480  95.7788230  87.8845320 113.4557570  99.1661100
  87.5088920 112.6885500  98.7342390  87.1548440 113.8380270  99.6536030
  87.2744940 112.6029090 108.8000620  87.0431030 112.3741840 107.8998570
  87.5349490 113.5228640 108.7545510  72.0257080 111.0453800 109.6928570
  71.1313130 111.0120560 110.0322280  72.5654630 111.2440590 110.4579820
  70.6503230 110.9591070  97.1892140  69.7467310 111.2221270  97.0143800
  71.1343850 111.2302240  96.4092100  87.1596280 111.6815060 102.4668340
  87.6833760 111.1877710 101.8358510  87.7455700 111.8165420 103.2115910
  87.3386000 111.7654930 105.9887890  86.3888710 111.7318470 106.1032880
  87.5199010 112.6755040 105.7537660  73.1930440 110.0156610  95.0986520
  73.9022140 109.5939830  94.6133800  72.4770380 110.0831840  94.4669870
  72.8404600 106.0695940  94.1389170  73.5632730 106.6104880  94.4570390
  73.1129120 105.7959360  93.2630710  86.6496250 110.9388410  98.4060750
  87.1455370 110.7059280  99.1909630  86.4512320 110.1000250  97.9898390
  72.5296790 105.3202130 104.0411790  73.1772980 104.7699510 103.6006950
  72.9498630 105.5745280 104.8627600  88.0783410 109.5749360 100.9398430
  87.9682690 109.4205400 101.8780700  88.8391000 109.0470300 100.6973840
  86.4249130 105.5143490 107.3981430  87.0621350 106.1277630 107.7640620
  86.5724020 105.5504150 106.4530660  88.9673680 107.4057280  94.1804570
  89.8922990 107.2738460  93.9722860  88.9449470 107.4850100  95.1341020
  89.0412170 108.1767940  96.8061280  88.2463670 108.1113060  97.3354190
  89.2455450 109.1118580  96.7946630  72.2828790 105.4757800 106.7837110
  71.9343610 105.9321620 107.5495290  71.9516490 104.5814930 106.8659540
  82.4328170 106.3239740 109.9448820  83.0468580 106.6419030 109.2829900
  82.9777730 105.8388330 110.5644680  72.9549430 105.0034000 110.0587880
  73.5032420 104.8222050 109.2953990  73.0204740 104.2128110 110.5944190
  83.1736210 104.8871880 106.2718110  82.2996050 105.2206990 106.0691040
  83.0646960 104.4145060 107.0969980  84.0808190 107.0942750 107.6559830
  83.7521550 106.2794510 107.2761560  85.0290490 107.0512560 107.5325520
  80.9211030 105.8041720 105.2111020  80.1382820 106.2787220 105.4907780
  80.6273960 104.8996550 105.1024200  85.4732100 106.5064820 103.2560110
  85.9140190 106.4509920 102.4081710  85.2039690 107.4222830 103.3270290
  87.3370670 106.1380060 101.2668930  87.2759070 105.1941280 101.1199950
  88.1162700 106.2460150 101.8122390  72.2651440 106.1089200  97.7324740
  73.0230800 106.2218080  97.1588770  71.8028610 106.9458400  97.6868170
  78.8065250 108.2228470 100.7227050  77.9939760 107.8485360 100.3822930
  79.3106890 107.4673550 101.0248240  83.3090230 104.8870920 101.9610120
  83.9119600 105.4591130 102.4358640  82.5683220 105.4510360 101.7384020
  86.4524830 105.2892480  97.2350400  86.6475460 106.1875930  97.5017830
  85.6654700 105.0579560  97.7283350  74.6376590 106.6353250  96.2726710
  75.1669350 105.8483050  96.1434660  75.2704910 107.3144440  96.5062240
  76.8314430 106.3728390  99.3272100  76.2017170 105.6715700  99.4942230
  76.2919570 107.1332520  99.1105260  82.4643600 113.0858420  82.7039800
  82.3837650 112.1713030  82.4331510  82.0508020 113.5825490  81.9979510
  73.0219420 110.1359140  79.2467220  72.1336120 110.4775110  79.1447100
  73.3060610 109.9359460  78.3548050  70.9852430 112.7364790  85.1306920
  71.5568540 111.9686990  85.1310560  70.9853970 113.0353550  84.2213530
  72.2277300 108.1449150  86.9175850  72.0480140 107.2474900  87.1978610
  71.8257380 108.6921020  87.5922800  81.0675800 110.3465010  84.8188160
  81.4440620 109.4736890  84.7061830  80.9695310 110.6823710  83.9278600
  75.1980810 108.7190640  80.2805600  75.3047560 109.6194370  80.5874360
  74.2873170 108.6708610  79.9900250  84.8499920 107.8415450  81.7516500
  85.6709540 107.3512020  81.7941980  84.8834000 108.4313110  82.5048340
  72.8463970 110.6409650  85.5258190  73.5274080 110.9048020  86.1445590
  72.5312020 109.8010520  85.8596200  77.0388540 111.6877010  84.6130780
  77.5466760 112.1857980  85.2535800  77.5701780 110.9112210  84.4370140
  89.1399470 109.8582200  88.3160130  88.4351640 110.2463910  87.7975240
  89.4057390 110.5532490  88.9181060  75.3224640 106.3275570  88.8794200
  75.3243080 106.8447960  88.0740100  74.4928950 105.8505750  88.8564130
  85.0861400 109.7815830  84.5244040  84.3816970 110.0700720  85.1047150
  85.4473560 110.5915940  84.1643600  75.0039970 108.0385530  86.8864650
  75.3456780 108.8827580  86.5918520  74.0655780 108.1869270  87.0029990
  88.1548320 109.2270620  84.9153250  87.2073230 109.2609600  85.0468680
  88.4798310 110.0409570  85.3002610  78.6867860 105.5267800  83.2109240
  78.9942840 104.9714690  82.4944740  77.7568560 105.6612260  83.0282230
  81.0617700 109.8633630  76.9436520  80.1221370 110.0247590  77.0288980
  81.3800960 110.5819310  76.3972510  84.5472470 111.3321470  87.8670420
  84.1343650 112.1575180  88.1210410  83.8148420 110.7466510  87.6746780
  75.3933880 110.8924580  86.5088130  75.9448470 111.0019920  85.7341380
  75.9077390 111.2662180  87.2243360  86.8627750 105.6466550  75.7718400
  86.5500410 105.7393380  76.6717470  87.6240220 106.2247580  75.7215830
  73.3809890 113.0126350  80.2295740  73.2607490 113.7388440  79.6177010
  73.0710780 112.2429260  79.7523650  88.0729040 110.3838050  91.7492540
  87.4573310 110.8917720  91.2208000  87.7525460 109.4836380  91.6918480
  75.8473550 106.3561420  83.6119410  75.4041700 107.1370960  83.2803930
  76.4058540 106.6791310  84.3190350  80.1343360 109.2229940  89.2154730
  79.6722730 109.4312960  90.0274670  79.7321470 108.4089290  88.9125400
  85.1347870 110.4438890  90.3451390  84.2841460 110.1444640  90.6660460
  84.9749660 110.6880900  89.4335210  82.2297580 111.9440640  92.4450180
  82.5550990 111.1104390  92.1052410  83.0177910 112.4669160  92.5928510
  78.9632370 105.9772120  78.4925240  78.3386550 105.9731990  79.2178550
  78.8762490 105.1103080  78.0961210  77.8849450 106.9008750  85.4709010
  78.1821780 107.8071580  85.3901030  78.4335010 106.4127530  84.8568580
  75.6387770 111.4794990  81.3400660  75.4128690 111.2632160  82.2447280
  74.8580300 111.9123450  80.9946630  82.8685530 111.4858360  79.9391310
  82.2694420 112.2094160  79.7554930  83.4165140 111.4235140  79.1567760
  78.0786980 112.3780570  92.0060930  77.9830580 111.4375300  91.8561330
  78.9218960 112.5995640  91.6109000  81.4750400 110.1221900  81.9694590
  81.8679970 110.4394100  81.1563280  81.8367250 109.2433780  82.0839110
  73.2097520 108.7894240  90.1594710  72.8160910 109.6369450  90.3667490
  72.5215920 108.1520610  90.3503350  79.7842570 108.8729210  93.2291450
  79.0940890 108.6801410  93.8637540  80.5274870 109.1563850  93.7615750
  70.5114570 106.7122700  84.1924790  70.2227620 107.2825560  84.9049770
  71.2560330 106.2327150  84.5556020  70.6984800 110.6542820  75.4027510
  70.6159470 111.5973580  75.5442500  70.3467860 110.5117730  74.5239860
  82.0605540 112.7127650  86.0645370  81.3286660 113.2214460  86.4135470
  81.6629880 111.8957630  85.7634150  78.4982930 109.3881850  84.4697860
  78.5018990 108.9471800  83.6202400  79.3934050 109.7099180  84.5769680
  74.3485310 109.2708340  83.4292070  74.0085360 109.7483570  84.1859120
  73.5862630 108.8173460  83.0693170  78.5603080 110.3893930  77.4604620
  78.6815900 110.3480410  78.4090440  78.1751590 111.2518080  77.3051350
  82.5231450 108.1661330  85.4768310  82.5404190 108.6169980  86.3210160
  82.2747030 107.2666970  85.6901750  77.5724580 112.6995070  76.8587920
  77.0041480 112.2513320  76.2323830  78.2813580 113.0587850  76.3253070
  85.9502200 105.5793510  91.3154690  86.2747970 104.8483170  91.8412670
  85.9858710 105.2607150  90.4135680  71.6631390 108.1927320  82.3456740
  71.3778310 107.8282990  83.1835360  71.6010250 107.4607780  81.7319880
  76.5890270 112.4892270  88.5347480  76.2847340 113.3684250  88.7597840
  77.5436730 112.5492060  88.5704920  81.3369980 107.0856580  79.0670110
  80.5234590 106.5869750  78.9915420  81.1431930 107.9254830  78.6506460
  84.0518370 111.4576230  77.3632270  84.9397990 111.7693460  77.1883610
  84.0223460 110.5848480  76.9712850  86.3232640 112.7688070  76.8312130
  86.2396360 113.2002290  75.9808570  87.0426830 113.2286420  77.2638950
  74.2208640 105.0597130  80.8984240  74.0923270 105.0515030  81.8469160
  73.3970660 105.3980220  80.5475250  71.2202570 106.8188250  90.3590940
  70.5061090 107.0185170  90.9643550  71.6397610 106.0427820  90.7305740
  82.7141350 109.3110560  88.1092390  83.0822170 108.4905770  88.4371960
  81.8539550 109.3712450  88.5248040  86.0803380 108.2667500  78.9179950
  85.4516540 108.3713170  78.2038180  85.5855300 108.4864280  79.7073830
  78.0487410 110.5453450  80.3337830  77.3403560 111.0139790  80.7751440
  78.3331890 109.8875460  80.9683020  79.6743340 111.9650150  88.3330360
  80.1728590 112.4395970  88.9982210  79.8166290 111.0413670  88.5400390
  82.0802840 107.2704110  81.7733620  81.9570620 107.2890240  80.8243130
  83.0287400 107.3183050  81.8932020  76.2522430 108.8538530  77.7088540
  77.1012960 109.2908680  77.6428730  75.8853700 109.1658790  78.5360600
  86.8810200 108.1818110  89.1758750  86.3783800 108.9223510  89.5152560
  87.6966860 108.5702110  88.8595540  85.1732210 113.4251290  82.6220110
  84.2322350 113.4401520  82.7967800  85.4876280 112.6387250  83.0680410
  73.8460610 112.5395960  76.8656960  73.9264200 111.5923470  76.9774360
  74.7380360 112.8702840  76.9717620  73.4054490 112.5040470  92.9963200
  73.4459830 112.2054340  93.9048430  74.2599990 112.9048080  92.8370720
  75.3460300 111.0832570  90.9637690  74.8156760 110.5923520  90.3361030
  76.0148370 111.5116770  90.4295620  84.7160530 112.8898190  92.7318030
  85.2981300 112.1350510  92.6438510  84.8922300 113.4205630  91.9549510
  75.8332600 108.0494940  91.0434980  75.7389470 107.4315690  90.3185850
  75.2529990 108.7761230  90.8164890  78.5994040 106.6068180  88.0762370
  78.1511340 106.6292440  87.2307920  77.9659240 106.2087200  88.6732670
  81.3417490 113.2338690  90.0812650  81.4613700 112.6379830  90.8207490
  82.2011490 113.2708380  89.6613950  76.0791780 111.1769250  75.1024870
  75.8780840 110.3136610  75.4638210  75.9083830 111.0902610  74.1646470
  78.1086260 109.7760040  91.3388470  78.6985950 109.4675890  92.0266290
  77.2906500 109.3039790  91.4948370  82.9279690 109.3925850  91.5721490
  82.2395210 108.7307390  91.5071480  83.6485710 108.9464120  92.0169950
  83.5580090 105.9877480  77.6311750  83.8382380 105.1445380  77.9871170
  82.7845820 106.2200590  78.1450500  74.8774580 108.2769870  75.0902750
  75.1800480 108.2837300  74.1821900  75.6169170 107.9267730  75.5870410
  78.0959510 107.2204490  76.0758950  77.7481510 106.5428480  75.4961400
  78.2972280 106.7594000  76.8902340  71.4365150 113.7492140  82.4723320
  70.7813990 113.4803780  81.8283020  72.2743100 113.6396620  82.0225300
  84.3855590 108.5433430  76.6941810  84.8040470 108.3564410  75.8538470
  84.0791650 107.6912480  77.0044740  87.8845320 113.4557570  80.3917610
  87.5088920 112.6885500  79.9598900  87.1548440 113.8380270  80.8792540
  87.2744940 112.6029090  90.0257130  87.0431030 112.3741840  89.1255080
  87.5349490 113.5228640  89.9802020  72.0257080 111.0453800  90.9185080
  71.1313130 111.0120560  91.2578790  72.5654630 111.2440590  91.6836330
  85.7133010 107.8285520  92.8036830  86.5903190 107.8368920  93.1870830
  85.7253850 107.0916360  92.1929180  70.6503230 110.9591070  78.4148650
  69.7467310 111.2221270  78.2400310  71.1343850 111.2302240  77.6348610
  87.1596280 111.6815060  83.6924850  87.6833760 111.1877710  83.0615020
  87.7455700 111.8165420  84.4372420  87.3386000 111.7654930  87.2144400
  86.3888710 111.7318470  87.3289390  87.5199010 112.6755040  86.9794170
  73.1930440 110.0156610  76.3243030  73.9022140 109.5939830  75.8390310
  72.4770380 110.0831840  75.6926380  72.8404600 106.0695940  75.3645680
  73.5632730 106.6104880  75.6826900  73.1129120 105.7959360  74.4887220
  86.6496250 110.9388410  79.6317260  87.1455370 110.7059280  80.4166140
  86.4512320 110.1000250  79.2154900  72.5296790 105.3202130  85.2668300
  73.1772980 104.7699510  84.8263460  72.9498630 105.5745280  86.0884110
  88.0783410 109.5749360  82.1654940  87.9682690 109.4205400  83.1037210
  88.8391000 109.0470300  81.9230350  86.4249130 105.5143490  88.6237940
  87.0621350 106.1277630  88.9897130  86.5724020 105.5504150  87.6787170
  88.9673680 107.4057280  75.4061080  89.8922990 107.2738460  75.1979370
  88.9449470 107.4850100  76.3597530  89.0412170 108.1767940  78.0317790
  88.2463670 108.1113060  78.5610700  89.2455450 109.1118580  78.0203140
  72.2828790 105.4757800  88.0093620  71.9343610 105.9321620  88.7751800
  71.9516490 104.5814930  88.0916050  79.7953610 106.6669680  91.5313040
  79.7342500 107.2591510  92.2808450  80.7353990 106.5595640  91.3863300
  82.4328170 106.3239740  91.1705330  83.0468580 106.6419030  90.5086410
  82.9777730 105.8388330  91.7901190  72.9549430 105.0034000  91.2844390
  73.5032420 104.8222050  90.5210500  73.0204740 104.2128110  91.8200700
  83.1736210 104.8871880  87.4974620  82.2996050 105.2206990  87.2947550
  83.0646960 104.4145060  88.3226490  84.0808190 107.0942750  88.8816340
  83.7521550 106.2794510  88.5018070  85.0290490 107.0512560  88.7582030
  80.9211030 105.8041720  86.4367530  80.1382820 106.2787220  86.7164290
  80.6273960 104.8996550  86.3280710  85.4732100 106.5064820  84.4816620
  85.9140190 106.4509920  83.6338220  85.2039690 107.4222830  84.5526800
  87.3370670 106.1380060  82.4925440  87.2759070 105.1941280  82.3456460
  88.1162700 106.2460150  83.0378900  72.2651440 106.1089200  78.9581250
  73.0230800 106.2218080  78.3845280  71.8028610 106.9458400  78.9124680
  78.8065250 108.2228470  81.9483560  77.9939760 107.8485360  81.6079440
  79.3106890 107.4673550  82.2504750  83.3090230 104.8870920  83.1866630
  83.9119600 105.4591130  83.6615150  82.5683220 105.4510360  82.9640530
  86.4524830 105.2892480  78.4606910  86.6475460 106.1875930  78.7274340
  85.6654700 105.0579560  78.9539860  74.6376590 106.6353250  77.4983220
  75.1669350 105.8483050  77.3691170  75.2704910 107.3144440  77.7318750
  76.8314430 106.3728390  80.5528610  76.2017170 105.6715700  80.7198740
  76.2919570 107.1332520  80.3361770  76.9569990 105.6512370  92.9881100
  76.6754260 106.1545970  92.2241920  77.3389690 104.8534120  92.6223230
  83.5585450 105.0665950  93.5661570  83.4450900 105.3860560  94.4613090
  84.3755190 105.4678460  93.2698850  82.4643600 113.0858420  63.9296310
  82.3837650 112.1713030  63.6588020  82.0508020 113.5825490  63.2236020
  73.0219420 110.1359140  60.4723730  72.1336120 110.4775110  60.3703610
  73.3060610 109.9359460  59.5804560  70.9852430 112.7364790  66.3563430
  71.5568540 111.9686990  66.3567070  70.9853970 113.0353550  65.4470040
  72.2277300 108.1449150  68.1432360  72.0480140 107.2474900  68.4235120
  71.8257380 108.6921020  68.8179310  81.0675800 110.3465010  66.0444670
  81.4440620 109.4736890  65.9318340  80.9695310 110.6823710  65.1535110
  75.1980810 108.7190640  61.5062110  75.3047560 109.6194370  61.8130870
  74.2873170 108.6708610  61.2156760  84.8499920 107.8415450  62.9773010
  85.6709540 107.3512020  63.0198490  84.8834000 108.4313110  63.7304850
  72.8463970 110.6409650  66.7514700  73.5274080 110.9048020  67.3702100
  72.5312020 109.8010520  67.0852710  77.0388540 111.6877010  65.8387290
  77.5466760 112.1857980  66.4792310  77.5701780 110.9112210  65.6626650
  89.1399470 109.8582200  69.5416640  88.4351640 110.2463910  69.0231750
  89.4057390 110.5532490  70.1437570  75.3224640 106.3275570  70.1050710
  75.3243080 106.8447960  69.2996610  74.4928950 105.8505750  70.0820640
  85.0861400 109.7815830  65.7500550  84.3816970 110.0700720  66.3303660
  85.4473560 110.5915940  65.3900110  75.0039970 108.0385530  68.1121160
  75.3456780 108.8827580  67.8175030  74.0655780 108.1869270  68.2286500
  88.1548320 109.2270620  66.1409760  87.2073230 109.2609600  66.2725190
  88.4798310 110.0409570  66.5259120  78.6867860 105.5267800  64.4365750
  78.9942840 104.9714690  63.7201250  77.7568560 105.6612260  64.2538740
  81.0617700 109.8633630  58.1693030  80.1221370 110.0247590  58.2545490
  81.3800960 110.5819310  57.6229020  84.5472470 111.3321470  69.0926930
  84.1343650 112.1575180  69.3466920  83.8148420 110.7466510  68.9003290
  75.3933880 110.8924580  67.7344640  75.9448470 111.0019920  66.9597890
  75.9077390 111.2662180  68.4499870  86.8627750 105.6466550  56.9974910
  86.5500410 105.7393380  57.8973980  87.6240220 106.2247580  56.9472340
  73.3809890 113.0126350  61.4552250  73.2607490 113.7388440  60.8433520
  73.0710780 112.2429260  60.9780160  88.0729040 110.3838050  72.9749050
  87.4573310 110.8917720  72.4464510  87.7525460 109.4836380  72.9174990
  75.8473550 106.3561420  64.8375920  75.4041700 107.1370960  64.5060440
  76.4058540 106.6791310  65.5446860  80.1343360 109.2229940  70.4411240
  79.6722730 109.4312960  71.2531180  79.7321470 108.4089290  70.1381910
  85.1347870 110.4438890  71.5707900  84.2841460 110.1444640  71.8916970
  84.9749660 110.6880900  70.6591720  82.2297580 111.9440640  73.6706690
  82.5550990 111.1104390  73.3308920  83.0177910 112.4669160  73.8185020
  78.9632370 105.9772120  59.7181750  78.3386550 105.9731990  60.4435060
  78.8762490 105.1103080  59.3217720  77.8849450 106.9008750  66.6965520
  78.1821780 107.8071580  66.6157540  78.4335010 106.4127530  66.0825090
  75.6387770 111.4794990  62.5657170  75.4128690 111.2632160  63.4703790
  74.8580300 111.9123450  62.2203140  82.8685530 111.4858360  61.1647820
  82.2694420 112.2094160  60.9811440  83.4165140 111.4235140  60.3824270
  78.0786980 112.3780570  73.2317440  77.9830580 111.4375300  73.0817840
  78.9218960 112.5995640  72.8365510  81.4750400 110.1221900  63.1951100
  81.8679970 110.4394100  62.3819790  81.8367250 109.2433780  63.3095620
  73.2097520 108.7894240  71.3851220  72.8160910 109.6369450  71.5924000
  72.5215920 108.1520610  71.5759860  79.7842570 108.8729210  74.4547960
  79.0940890 108.6801410  75.0894050  80.5274870 109.1563850  74.9872260
  70.5114570 106.7122700  65.4181300  70.2227620 107.2825560  66.1306280
  71.2560330 106.2327150  65.7812530  70.6984800 110.6542820  56.6284020
  70.6159470 111.5973580  56.7699010  70.3467860 110.5117730  55.7496370
  82.0605540 112.7127650  67.2901880  81.3286660 113.2214460  67.6391980
  81.6629880 111.8957630  66.9890660  78.4982930 109.3881850  65.6954370
  78.5018990 108.9471800  64.8458910  79.3934050 109.7099180  65.8026190
  74.3485310 109.2708340  64.6548580  74.0085360 109.7483570  65.4115630
  73.5862630 108.8173460  64.2949680  78.5603080 110.3893930  58.6861130
  78.6815900 110.3480410  59.6346950  78.1751590 111.2518080  58.5307860
  82.5231450 108.1661330  66.7024820  82.5404190 108.6169980  67.5466670
  82.2747030 107.2666970  66.9158260  77.5724580 112.6995070  58.0844430
  77.0041480 112.2513320  57.4580340  78.2813580 113.0587850  57.5509580
  85.9502200 105.5793510  72.5411200  86.2747970 104.8483170  73.0669180
  85.9858710 105.2607150  71.6392190  71.6631390 108.1927320  63.5713250
  71.3778310 107.8282990  64.4091870  71.6010250 107.4607780  62.9576390
  76.5890270 112.4892270  69.7603990  76.2847340 113.3684250  69.9854350
  77.5436730 112.5492060  69.7961430  81.3369980 107.0856580  60.2926620
  80.5234590 106.5869750  60.2171930  81.1431930 107.9254830  59.8762970
  84.0518370 111.4576230  58.5888780  84.9397990 111.7693460  58.4140120
  84.0223460 110.5848480  58.1969360  86.3232640 112.7688070  58.0568640
  86.2396360 113.2002290  57.2065080  87.0426830 113.2286420  58.4895460
  74.2208640 105.0597130  62.1240750  74.0923270 105.0515030  63.0725670
  73.3970660 105.3980220  61.7731760  71.2202570 106.8188250  71.5847450
  70.5061090 107.0185170  72.1900060  71.6397610 106.0427820  71.9562250
  82.7141350 109.3110560  69.3348900  83.0822170 108.4905770  69.6628470
  81.8539550 109.3712450  69.7504550  86.0803380 108.2667500  60.1436460
  85.4516540 108.3713170  59.4294690  85.5855300 108.4864280  60.9330340
  78.0487410 110.5453450  61.5594340  77.3403560 111.0139790  62.0007950
  78.3331890 109.8875460  62.1939530  79.6743340 111.9650150  69.5586870
  80.1728590 112.4395970  70.2238720  79.8166290 111.0413670  69.7656900
  82.0802840 107.2704110  62.9990130  81.9570620 107.2890240  62.0499640
  83.0287400 107.3183050  63.1188530  76.2522430 108.8538530  58.9345050
  77.1012960 109.2908680  58.8685240  75.8853700 109.1658790  59.7617110
  86.8810200 108.1818110  70.4015260  86.3783800 108.9223510  70.7409070
  87.6966860 108.5702110  70.0852050  85.1732210 113.4251290  63.8476620
  84.2322350 113.4401520  64.0224310  85.4876280 112.6387250  64.2936920
  73.8460610 112.5395960  58.0913470  73.9264200 111.5923470  58.2030870
  74.7380360 112.8702840  58.1974130  73.4054490 112.5040470  74.2219710
  73.4459830 112.2054340  75.1304940  74.2599990 112.9048080  74.0627230
  75.3460300 111.0832570  72.1894200  74.8156760 110.5923520  71.5617540
  76.0148370 111.5116770  71.6552130  84.7160530 112.8898190  73.9574540
  85.2981300 112.1350510  73.8695020  84.8922300 113.4205630  73.1806020
  75.8332600 108.0494940  72.2691490  75.7389470 107.4315690  71.5442360
  75.2529990 108.7761230  72.0421400  78.5994040 106.6068180  69.3018880
  78.1511340 106.6292440  68.4564430  77.9659240 106.2087200  69.8989180
  81.3417490 113.2338690  71.3069160  81.4613700 112.6379830  72.0464000
  82.2011490 113.2708380  70.8870460  76.0791780 111.1769250  56.3281380
  75.8780840 110.3136610  56.6894720  75.9083830 111.0902610  55.3902980
  78.1086260 109.7760040  72.5644980  78.6985950 109.4675890  73.2522800
  77.2906500 109.3039790  72.7204880  82.9279690 109.3925850  72.7978000
  82.2395210 108.7307390  72.7327990  83.6485710 108.9464120  73.2426460
  83.5580090 105.9877480  58.8568260  83.8382380 105.1445380  59.2127680
  82.7845820 106.2200590  59.3707010  74.8774580 108.2769870  56.3159260
  75.1800480 108.2837300  55.4078410  75.6169170 107.9267730  56.8126920
  78.0959510 107.2204490  57.3015460  77.7481510 106.5428480  56.7217910
  78.2972280 106.7594000  58.1158850  71.4365150 113.7492140  63.6979830
  70.7813990 113.4803780  63.0539530  72.2743100 113.6396620  63.2481810
  84.3855590 108.5433430  57.9198320  84.8040470 108.3564410  57.0794980
  84.0791650 107.6912480  58.2301250  87.8845320 113.4557570  61.6174120
  87.5088920 112.6885500  61.1855410  87.1548440 113.8380270  62.1049050
  87.2744940 112.6029090  71.2513640  87.0431030 112.3741840  70.3511590
  87.5349490 113.5228640  71.2058530  72.0257080 111.0453800  72.1441590
  71.1313130 111.0120560  72.4835300  72.5654630 111.2440590  72.9092840
  85.7133010 107.8285520  74.0293340  86.5903190 107.8368920  74.4127340
  85.7253850 107.0916360  73.4185690  70.6503230 110.9591070  59.6405160
  69.7467310 111.2221270  59.4656820  71.1343850 111.2302240  58.8605120
  87.1596280 111.6815060  64.9181360  87.6833760 111.1877710  64.2871530
  87.7455700 111.8165420  65.6628930  87.3386000 111.7654930  68.4400910
  86.3888710 111.7318470  68.5545900  87.5199010 112.6755040  68.2050680
  73.1930440 110.0156610  57.5499540  73.9022140 109.5939830  57.0646820
  72.4770380 110.0831840  56.9182890  72.8404600 106.0695940  56.5902190
  73.5632730 106.6104880  56.9083410  73.1129120 105.7959360  55.7143730
  86.6496250 110.9388410  60.8573770  87.1455370 110.7059280  61.6422650
  86.4512320 110.1000250  60.4411410  72.5296790 105.3202130  66.4924810
  73.1772980 104.7699510  66.0519970  72.9498630 105.5745280  67.3140620
  88.0783410 109.5749360  63.3911450  87.9682690 109.4205400  64.3293720
  88.8391000 109.0470300  63.1486860  86.4249130 105.5143490  69.8494450
  87.0621350 106.1277630  70.2153640  86.5724020 105.5504150  68.9043680
  88.9673680 107.4057280  56.6317590  89.8922990 107.2738460  56.4235880
  88.9449470 107.4850100  57.5854040  89.0412170 108.1767940  59.2574300
  88.2463670 108.1113060  59.7867210  89.2455450 109.1118580  59.2459650
  72.2828790 105.4757800  69.2350130  71.9343610 105.9321620  70.0008310
  71.9516490 104.5814930  69.3172560  79.7953610 106.6669680  72.7569550
  79.7342500 107.2591510  73.5064960  80.7353990 106.5595640  72.6119810
  82.4328170 106.3239740  72.3961840  83.0468580 106.6419030  71.7342920
  82.9777730 105.8388330  73.0157700  72.9549430 105.0034000  72.5100900
  73.5032420 104.8222050  71.7467010  73.0204740 104.2128110  73.0457210
  83.1736210 104.8871880  68.7231130  82.2996050 105.2206990  68.5204060
  83.0646960 104.4145060  69.5483000  84.0808190 107.0942750  70.1072850
  83.7521550 106.2794510  69.7274580  85.0290490 107.0512560  69.9838540
  80.9211030 105.8041720  67.6624040  80.1382820 106.2787220  67.9420800
  80.6273960 104.8996550  67.5537220  85.4732100 106.5064820  65.7073130
  85.9140190 106.4509920  64.8594730  85.2039690 107.4222830  65.7783310
  87.3370670 106.1380060  63.7181950  87.2759070 105.1941280  63.5712970
  88.1162700 106.2460150  64.2635410  72.2651440 106.1089200  60.1837760
  73.0230800 106.2218080  59.6101790  71.8028610 106.9458400  60.1381190
  78.8065250 108.2228470  63.1740070  77.9939760 107.8485360  62.8335950
  79.3106890 107.4673550  63.4761260  83.3090230 104.8870920  64.4123140
  83.9119600 105.4591130  64.8871660  82.5683220 105.4510360  64.1897040
  86.4524830 105.2892480  59.6863420  86.6475460 106.1875930  59.9530850
  85.6654700 105.0579560  60.1796370  74.6376590 106.6353250  58.7239730
  75.1669350 105.8483050  58.5947680  75.2704910 107.3144440  58.9575260
  76.8314430 106.3728390  61.7785120  76.2017170 105.6715700  61.9455250
  76.2919570 107.1332520  61.5618280  76.9569990 105.6512370  74.2137610
  76.6754260 106.1545970  73.4498430  77.3389690 104.8534120  73.8479740
  83.5585450 105.0665950  74.7918080  83.4450900 105.3860560  75.6869600
  84.3755190 105.4678460  74.4955360  82.4643600 113.0858420  45.1552820
  82.3837650 112.1713030  44.8844530  82.0508020 113.5825490  44.4492530
  73.0219420 110.1359140  41.6980240  72.1336120 110.4775110  41.5960120
  73.3060610 109.9359460  40.8061070  70.9852430 112.7364790  47.5819940
  71.5568540 111.9686990  47.5823580  70.9853970 113.0353550  46.6726550
  72.2277300 108.1449150  49.3688870  72.0480140 107.2474900  49.6491630
  71.8257380 108.6921020  50.0435820  81.0675800 110.3465010  47.2701180
  81.4440620 109.4736890  47.1574850  80.9695310 110.6823710  46.3791620
  75.1980810 108.7190640  42.7318620  75.3047560 109.6194370  43.0387380
  74.2873170 108.6708610  42.4413270  84.8499920 107.8415450  44.2029520
  85.6709540 107.3512020  44.2455000  84.8834000 108.4313110  44.9561360
  72.8463970 110.6409650  47.9771210  73.5274080 110.9048020  48.5958610
  72.5312020 109.8010520  48.3109220  77.0388540 111.6877010  47.0643800
  77.5466760 112.1857980  47.7048820  77.5701780 110.9112210  46.8883160
  89.1399470 109.8582200  50.7673150  88.4351640 110.2463910  50.2488260
  89.4057390 110.5532490  51.3694080  75.3224640 106.3275570  51.3307220
  75.3243080 106.8447960  50.5253120  74.4928950 105.8505750  51.3077150
  85.0861400 109.7815830  46.9757060  84.3816970 110.0700720  47.5560170
  85.4473560 110.5915940  46.6156620  75.0039970 108.0385530  49.3377670
  75.3456780 108.8827580  49.0431540  74.0655780 108.1869270  49.4543010
  88.1548320 109.2270620  47.3666270  87.2073230 109.2609600  47.4981700
  88.4798310 110.0409570  47.7515630  78.6867860 105.5267800  45.6622260
  78.9942840 104.9714690  44.9457760  77.7568560 105.6612260  45.4795250
  81.0617700 109.8633630  39.3949540  80.1221370 110.0247590  39.4802000
  81.3800960 110.5819310  38.8485530  84.5472470 111.3321470  50.3183440
  84.1343650 112.1575180  50.5723430  83.8148420 110.7466510  50.1259800
  75.3933880 110.8924580  48.9601150  75.9448470 111.0019920  48.1854400
  75.9077390 111.2662180  49.6756380  86.8627750 105.6466550  38.2231420
  86.5500410 105.7393380  39.1230490  87.6240220 106.2247580  38.1728850
  73.3809890 113.0126350  42.6808760  73.2607490 113.7388440  42.0690030
  73.0710780 112.2429260  42.2036670  88.0729040 110.3838050  54.2005560
  87.4573310 110.8917720  53.6721020  87.7525460 109.4836380  54.1431500
  75.8473550 106.3561420  46.0632430  75.4041700 107.1370960  45.7316950
  76.4058540 106.6791310  46.7703370  80.1343360 109.2229940  51.6667750
  79.6722730 109.4312960  52.4787690  79.7321470 108.4089290  51.3638420
  85.1347870 110.4438890  52.7964410  84.2841460 110.1444640  53.1173480
  84.9749660 110.6880900  51.8848230  82.2297580 111.9440640  54.8963200
  82.5550990 111.1104390  54.5565430  83.0177910 112.4669160  55.0441530
  78.9632370 105.9772120  40.9438260  78.3386550 105.9731990  41.6691570
  78.8762490 105.1103080  40.5474230  77.8849450 106.9008750  47.9222030
  78.1821780 107.8071580  47.8414050  78.4335010 106.4127530  47.3081600
  75.6387770 111.4794990  43.7913680  75.4128690 111.2632160  44.6960300
  74.8580300 111.9123450  43.4459650  82.8685530 111.4858360  42.3904330
  82.2694420 112.2094160  42.2067950  83.4165140 111.4235140  41.6080780
  78.0786980 112.3780570  54.4573950  77.9830580 111.4375300  54.3074350
  78.9218960 112.5995640  54.0622020  81.4750400 110.1221900  44.4207610
  81.8679970 110.4394100  43.6076300  81.8367250 109.2433780  44.5352130
  73.2097520 108.7894240  52.6107730  72.8160910 109.6369450  52.8180510
  72.5215920 108.1520610  52.8016370  79.7842570 108.8729210  55.6804470
  79.0940890 108.6801410  56.3150560  80.5274870 109.1563850  56.2128770
  70.5114570 106.7122700  46.6437810  70.2227620 107.2825560  47.3562790
  71.2560330 106.2327150  47.0069040  70.6984800 110.6542820  37.8540530
  70.6159470 111.5973580  37.9955520  70.3467860 110.5117730  36.9752880
  82.0605540 112.7127650  48.5158390  81.3286660 113.2214460  48.8648490
  81.6629880 111.8957630  48.2147170  78.4982930 109.3881850  46.9210880
  78.5018990 108.9471800  46.0715420  79.3934050 109.7099180  47.0282700
  74.3485310 109.2708340  45.8805090  74.0085360 109.7483570  46.6372140
  73.5862630 108.8173460  45.5206190  78.5603080 110.3893930  39.9117640
  78.6815900 110.3480410  40.8603460  78.1751590 111.2518080  39.7564370
  82.5231450 108.1661330  47.9281330  82.5404190 108.6169980  48.7723180
  82.2747030 107.2666970  48.1414770  77.5724580 112.6995070  39.3100940
  77.0041480 112.2513320  38.6836850  78.2813580 113.0587850  38.7766090
  85.9502200 105.5793510  53.7667710  86.2747970 104.8483170  54.2925690
  85.9858710 105.2607150  52.8648700  71.6631390 108.1927320  44.7969760
  71.3778310 107.8282990  45.6348380  71.6010250 107.4607780  44.1832900
  76.5890270 112.4892270  50.9860500  76.2847340 113.3684250  51.2110860
  77.5436730 112.5492060  51.0217940  81.3369980 107.0856580  41.5183130
  80.5234590 106.5869750  41.4428440  81.1431930 107.9254830  41.1019480
  84.0518370 111.4576230  39.8145290  84.9397990 111.7693460  39.6396630
  84.0223460 110.5848480  39.4225870  86.3232640 112.7688070  39.2825150
  86.2396360 113.2002290  38.4321590  87.0426830 113.2286420  39.7151970
  74.2208640 105.0597130  43.3497260  74.0923270 105.0515030  44.2982180
  73.3970660 105.3980220  42.9988270  71.2202570 106.8188250  52.8103960
  70.5061090 107.0185170  53.4156570  71.6397610 106.0427820  53.1818760
  82.7141350 109.3110560  50.5605410  83.0822170 108.4905770  50.8884980
  81.8539550 109.3712450  50.9761060  86.0803380 108.2667500  41.3692970
  85.4516540 108.3713170  40.6551200  85.5855300 108.4864280  42.1586850
  78.0487410 110.5453450  42.7850850  77.3403560 111.0139790  43.2264460
  78.3331890 109.8875460  43.4196040  79.6743340 111.9650150  50.7843380
  80.1728590 112.4395970  51.4495230  79.8166290 111.0413670  50.9913410
  82.0802840 107.2704110  44.2246640  81.9570620 107.2890240  43.2756150
  83.0287400 107.3183050  44.3445040  76.2522430 108.8538530  40.1601560
  77.1012960 109.2908680  40.0941750  75.8853700 109.1658790  40.9873620
  86.8810200 108.1818110  51.6271770  86.3783800 108.9223510  51.9665580
  87.6966860 108.5702110  51.3108560  85.1732210 113.4251290  45.0733130
  84.2322350 113.4401520  45.2480820  85.4876280 112.6387250  45.5193430
  73.8460610 112.5395960  39.3169980  73.9264200 111.5923470  39.4287380
  74.7380360 112.8702840  39.4230640  73.4054490 112.5040470  55.4476220
  73.4459830 112.2054340  56.3561450  74.2599990 112.9048080  55.2883740
  75.3460300 111.0832570  53.4150710  74.8156760 110.5923520  52.7874050
  76.0148370 111.5116770  52.8808640  84.7160530 112.8898190  55.1831050
  85.2981300 112.1350510  55.0951530  84.8922300 113.4205630  54.4062530
  75.8332600 108.0494940  53.4948000  75.7389470 107.4315690  52.7698870
  75.2529990 108.7761230  53.2677910  78.5994040 106.6068180  50.5275390
  78.1511340 106.6292440  49.6820940  77.9659240 106.2087200  51.1245690
  81.3417490 113.2338690  52.5325670  81.4613700 112.6379830  53.2720510
  82.2011490 113.2708380  52.1126970  76.0791780 111.1769250  37.5537890
  75.8780840 110.3136610  37.9151230  75.9083830 111.0902610  36.6159490
  78.1086260 109.7760040  53.7901490  78.6985950 109.4675890  54.4779310
  77.2906500 109.3039790  53.9461390  82.9279690 109.3925850  54.0234510
  82.2395210 108.7307390  53.9584500  83.6485710 108.9464120  54.4682970
  83.5580090 105.9877480  40.0824770  83.8382380 105.1445380  40.4384190
  82.7845820 106.2200590  40.5963520  74.8774580 108.2769870  37.5415770
  75.1800480 108.2837300  36.6334920  75.6169170 107.9267730  38.0383430
  78.0959510 107.2204490  38.5271970  77.7481510 106.5428480  37.9474420
  78.2972280 106.7594000  39.3415360  71.4365150 113.7492140  44.9236340
  70.7813990 113.4803780  44.2796040  72.2743100 113.6396620  44.4738320
  84.3855590 108.5433430  39.1454830  84.8040470 108.3564410  38.3051490
  84.0791650 107.6912480  39.4557760  87.8845320 113.4557570  42.8430630
  87.5088920 112.6885500  42.4111920  87.1548440 113.8380270  43.3305560
  87.2744940 112.6029090  52.4770150  87.0431030 112.3741840  51.5768100
  87.5349490 113.5228640  52.4315040  72.0257080 111.0453800  53.3698100
  71.1313130 111.0120560  53.7091810  72.5654630 111.2440590  54.1349350
  85.7133010 107.8285520  55.2549850  86.5903190 107.8368920  55.6383850
  85.7253850 107.0916360  54.6442200  70.6503230 110.9591070  40.8661670
  69.7467310 111.2221270  40.6913330  71.1343850 111.2302240  40.0861630
  87.1596280 111.6815060  46.1437870  87.6833760 111.1877710  45.5128040
  87.7455700 111.8165420  46.8885440  87.3386000 111.7654930  49.6657420
  86.3888710 111.7318470  49.7802410  87.5199010 112.6755040  49.4307190
  73.1930440 110.0156610  38.7756050  73.9022140 109.5939830  38.2903330
  72.4770380 110.0831840  38.1439400  72.8404600 106.0695940  37.8158700
  73.5632730 106.6104880  38.1339920  73.1129120 105.7959360  36.9400240
  86.6496250 110.9388410  42.0830280  87.1455370 110.7059280  42.8679160
  86.4512320 110.1000250  41.6667920  72.5296790 105.3202130  47.7181320
  73.1772980 104.7699510  47.2776480  72.9498630 105.5745280  48.5397130
  88.0783410 109.5749360  44.6167960  87.9682690 109.4205400  45.5550230
  88.8391000 109.0470300  44.3743370  86.4249130 105.5143490  51.0750960
  87.0621350 106.1277630  51.4410150  86.5724020 105.5504150  50.1300190
  88.9673680 107.4057280  37.8574100  89.8922990 107.2738460  37.6492390
  88.9449470 107.4850100  38.8110550  89.0412170 108.1767940  40.4830810
  88.2463670 108.1113060  41.0123720  89.2455450 109.1118580  40.4716160
  72.2828790 105.4757800  50.4606640  71.9343610 105.9321620  51.2264820
  71.9516490 104.5814930  50.5429070  79.7953610 106.6669680  53.9826060
  79.7342500 107.2591510  54.7321470  80.7353990 106.5595640  53.8376320
  82.4328170 106.3239740  53.6218350  83.0468580 106.6419030  52.9599430
  82.9777730 105.8388330  54.2414210  72.9549430 105.0034000  53.7357410
  73.5032420 104.8222050  52.9723520  73.0204740 104.2128110  54.2713720
  83.1736210 104.8871880  49.9487640  82.2996050 105.2206990  49.7460570
  83.0646960 104.4145060  50.7739510  84.0808190 107.0942750  51.3329360
  83.7521550 106.2794510  50.9531090  85.0290490 107.0512560  51.2095050
  80.9211030 105.8041720  48.8880550  80.1382820 106.2787220  49.1677310
  80.6273960 104.8996550  48.7793730  85.4732100 106.5064820  46.9329640
  85.9140190 106.4509920  46.0851240  85.2039690 107.4222830  47.0039820
  87.3370670 106.1380060  44.9438460  87.2759070 105.1941280  44.7969480
  88.1162700 106.2460150  45.4891920  72.2651440 106.1089200  41.4094270
  73.0230800 106.2218080  40.8358300  71.8028610 106.9458400  41.3637700
  78.8065250 108.2228470  44.3996580  77.9939760 107.8485360  44.0592460
  79.3106890 107.4673550  44.7017770  83.3090230 104.8870920  45.6379650
  83.9119600 105.4591130  46.1128170  82.5683220 105.4510360  45.4153550
  86.4524830 105.2892480  40.9119930  86.6475460 106.1875930  41.1787360
  85.6654700 105.0579560  41.4052880  74.6376590 106.6353250  39.9496240
  75.1669350 105.8483050  39.8204190  75.2704910 107.3144440  40.1831770
  76.8314430 106.3728390  43.0041630  76.2017170 105.6715700  43.1711760
  76.2919570 107.1332520  42.7874790  76.9569990 105.6512370  55.4394120
  76.6754260 106.1545970  54.6754940  77.3389690 104.8534120  55.0736250
  83.5585450 105.0665950  56.0174590  83.4450900 105.3860560  56.9126110
  84.3755190 105.4678460  55.7211870  82.4643600 113.0858420  26.3809330
  82.3837650 112.1713030  26.1101040  82.0508020 113.5825490  25.6749040
  73.0219420 110.1359140  22.9236750  72.1336120 110.4775110  22.8216630
  73.3060610 109.9359460  22.0317580  70.9852430 112.7364790  28.8076450
  71.5568540 111.9686990  28.8080090  70.9853970 113.0353550  27.8983060
  72.2277300 108.1449150  30.5945380  72.0480140 107.2474900  30.8748140
  71.8257380 108.6921020  31.2692330  81.0675800 110.3465010  28.4957690
  81.4440620 109.4736890  28.3831360  80.9695310 110.6823710  27.6048130
  75.1980810 108.7190640  23.9575130  75.3047560 109.6194370  24.2643890
  74.2873170 108.6708610  23.6669780  84.8499920 107.8415450  25.4286030
  85.6709540 107.3512020  25.4711510  84.8834000 108.4313110  26.1817870
  72.8463970 110.6409650  29.2027720  73.5274080 110.9048020  29.8215120
  72.5312020 109.8010520  29.5365730  77.0388540 111.6877010  28.2900310
  77.5466760 112.1857980  28.9305330  77.5701780 110.9112210  28.1139670
  89.1399470 109.8582200  31.9929660  88.4351640 110.2463910  31.4744770
  89.4057390 110.5532490  32.5950590  75.3224640 106.3275570  32.5563730
  75.3243080 106.8447960  31.7509630  74.4928950 105.8505750  32.5333660
  85.0861400 109.7815830  28.2013570  84.3816970 110.0700720  28.7816680
  85.4473560 110.5915940  27.8413130  75.0039970 108.0385530  30.5634180
  75.3456780 108.8827580  30.2688050  74.0655780 108.1869270  30.6799520
  88.1548320 109.2270620  28.5922780  87.2073230 109.2609600  28.7238210
  88.4798310 110.0409570  28.9772140  78.6867860 105.5267800  26.8878770
  78.9942840 104.9714690  26.1714270  77.7568560 105.6612260  26.7051760
  81.0617700 109.8633630  20.6206050  80.1221370 110.0247590  20.7058510
  81.3800960 110.5819310  20.0742040  84.5472470 111.3321470  31.5439950
  84.1343650 112.1575180  31.7979940  83.8148420 110.7466510  31.3516310
  75.3933880 110.8924580  30.1857660  75.9448470 111.0019920  29.4110910
  75.9077390 111.2662180  30.9012890  86.8627750 105.6466550  19.4487930
  86.5500410 105.7393380  20.3487000  87.6240220 106.2247580  19.3985360
  73.3809890 113.0126350  23.9065270  73.2607490 113.7388440  23.2946540
  73.0710780 112.2429260  23.4293180  88.0729040 110.3838050  35.4262070
  87.4573310 110.8917720  34.8977530  87.7525460 109.4836380  35.3688010
  75.8473550 106.3561420  27.2888940  75.4041700 107.1370960  26.9573460
  76.4058540 106.6791310  27.9959880  80.1343360 109.2229940  32.8924260
  79.6722730 109.4312960  33.7044200  79.7321470 108.4089290  32.5894930
  85.1347870 110.4438890  34.0220920  84.2841460 110.1444640  34.3429990
  84.9749660 110.6880900  33.1104740  82.2297580 111.9440640  36.1219710
  82.5550990 111.1104390  35.7821940  83.0177910 112.4669160  36.2698040
  78.9632370 105.9772120  22.1694770  78.3386550 105.9731990  22.8948080
  78.8762490 105.1103080  21.7730740  77.8849450 106.9008750  29.1478540
  78.1821780 107.8071580  29.0670560  78.4335010 106.4127530  28.5338110
  75.6387770 111.4794990  25.0170190  75.4128690 111.2632160  25.9216810
  74.8580300 111.9123450  24.6716160  82.8685530 111.4858360  23.6160840
  82.2694420 112.2094160  23.4324460  83.4165140 111.4235140  22.8337290
  78.0786980 112.3780570  35.6830460  77.9830580 111.4375300  35.5330860
  78.9218960 112.5995640  35.2878530  81.4750400 110.1221900  25.6464120
  81.8679970 110.4394100  24.8332810  81.8367250 109.2433780  25.7608640
  73.2097520 108.7894240  33.8364240  72.8160910 109.6369450  34.0437020
  72.5215920 108.1520610  34.0272880  79.7842570 108.8729210  36.9060980
  79.0940890 108.6801410  37.5407070  80.5274870 109.1563850  37.4385280
  70.5114570 106.7122700  27.8694320  70.2227620 107.2825560  28.5819300
  71.2560330 106.2327150  28.2325550  70.6984800 110.6542820  19.0797040
  70.6159470 111.5973580  19.2212030  70.3467860 110.5117730  18.2009390
  82.0605540 112.7127650  29.7414900  81.3286660 113.2214460  30.0905000
  81.6629880 111.8957630  29.4403680  78.4982930 109.3881850  28.1467390
  78.5018990 108.9471800  27.2971930  79.3934050 109.7099180  28.2539210
  74.3485310 109.2708340  27.1061600  74.0085360 109.7483570  27.8628650
  73.5862630 108.8173460  26.7462700  78.5603080 110.3893930  21.1374150
  78.6815900 110.3480410  22.0859970  78.1751590 111.2518080  20.9820880
  82.5231450 108.1661330  29.1537840  82.5404190 108.6169980  29.9979690
  82.2747030 107.2666970  29.3671280  77.5724580 112.6995070  20.5357450
  77.0041480 112.2513320  19.9093360  78.2813580 113.0587850  20.0022600
  85.9502200 105.5793510  34.9924220  86.2747970 104.8483170  35.5182200
  85.9858710 105.2607150  34.0905210  71.6631390 108.1927320  26.0226270
  71.3778310 107.8282990  26.8604890  71.6010250 107.4607780  25.4089410
  76.5890270 112.4892270  32.2117010  76.2847340 113.3684250  32.4367370
  77.5436730 112.5492060  32.2474450  81.3369980 107.0856580  22.7439640
  80.5234590 106.5869750  22.6684950  81.1431930 107.9254830  22.3275990
  84.0518370 111.4576230  21.0401800  84.9397990 111.7693460  20.8653140
  84.0223460 110.5848480  20.6482380  86.3232640 112.7688070  20.5081660
  86.2396360 113.2002290  19.6578100  87.0426830 113.2286420  20.9408480
  74.2208640 105.0597130  24.5753770  74.0923270 105.0515030  25.5238690
  73.3970660 105.3980220  24.2244780  71.2202570 106.8188250  34.0360470
  70.5061090 107.0185170  34.6413080  71.6397610 106.0427820  34.4075270
  82.7141350 109.3110560  31.7861920  83.0822170 108.4905770  32.1141490
  81.8539550 109.3712450  32.2017570  86.0803380 108.2667500  22.5949480
  85.4516540 108.3713170  21.8807710  85.5855300 108.4864280  23.3843360
  78.0487410 110.5453450  24.0107360  77.3403560 111.0139790  24.4520970
  78.3331890 109.8875460  24.6452550  79.6743340 111.9650150  32.0099890
  80.1728590 112.4395970  32.6751740  79.8166290 111.0413670  32.2169920
  82.0802840 107.2704110  25.4503150  81.9570620 107.2890240  24.5012660
  83.0287400 107.3183050  25.5701550  76.2522430 108.8538530  21.3858070
  77.1012960 109.2908680  21.3198260  75.8853700 109.1658790  22.2130130
  86.8810200 108.1818110  32.8528280  86.3783800 108.9223510  33.1922090
  87.6966860 108.5702110  32.5365070  85.1732210 113.4251290  26.2989640
  84.2322350 113.4401520  26.4737330  85.4876280 112.6387250  26.7449940
  73.8460610 112.5395960  20.5426490  73.9264200 111.5923470  20.6543890
  74.7380360 112.8702840  20.6487150  73.4054490 112.5040470  36.6732730
  73.4459830 112.2054340  37.5817960  74.2599990 112.9048080  36.5140250
  75.3460300 111.0832570  34.6407220  74.8156760 110.5923520  34.0130560
  76.0148370 111.5116770  34.1065150  84.7160530 112.8898190  36.4087560
  85.2981300 112.1350510  36.3208040  84.8922300 113.4205630  35.6319040
  75.8332600 108.0494940  34.7204510  75.7389470 107.4315690  33.9955380
  75.2529990 108.7761230  34.4934420  78.5994040 106.6068180  31.7531900
  78.1511340 106.6292440  30.9077450  77.9659240 106.2087200  32.3502200
  81.3417490 113.2338690  33.7582180  81.4613700 112.6379830  34.4977020
  82.2011490 113.2708380  33.3383480  76.0791780 111.1769250  18.7794400
  75.8780840 110.3136610  19.1407740  75.9083830 111.0902610  17.8416000
  78.1086260 109.7760040  35.0158000  78.6985950 109.4675890  35.7035820
  77.2906500 109.3039790  35.1717900  82.9279690 109.3925850  35.2491020
  82.2395210 108.7307390  35.1841010  83.6485710 108.9464120  35.6939480
  83.5580090 105.9877480  21.3081280  83.8382380 105.1445380  21.6640700
  82.7845820 106.2200590  21.8220030  74.8774580 108.2769870  18.7672280
  75.1800480 108.2837300  17.8591430  75.6169170 107.9267730  19.2639940
  78.0959510 107.2204490  19.7528480  77.7481510 106.5428480  19.1730930
  78.2972280 106.7594000  20.5671870  71.4365150 113.7492140  26.1492850
  70.7813990 113.4803780  25.5052550  72.2743100 113.6396620  25.6994830
  84.3855590 108.5433430  20.3711340  84.8040470 108.3564410  19.5308000
  84.0791650 107.6912480  20.6814270  87.8845320 113.4557570  24.0687140
  87.5088920 112.6885500  23.6368430  87.1548440 113.8380270  24.5562070
  87.2744940 112.6029090  33.7026660  87.0431030 112.3741840  32.8024610
  87.5349490 113.5228640  33.6571550  72.0257080 111.0453800  34.5954610
  71.1313130 111.0120560  34.9348320  72.5654630 111.2440590  35.3605860
  85.7133010 107.8285520  36.4806360  86.5903190 107.8368920  36.8640360
  85.7253850 107.0916360  35.8698710  70.6503230 110.9591070  22.0918180
  69.7467310 111.2221270  21.9169840  71.1343850 111.2302240  21.3118140
  87.1596280 111.6815060  27.3694380  87.6833760 111.1877710  26.7384550
  87.7455700 111.8165420  28.1141950  87.3386000 111.7654930  30.8913930
  86.3888710 111.7318470  31.0058920  87.5199010 112.6755040  30.6563700
  73.1930440 110.0156610  20.0012560  73.9022140 109.5939830  19.5159840
  72.4770380 110.0831840  19.3695910  72.8404600 106.0695940  19.0415210
  73.5632730 106.6104880  19.3596430  73.1129120 105.7959360  18.1656750
  86.6496250 110.9388410  23.3086790  87.1455370 110.7059280  24.0935670
  86.4512320 110.1000250  22.8924430  72.5296790 105.3202130  28.9437830
  73.1772980 104.7699510  28.5032990  72.9498630 105.5745280  29.7653640
  88.0783410 109.5749360  25.8424470  87.9682690 109.4205400  26.7806740
  88.8391000 109.0470300  25.5999880  86.4249130 105.5143490  32.3007470
  87.0621350 106.1277630  32.6666660  86.5724020 105.5504150  31.3556700
  88.9673680 107.4057280  19.0830610  89.8922990 107.2738460  18.8748900
  88.9449470 107.4850100  20.0367060  89.0412170 108.1767940  21.7087320
  88.2463670 108.1113060  22.2380230  89.2455450 109.1118580  21.6972670
  72.2828790 105.4757800  31.6863150  71.9343610 105.9321620  32.4521330
  71.9516490 104.5814930  31.7685580  79.7953610 106.6669680  35.2082570
  79.7342500 107.2591510  35.9577980  80.7353990 106.5595640  35.0632830
  82.4328170 106.3239740  34.8474860  83.0468580 106.6419030  34.1855940
  82.9777730 105.8388330  35.4670720  72.9549430 105.0034000  34.9613920
  73.5032420 104.8222050  34.1980030  73.0204740 104.2128110  35.4970230
  83.1736210 104.8871880  31.1744150  82.2996050 105.2206990  30.9717080
  83.0646960 104.4145060  31.9996020  84.0808190 107.0942750  32.5585870
  83.7521550 106.2794510  32.1787600  85.0290490 107.0512560  32.4351560
  80.9211030 105.8041720  30.1137060  80.1382820 106.2787220  30.3933820
  80.6273960 104.8996550  30.0050240  85.4732100 106.5064820  28.1586150
  85.9140190 106.4509920  27.3107750  85.2039690 107.4222830  28.2296330
  87.3370670 106.1380060  26.1694970  87.2759070 105.1941280  26.0225990
  88.1162700 106.2460150  26.7148430  72.2651440 106.1089200  22.6350780
  73.0230800 106.2218080  22.0614810  71.8028610 106.9458400  22.5894210
  78.8065250 108.2228470  25.6253090  77.9939760 107.8485360  25.2848970
  79.3106890 107.4673550  25.9274280  83.3090230 104.8870920  26.8636160
  83.9119600 105.4591130  27.3384680  82.5683220 105.4510360  26.6410060
  86.4524830 105.2892480  22.1376440  86.6475460 106.1875930  22.4043870
  85.6654700 105.0579560  22.6309390  74.6376590 106.6353250  21.1752750
  75.1669350 105.8483050  21.0460700  75.2704910 107.3144440  21.4088280
  76.8314430 106.3728390  24.2298140  76.2017170 105.6715700  24.3968270
  76.2919570 107.1332520  24.0131300  76.9569990 105.6512370  36.6650630
  76.6754260 106.1545970  35.9011450  77.3389690 104.8534120  36.2992760
  83.5585450 105.0665950  37.2431100  83.4450900 105.3860560  38.1382620
  84.3755190 105.4678460  36.9468380  82.4643600 113.0858420   7.6065840
  82.3837650 112.1713030   7.3357550  82.0508020 113.5825490   6.9005550
  73.0219420 110.1359140   4.1493260  72.1336120 110.4775110   4.0473140
  73.3060610 109.9359460   3.2574090  70.9852430 112.7364790  10.0332960
  71.5568540 111.9686990  10.0336600  70.9853970 113.0353550   9.1239570
  72.2277300 108.1449150  11.8201890  72.0480140 107.2474900  12.1004650
  71.8257380 108.6921020  12.4948840  81.0675800 110.3465010   9.7214200
  81.4440620 109.4736890   9.6087870  80.9695310 110.6823710   8.8304640
  75.1980810 108.7190640   5.1831640  75.3047560 109.6194370   5.4900400
  74.2873170 108.6708610   4.8926290  84.8499920 107.8415450   6.6542540
  85.6709540 107.3512020   6.6968020  84.8834000 108.4313110   7.4074380
  72.8463970 110.6409650  10.4284230  73.5274080 110.9048020  11.0471630
  72.5312020 109.8010520  10.7622240  77.0388540 111.6877010   9.5156820
  77.5466760 112.1857980  10.1561840  77.5701780 110.9112210   9.3396180
  89.1399470 109.8582200  13.2186170  88.4351640 110.2463910  12.7001280
  89.4057390 110.5532490  13.8207100  75.3224640 106.3275570  13.7820240
  75.3243080 106.8447960  12.9766140  74.4928950 105.8505750  13.7590170
  85.0861400 109.7815830   9.4270080  84.3816970 110.0700720  10.0073190
  85.4473560 110.5915940   9.0669640  75.0039970 108.0385530  11.7890690
  75.3456780 108.8827580  11.4944560  74.0655780 108.1869270  11.9056030
  88.1548320 109.2270620   9.8179290  87.2073230 109.2609600   9.9494720
  88.4798310 110.0409570  10.2028650  78.6867860 105.5267800   8.1135280
  78.9942840 104.9714690   7.3970780  77.7568560 105.6612260   7.9308270
  81.0617700 109.8633630   1.8462560  80.1221370 110.0247590   1.9315020
  81.3800960 110.5819310   1.2998550  84.5472470 111.3321470  12.7696460
  84.1343650 112.1575180  13.0236450  83.8148420 110.7466510  12.5772820
  75.3933880 110.8924580  11.4114170  75.9448470 111.0019920  10.6367420
  75.9077390 111.2662180  12.1269400  73.3809890 113.0126350   5.1321780
  73.2607490 113.7388440   4.5203050  73.0710780 112.2429260   4.6549690
  88.0729040 110.3838050  16.6518580  87.4573310 110.8917720  16.1234040
  87.7525460 109.4836380  16.5944520  75.8473550 106.3561420   8.5145450
  75.4041700 107.1370960   8.1829970  76.4058540 106.6791310   9.2216390
  80.1343360 109.2229940  14.1180770  79.6722730 109.4312960  14.9300710
  79.7321470 108.4089290  13.8151440  85.1347870 110.4438890  15.2477430
  84.2841460 110.1444640  15.5686500  84.9749660 110.6880900  14.3361250
  82.2297580 111.9440640  17.3476220  82.5550990 111.1104390  17.0078450
  83.0177910 112.4669160  17.4954550  78.9632370 105.9772120   3.3951280
  78.3386550 105.9731990   4.1204590  78.8762490 105.1103080   2.9987250
  77.8849450 106.9008750  10.3735050  78.1821780 107.8071580  10.2927070
  78.4335010 106.4127530   9.7594620  75.6387770 111.4794990   6.2426700
  75.4128690 111.2632160   7.1473320  74.8580300 111.9123450   5.8972670
  82.8685530 111.4858360   4.8417350  82.2694420 112.2094160   4.6580970
  83.4165140 111.4235140   4.0593800  78.0786980 112.3780570  16.9086970
  77.9830580 111.4375300  16.7587370  78.9218960 112.5995640  16.5135040
  81.4750400 110.1221900   6.8720630  81.8679970 110.4394100   6.0589320
  81.8367250 109.2433780   6.9865150  73.2097520 108.7894240  15.0620750
  72.8160910 109.6369450  15.2693530  72.5215920 108.1520610  15.2529390
  79.7842570 108.8729210  18.1317490  79.0940890 108.6801410  18.7663580
  80.5274870 109.1563850  18.6641790  70.5114570 106.7122700   9.0950830
  70.2227620 107.2825560   9.8075810  71.2560330 106.2327150   9.4582060
  82.0605540 112.7127650  10.9671410  81.3286660 113.2214460  11.3161510
  81.6629880 111.8957630  10.6660190  78.4982930 109.3881850   9.3723900
  78.5018990 108.9471800   8.5228440  79.3934050 109.7099180   9.4795720
  74.3485310 109.2708340   8.3318110  74.0085360 109.7483570   9.0885160
  73.5862630 108.8173460   7.9719210  78.5603080 110.3893930   2.3630660
  78.6815900 110.3480410   3.3116480  78.1751590 111.2518080   2.2077390
  82.5231450 108.1661330  10.3794350  82.5404190 108.6169980  11.2236200
  82.2747030 107.2666970  10.5927790  85.9502200 105.5793510  16.2180730
  86.2747970 104.8483170  16.7438710  85.9858710 105.2607150  15.3161720
  71.6631390 108.1927320   7.2482780  71.3778310 107.8282990   8.0861400
  71.6010250 107.4607780   6.6345920  76.5890270 112.4892270  13.4373520
  76.2847340 113.3684250  13.6623880  77.5436730 112.5492060  13.4730960
  81.3369980 107.0856580   3.9696150  80.5234590 106.5869750   3.8941460
  81.1431930 107.9254830   3.5532500  84.0518370 111.4576230   2.2658310
  84.9397990 111.7693460   2.0909650  84.0223460 110.5848480   1.8738890
  74.2208640 105.0597130   5.8010280  74.0923270 105.0515030   6.7495200
  73.3970660 105.3980220   5.4501290  71.2202570 106.8188250  15.2616980
  70.5061090 107.0185170  15.8669590  71.6397610 106.0427820  15.6331780
  82.7141350 109.3110560  13.0118430  83.0822170 108.4905770  13.3398000
  81.8539550 109.3712450  13.4274080  86.0803380 108.2667500   3.8205990
  85.4516540 108.3713170   3.1064220  85.5855300 108.4864280   4.6099870
  78.0487410 110.5453450   5.2363870  77.3403560 111.0139790   5.6777480
  78.3331890 109.8875460   5.8709060  79.6743340 111.9650150  13.2356400
  80.1728590 112.4395970  13.9008250  79.8166290 111.0413670  13.4426430
  82.0802840 107.2704110   6.6759660  81.9570620 107.2890240   5.7269170
  83.0287400 107.3183050   6.7958060  76.2522430 108.8538530   2.6114580
  77.1012960 109.2908680   2.5454770  75.8853700 109.1658790   3.4386640
  86.8810200 108.1818110  14.0784790  86.3783800 108.9223510  14.4178600
  87.6966860 108.5702110  13.7621580  85.1732210 113.4251290   7.5246150
  84.2322350 113.4401520   7.6993840  85.4876280 112.6387250   7.9706450
  73.8460610 112.5395960   1.7683000  73.9264200 111.5923470   1.8800400
  74.7380360 112.8702840   1.8743660  73.4054490 112.5040470  17.8989240
  73.4459830 112.2054340  18.8074470  74.2599990 112.9048080  17.7396760
  75.3460300 111.0832570  15.8663730  74.8156760 110.5923520  15.2387070
  76.0148370 111.5116770  15.3321660  84.7160530 112.8898190  17.6344070
  85.2981300 112.1350510  17.5464550  84.8922300 113.4205630  16.8575550
  75.8332600 108.0494940  15.9461020  75.7389470 107.4315690  15.2211890
  75.2529990 108.7761230  15.7190930  78.5994040 106.6068180  12.9788410
  78.1511340 106.6292440  12.1333960  77.9659240 106.2087200  13.5758710
  81.3417490 113.2338690  14.9838690  81.4613700 112.6379830  15.7233530
  82.2011490 113.2708380  14.5639990  78.1086260 109.7760040  16.2414510
  78.6985950 109.4675890  16.9292330  77.2906500 109.3039790  16.3974410
  82.9279690 109.3925850  16.4747530  82.2395210 108.7307390  16.4097520
  83.6485710 108.9464120  16.9195990  83.5580090 105.9877480   2.5337790
  83.8382380 105.1445380   2.8897210  82.7845820 106.2200590   3.0476540
  71.4365150 113.7492140   7.3749360  70.7813990 113.4803780   6.7309060
  72.2743100 113.6396620   6.9251340  87.8845320 113.4557570   5.2943650
  87.5088920 112.6885500   4.8624940  87.1548440 113.8380270   5.7818580
  87.2744940 112.6029090  14.9283170  87.0431030 112.3741840  14.0281120
  87.5349490 113.5228640  14.8828060  72.0257080 111.0453800  15.8211120
  71.1313130 111.0120560  16.1604830  72.5654630 111.2440590  16.5862370
  85.7133010 107.8285520  17.7062870  86.5903190 107.8368920  18.0896870
  85.7253850 107.0916360  17.0955220  70.6503230 110.9591070   3.3174690
  69.7467310 111.2221270   3.1426350  71.1343850 111.2302240   2.5374650
  87.1596280 111.6815060   8.5950890  87.6833760 111.1877710   7.9641060
  87.7455700 111.8165420   9.3398460  87.3386000 111.7654930  12.1170440
  86.3888710 111.7318470  12.2315430  87.5199010 112.6755040  11.8820210
  86.6496250 110.9388410   4.5343300  87.1455370 110.7059280   5.3192180
  86.4512320 110.1000250   4.1180940  72.5296790 105.3202130  10.1694340
  73.1772980 104.7699510   9.7289500  72.9498630 105.5745280  10.9910150
  88.0783410 109.5749360   7.0680980  87.9682690 109.4205400   8.0063250
  88.8391000 109.0470300   6.8256390  86.4249130 105.5143490  13.5263980
  87.0621350 106.1277630  13.8923170  86.5724020 105.5504150  12.5813210
  89.0412170 108.1767940   2.9343830  88.2463670 108.1113060   3.4636740
  89.2455450 109.1118580   2.9229180  72.2828790 105.4757800  12.9119660
  71.9343610 105.9321620  13.6777840  71.9516490 104.5814930  12.9942090
  79.7953610 106.6669680  16.4339080  79.7342500 107.2591510  17.1834490
  80.7353990 106.5595640  16.2889340  82.4328170 106.3239740  16.0731370
  83.0468580 106.6419030  15.4112450  82.9777730 105.8388330  16.6927230
  72.9549430 105.0034000  16.1870430  73.5032420 104.8222050  15.4236540
  73.0204740 104.2128110  16.7226740  83.1736210 104.8871880  12.4000660
  82.2996050 105.2206990  12.1973590  83.0646960 104.4145060  13.2252530
  84.0808190 107.0942750  13.7842380  83.7521550 106.2794510  13.4044110
  85.0290490 107.0512560  13.6608070  80.9211030 105.8041720  11.3393570
  80.1382820 106.2787220  11.6190330  80.6273960 104.8996550  11.2306750
  85.4732100 106.5064820   9.3842660  85.9140190 106.4509920   8.5364260
  85.2039690 107.4222830   9.4552840  87.3370670 106.1380060   7.3951480
  87.2759070 105.1941280   7.2482500  88.1162700 106.2460150   7.9404940
  72.2651440 106.1089200   3.8607290  73.0230800 106.2218080   3.2871320
  71.8028610 106.9458400   3.8150720  78.8065250 108.2228470   6.8509600
  77.9939760 107.8485360   6.5105480  79.3106890 107.4673550   7.1530790
  83.3090230 104.8870920   8.0892670  83.9119600 105.4591130   8.5641190
  82.5683220 105.4510360   7.8666570  86.4524830 105.2892480   3.3632950
  86.6475460 106.1875930   3.6300380  85.6654700 105.0579560   3.8565900
  74.6376590 106.6353250   2.4009260  75.1669350 105.8483050   2.2717210
  75.2704910 107.3144440   2.6344790  76.8314430 106.3728390   5.4554650
  76.2017170 105.6715700   5.6224780  76.2919570 107.1332520   5.2387810
  76.9569990 105.6512370  17.8907140  76.6754260 106.1545970  17.1267960
  77.3389690 104.8534120  17.5249270  83.5585450 105.0665950  18.4687610
  83.4450900 105.3860560  19.3639130  84.3755190 105.4678460  18.1724890
  82.4643600  94.3114930 101.4783290  82.3837650  93.3969540 101.2075000
  82.0508020  94.8082000 100.7723000  80.5961640  96.0893950 103.3592560
  79.8203740  95.6094390 103.6491130  81.2474570  95.4099600 103.1848720
  74.6127470  96.4013760 104.2368320  73.7812350  96.1462470 104.6364830
  75.2208450  96.4724530 104.9726240  84.6169070 100.4954140 102.1391690
  84.1550600  99.7241380 102.4678860  85.4294620 100.5220210 102.6444140
  74.5928730 100.4353850 104.4326340  74.8956770  99.5451590 104.2536560
  75.3372320 100.9924070 104.2048590  73.0219420  91.3615650  98.0210710
  72.1336120  91.7031620  97.9190590  73.3060610  91.1615970  97.1291540
  70.9852430  93.9621300 103.9050410  71.5568540  93.1943500 103.9054050
  70.9853970  94.2610060 102.9957020  80.8432380 102.7812150 101.7595680
  80.2243820 103.2369650 101.1890120  81.6984160 102.9363610 101.3585380
  80.0370630  98.7651140 103.3662720  79.9678910  97.8241080 103.2051850
  80.7990490  98.8552550 103.9385290  72.2277300  89.3705660 105.6919340
  72.0480140  88.4731410 105.9722100  71.8257380  89.9177530 106.3666290
  81.0675800  91.5721520 103.5931650  81.4440620  90.6993400 103.4805320
  80.9695310  91.9080220 102.7022090  75.1980810  89.9447150  99.0549090
  75.3047560  90.8450880  99.3617850  74.2873170  89.8965120  98.7643740
  84.8499920  89.0671960 100.5259990  85.6709540  88.5768530 100.5685470
  84.8834000  89.6569620 101.2791830  72.8463970  91.8666160 104.3001680
  73.5274080  92.1304530 104.9189080  72.5312020  91.0267030 104.6339690
  77.0388540  92.9133520 103.3874270  77.5466760  93.4114490 104.0279290
  77.5701780  92.1368720 103.2113630  89.1399470  91.0838710 107.0903620
  88.4351640  91.4720420 106.5718730  89.4057390  91.7789000 107.6924550
  75.3224640  87.5532080 107.6537690  75.3243080  88.0704470 106.8483590
  74.4928950  87.0762260 107.6307620  81.7095730  97.6651390  99.1527590
  81.0913000  98.1300840  98.5890310  82.2218980  98.3578870  99.5697100
  76.5727490  97.1927260 105.8311190  76.2396870  97.8196180 106.4732260
  76.7494170  97.7189140 105.0512860  85.0861400  91.0072340 103.2987530
  84.3816970  91.2957230 103.8790640  85.4473560  91.8172450 102.9387090
  75.0039970  89.2642040 105.6608140  75.3456780  90.1084090 105.3662010
  74.0655780  89.4125780 105.7773480  75.7846590  99.1608060 107.6460370
  76.4020590  99.8359140 107.3644820  74.9239710  99.5696040 107.5547870
  71.0778930  98.3507920  96.5267220  70.7006910  98.8395020  95.7952120
  71.3352000  99.0233200  97.1573750  86.7024180 100.6247470 105.5615010
  86.0187700 101.2946580 105.5531680  87.2418470 100.8228120 104.7959870
  88.1548320  90.4527130 103.6896740  87.2073230  90.4866110 103.8212170
  88.4798310  91.2666080 104.0746100  78.6867860  86.7524310 101.9852730
  78.9942840  86.1971200 101.2688230  77.7568560  86.8868770 101.8025720
  84.2382920 102.4691600 104.2760190  84.2510080 102.0653890 103.4082450
  83.6858140 103.2438890 104.1721620  85.5328340  99.1907820  99.3650360
  85.4224670  98.2482150  99.4899780  85.5296590  99.5523460 100.2513120
  83.6368360  97.3721440 105.6042800  84.0537150  97.1581550 104.7696260
  84.3608180  97.6294230 106.1751420  81.0748620  94.8173140  98.7212850
  80.1477900  94.7510520  98.9501320  81.2273440  95.7553270  98.6068090
  81.0617700  91.0890140  95.7180010  80.1221370  91.2504100  95.8032470
  81.3800960  91.8075820  95.1716000  87.5830460  95.7708660 105.6959040
  86.7549090  95.8401750 105.2209170  88.1780940  96.3562970 105.2274870
  85.1045910  96.3793440  99.2248100  84.4858330  96.0412990  98.5774400
  85.0870360  95.7353200  99.9327290  84.5472470  92.5577980 106.6413910
  84.1343650  93.3831690 106.8953900  83.8148420  91.9723020 106.4490270
  76.6805260  95.3437880 101.5032580  76.2762260  94.6315130 101.0078480
  76.7668380  94.9991120 102.3920620  77.1486960  99.0305440 103.6671790
  76.8515250  98.4250910 102.9879570  78.0986780  99.0682750 103.5561150
  75.3933880  92.1181090 105.2831620  75.9448470  92.2276430 104.5084870
  75.9077390  92.4918690 105.9986850  85.2372570 102.6037310 107.3294890
  84.7603130 103.4109500 107.1367500  84.5534360 101.9515640 107.4821100
  76.2405390  98.7687130 110.3179590  75.3433920  98.9927100 110.5652990
  76.2658260  98.8922070 109.3690990  83.2810610  95.6180250  96.2320850
  83.7203890  94.7802680  96.0858670  83.9939030  96.2509650  96.3184990
  75.0676610  95.6400450 108.8936960  74.9284380  96.5123250 109.2624360
  74.1857970  95.2973260 108.7484900  81.3905990 100.5576320 100.2002090
  81.8301900 101.3000650  99.7857480  81.3292880 100.8002890 101.1241050
  86.8627750  86.8723060  94.5461890  86.5500410  86.9649890  95.4460960
  87.6240220  87.4504090  94.4959320  73.3809890  94.2382860  99.0039230
  73.2607490  94.9644950  98.3920500  73.0710780  93.4685770  98.5267140
  71.0195260  97.4098000 104.8107870  71.0975680  97.5446770 103.8663590
  71.6336940  96.7013890 105.0035990  72.2642890  99.1098190 101.2214050
  71.8570970  99.2512780 100.3667650  73.1555900  98.8258350 101.0185260
  88.2205030  99.5562100 109.5586290  88.3468090  99.3173980 108.6403470
  88.2626410  98.7246640 110.0308370  82.0821770 103.2590100 108.1281100
  82.5966440 103.1698110 108.9303530  81.2390850 103.6049800 108.4209010
  84.0576170 103.5445440  97.5565100  83.8977310 103.2548380  98.4546930
  83.8922880 102.7685570  97.0210330  76.5364550 103.3243970  99.3336720
  76.3607030 102.4079510  99.1204520  75.6820290 103.6831260  99.5734520
  83.7602300 101.0533000  96.1163100  83.0667460 101.0510290  95.4565380
  84.5025160 100.6292320  95.6857270  83.3252230 102.6795710 100.1911590
  83.7809180 101.8985090 100.5050210  83.6644750 103.3902530 100.7352770
  88.0729040  91.6094560 110.5236030  87.4573310  92.1174230 109.9951490
  87.7525460  90.7092890 110.4661970  71.0754780  98.4512170 107.3502330
  71.2385820  97.9817530 106.5321700  71.5407230  97.9435730 108.0151170
  75.8473550  87.5817930 102.3862900  75.4041700  88.3627470 102.0547420
  76.4058540  87.9047820 103.0933840  80.1343360  90.4486450 107.9898220
  79.6722730  90.6569470 108.8018160  79.7321470  89.6345800 107.6868890
  85.1347870  91.6695400 109.1194880  84.2841460  91.3701150 109.4403950
  84.9749660  91.9137410 108.2078700  78.9632370  87.2028630  97.2668730
  78.3386550  87.1988500  97.9922040  78.8762490  86.3359590  96.8704700
  77.8849450  88.1265260 104.2452500  78.1821780  89.0328090 104.1644520
  78.4335010  87.6384040 103.6312070  75.6387770  92.7051500 100.1144150
  75.4128690  92.4888670 101.0190770  74.8580300  93.1379960  99.7690120
  82.8685530  92.7114870  98.7134800  82.2694420  93.4350670  98.5298420
  83.4165140  92.6491650  97.9311250  78.0786980  93.6037080 110.7804420
  77.9830580  92.6631810 110.6304820  78.9218960  93.8252150 110.3852490
  81.4750400  91.3478410 100.7438080  81.8679970  91.6650610  99.9306770
  81.8367250  90.4690290 100.8582600  73.2097520  90.0150750 108.9338200
  72.8160910  90.8625960 109.1410980  72.5215920  89.3777120 109.1246840
  70.5114570  87.9379210 102.9668280  70.2227620  88.5082070 103.6793260
  71.2560330  87.4583660 103.3299510  70.6984800  91.8799330  94.1771000
  70.6159470  92.8230090  94.3185990  70.3467860  91.7374240  93.2983350
  82.0605540  93.9384160 104.8388860  81.3286660  94.4470970 105.1878960
  81.6629880  93.1214140 104.5377640  78.4982930  90.6138360 103.2441350
  78.5018990  90.1728310 102.3945890  79.3934050  90.9355690 103.3513170
  74.3485310  90.4964850 102.2035560  74.0085360  90.9740080 102.9602610
  73.5862630  90.0429970 101.8436660  78.5603080  91.6150440  96.2348110
  78.6815900  91.5736920  97.1833930  78.1751590  92.4774590  96.0794840
  82.5231450  89.3917840 104.2511800  82.5404190  89.8426490 105.0953650
  82.2747030  88.4923480 104.4645240  77.5724580  93.9251580  95.6331410
  77.0041480  93.4769830  95.0067320  78.2813580  94.2844360  95.0996560
  85.9502200  86.8050020 110.0898180  86.2747970  86.0739680 110.6156160
  85.9858710  86.4863660 109.1879170  72.6493760  97.8263600 109.5098140
  72.2648550  97.1857270 110.1081100  72.9605950  98.5299720 110.0792870
  78.7990900  94.6740140 104.9906760  79.1661030  94.1998710 105.7368100
  78.6095960  95.5481710 105.3315100  71.6631390  89.4183830 101.1200230
  71.3778310  89.0539500 101.9578850  71.6010250  88.6864290 100.5063370
  76.5890270  93.7148780 107.3090970  76.2847340  94.5940760 107.5341330
  77.5436730  93.7748570 107.3448410  75.1172060  97.9209770  97.9057820
  74.3434320  97.3807390  97.7456540  75.8466690  97.4016380  97.5675580
  85.8760040  96.9175130 103.6984210  86.5959160  97.4130420 103.3080320
  85.6741860  96.2393020 103.0538080  81.3369980  88.3113090  97.8413600
  80.5234590  87.8126260  97.7658910  81.1431930  89.1511340  97.4249950
  81.2578840  96.9884190 109.5853210  81.1916150  96.0679860 109.3310800
  80.6283980  97.0859630 110.2997850  84.0518370  92.6832740  96.1375760
  84.9397990  92.9949970  95.9627100  84.0223460  91.8104990  95.7456340
  75.1609460  97.5890150 101.5436630  75.6788130  96.7858410 101.4893520
  74.7093480  97.5269290 102.3853460  80.0478960  98.8556430  96.8163930
  80.3894660  99.5998660  96.3207250  79.2191670  99.1687550  97.1788760
  72.6454000  94.5551520 108.4562330  72.2868940  95.2205370 109.0435670
  72.3508560  93.7235070 108.8274950  81.1895570  99.8104760 109.3357010
  81.2040110  98.8785720 109.1175920  80.4820670  99.8964520 109.9746780
  86.3232640  93.9944580  95.6055620  86.2396360  94.4258800  94.7552060
  87.0426830  94.4542930  96.0382440  87.4006780  96.4512100 108.6825590
  86.6754970  97.0440880 108.4854980  87.9282240  96.4435640 107.8838960
  87.3519890 100.8486840  98.3337750  86.7096050 100.1942460  98.6081470
  86.9650550 101.2541930  97.5578420  82.9306370  98.1772270 102.1809440
  83.2830190  97.5800400 101.5210810  82.0468700  97.8516500 102.3517690
  79.0169650  98.9369960  99.5879850  79.7040780  99.4839170  99.9687440
  78.2302070  99.4810690  99.6229460  71.1562050  94.5542780  95.0796930
  72.0256900  94.8367580  95.3632850  70.6652370  95.3678650  94.9645740
  78.3196860  95.9415990  99.2005210  78.7759640  96.7521240  99.4265400
  77.9685070  95.6239130 100.0323700  80.6229470 101.4522330 106.4297510
  81.2671690 101.6581710 107.1070930  80.9858910 100.6910730 105.9768360
  74.2208640  86.2853640  99.6727730  74.0923270  86.2771540 100.6212650
  73.3970660  86.6236730  99.3218740  81.8961550  99.4554680 105.1474960
  82.5383780  98.7547840 105.2607130  82.4210900 100.2353120 104.9671850
  85.7417270  99.7403300  94.8714100  85.5154850  99.0233740  95.4638740
  85.3513470  99.4915740  94.0335850  83.6699170 100.2549580 108.3511020
  84.0055410 100.8416270 109.0288940  82.7499510 100.1242290 108.5808810
  71.5233300 103.7670160  95.6458560  71.8830940 104.3659500  94.9915830
  71.3825640 104.3130050  96.4193590  71.2202570  88.0444760 109.1334430
  70.5061090  88.2441680 109.7387040  71.6397610  87.2684330 109.5049230
  85.3233520  97.6575240  96.5328260  85.0355220  98.1187930  97.3206140
  86.1185690  97.1973010  96.8012480  71.5075160 102.0325020 110.1200960
  71.6166280 101.0919760 109.9796350  70.8555720 102.2979770 109.4714690
  77.5401920 101.1501360  96.4632230  77.5312020 101.8831050  95.8476740
  76.6200280 100.9032940  96.5559190  73.1408560  96.3716250  97.2078990
  72.5336510  97.1115150  97.2174290  73.6157910  96.4615610  96.3817190
  82.7141350  90.5367070 106.8835880  83.0822170  89.7162280 107.2115450
  81.8539550  90.5968960 107.2991530  86.0803380  89.4924010  97.6923440
  85.4516540  89.5969680  96.9781670  85.5855300  89.7120790  98.4817320
  80.5261520 101.2129600  95.1257420  80.6273500 101.0093590  94.1959400
  79.6263260 100.9587880  95.3305200  78.0487410  91.7709960  99.1081320
  77.3403560  92.2396300  99.5494930  78.3331890  91.1131970  99.7426510
  79.6743340  93.1906660 107.1073850  80.1728590  93.6652480 107.7725700
  79.8166290  92.2670180 107.3143880  82.0802840  88.4960620 100.5477110
  81.9570620  88.5146750  99.5986620  83.0287400  88.5439560 100.6675510
  79.1679630 103.7315920  99.8205090  79.4221130 103.6937310  98.8984460
  78.2192110 103.6049250  99.8133340  76.2522430  90.0795040  96.4832030
  77.1012960  90.5165190  96.4172220  75.8853700  90.3915300  97.3104090
  86.8810200  89.4074620 107.9502240  86.3783800  90.1480020 108.2896050
  87.6966860  89.7958620 107.6339030  85.1732210  94.6507800 101.3963600
  84.2322350  94.6658030 101.5711290  85.4876280  93.8643760 101.8423900
  75.1513850  96.3327400  94.9567560  75.9177120  96.2208760  95.5192990
  75.2288540  95.6365370  94.3044330  73.8460610  93.7652470  95.6400450
  73.9264200  92.8179980  95.7517850  74.7380360  94.0959350  95.7461110
  87.1757790 101.8216650 103.0717860  87.3005210 102.6447820 103.5441670
  88.0423350 101.6107380 102.7242010  74.6475320 103.9147860 102.7434990
  75.3837800 103.3663320 103.0143560  75.0316240 104.7803870 102.6040980
  71.5320800  99.9821430  98.6176500  70.6060580 100.2242570  98.6081910
  71.9977230 100.8095690  98.4961250  77.7577630 103.0878170  94.5660560
  78.5506240 103.3767000  94.1142350  77.2381980 102.6570340  93.8873040
  86.8107800 102.3148300  95.9897300  86.5249310 101.9013440  95.1751480
  86.6127350 103.2436010  95.8697820  78.2755030  98.3081580  94.4302910
  78.1705670  97.6933930  95.1564290  78.1079250  97.7847470  93.6465920
  78.4269350  96.9938380 110.4092140  77.6615020  97.5623380 110.3246810
  78.6085310  96.7014590 109.5160370  81.5157760  97.3701610  95.0344900
  80.9667860  97.8170910  95.6787640  82.1377020  96.8650860  95.5582570
  85.5692700  98.7243710 110.9667160  86.3102170  99.0619470 110.4634620
  84.8065380  98.8935770 110.4136930  77.1832880  96.3292530  96.9310200
  77.6049300  96.1632400  97.7741590  77.3083720  95.5192760  96.4365340
  75.3460300  92.3089080 109.7381180  74.8156760  91.8180030 109.1104520
  76.0148370  92.7373280 109.2039110  79.6960520  95.3530140  94.1787300
  80.2166180  94.6379160  93.8128450  80.3428920  95.9916010  94.4787810
  84.2438360  96.7758540 109.5022370  84.6579380  96.9303620 110.3512790
  83.3089360  96.9013760 109.6648150  75.8332600  89.2751450 109.8178470
  75.7389470  88.6572200 109.0929340  75.2529990  90.0017740 109.5908380
  78.5994040  87.8324690 106.8505860  78.1511340  87.8548950 106.0051410
  77.9659240  87.4343710 107.4476160  79.0053590  96.7279020 107.4718300
  79.4241700  97.5711750 107.2994540  78.0862220  96.8651060 107.2425080
  81.3417490  94.4595200 108.8556140  81.4613700  93.8636340 109.5950980
  82.2011490  94.4964890 108.4357440  83.6805390  95.0132390 107.4318650
  83.1540610  95.5375010 106.8283790  84.0236730  95.6459780 108.0628380
  76.0791780  92.4025760  93.8768360  75.8780840  91.5393120  94.2381700
  75.9083830  92.3159120  92.9389960  76.8561010 103.0332030 108.5876030
  76.3182100 103.7578090 108.2684730  77.1094970 102.5562370 107.7973370
  78.1086260  91.0016550 110.1131960  78.6985950  90.6932400 110.8009780
  77.2906500  90.5296300 110.2691860  82.9279690  90.6182360 110.3464980
  82.2395210  89.9563900 110.2814970  83.6485710  90.1720630 110.7913440
  83.5580090  87.2133990  96.4055240  83.8382380  86.3701890  96.7614660
  82.7845820  87.4457100  96.9193990  74.8774580  89.5026380  93.8646240
  75.1800480  89.5093810  92.9565390  75.6169170  89.1524240  94.3613900
  79.7123220 104.2683240 108.8462680  79.6381920 105.1718380 109.1535050
  78.8102060 103.9495140 108.8184750  78.0959510  88.4461000  94.8502440
  77.7481510  87.7684990  94.2704890  78.2972280  87.9850510  95.6645830
  80.2608550 103.4341750  96.4689040  81.1559340 103.7726720  96.4907800
  80.2926180 102.7121160  95.8413320  73.9004710  98.8068800  94.6976040
  74.3379580  99.3498470  95.3533620  74.3852440  97.9815750  94.7072380
  71.1150510 101.5957830 102.1496300  71.4453520 100.7278890 101.9174940
  71.5441510 101.8016350 102.9801260  75.7112430  99.9266840  99.8098270
  75.4107970  99.8031810 100.7102180  75.6049920  99.0675430  99.4014000
  71.6040720 102.4628420 104.8877930  71.1671710 102.6429220 105.7202080
  72.1718400 103.2203040 104.7459650  87.2402900 101.9645420 109.1755240
  86.6404890 102.0237980 108.4319160  87.3696800 101.0250400 109.3052090
  88.4804350  99.7063240  94.5124950  87.6497310  99.7739890  94.9832180
  88.6576180 100.5967360  94.2091810  87.9360810  96.4510720  97.0159150
  88.6979720  97.0207370  97.1218840  87.9515180  95.8837920  97.7867460
  71.4365150  94.9748650 101.2466810  70.7813990  94.7060290 100.6026510
  72.2743100  94.8653130 100.7968790  88.9420780  97.3060820 101.8601080
  89.3129610  96.5228140 101.4537050  89.5822710  97.9949920 101.6818380
  85.9254540  98.6897400 107.2731400  85.1114380  99.1194560 107.5357190
  86.3328740  99.3015810 106.6600450  87.9879980  96.7445090  94.1731670
  88.2628820  97.6523970  94.0450890  87.7990720  96.6807620  95.1093660
  84.3855590  89.7689940  95.4685300  84.8040470  89.5820920  94.6281960
  84.0791650  88.9168990  95.7788230  87.8845320  94.6814080  99.1661100
  87.5088920  93.9142010  98.7342390  87.1548440  95.0636780  99.6536030
  72.4741080  95.3601220 105.7870150  72.8414120  95.2728620 106.6666170
  71.9051900  94.5967770 105.6877010  87.2744940  93.8285600 108.8000620
  87.0431030  93.5998350 107.8998570  87.5349490  94.7485150 108.7545510
  72.0257080  92.2710310 109.6928570  71.1313130  92.2377070 110.0322280
  72.5654630  92.4697100 110.4579820  70.6503230  92.1847580  97.1892140
  69.7467310  92.4477780  97.0143800  71.1343850  92.4558750  96.4092100
  87.1596280  92.9071570 102.4668340  87.6833760  92.4134220 101.8358510
  87.7455700  93.0421930 103.2115910  87.3386000  92.9911440 105.9887890
  86.3888710  92.9574980 106.1032880  87.5199010  93.9011550 105.7537660
  73.1930440  91.2413120  95.0986520  73.9022140  90.8196340  94.6133800
  72.4770380  91.3088350  94.4669870  72.8404600  87.2952450  94.1389170
  73.5632730  87.8361390  94.4570390  73.1129120  87.0215870  93.2630710
  86.6496250  92.1644920  98.4060750  87.1455370  91.9315790  99.1909630
  86.4512320  91.3256760  97.9898390  72.5296790  86.5458640 104.0411790
  73.1772980  85.9956020 103.6006950  72.9498630  86.8001790 104.8627600
  88.0783410  90.8005870 100.9398430  87.9682690  90.6461910 101.8780700
  88.8391000  90.2726810 100.6973840  86.4249130  86.7400000 107.3981430
  87.0621350  87.3534140 107.7640620  86.5724020  86.7760660 106.4530660
  88.9673680  88.6313790  94.1804570  89.8922990  88.4994970  93.9722860
  88.9449470  88.7106610  95.1341020  89.0412170  89.4024450  96.8061280
  88.2463670  89.3369570  97.3354190  89.2455450  90.3375090  96.7946630
  85.9830590 103.4416000 100.7999670  86.5789660 103.1200570 100.1234090
  86.2408740 102.9687820 101.5912940  72.2828790  86.7014310 106.7837110
  71.9343610  87.1578130 107.5495290  71.9516490  85.8071440 106.8659540
  77.5899190 101.4293500 106.5500020  77.3490550 101.6968060 105.6630540
  78.5301830 101.5999230 106.6050880  82.4328170  87.5496250 109.9448820
  83.0468580  87.8675540 109.2829900  82.9777730  87.0644840 110.5644680
  88.8503350 103.4487880 107.3510660  88.3561630 103.8456750 106.6337790
  88.2416640 102.8237090 107.7447940  72.9549430  86.2290510 110.0587880
  73.5032420  86.0478560 109.2953990  73.0204740  85.4384620 110.5944190
  73.7281190 102.8196160 108.0688080  73.1341510 102.6880860 108.8078120
  73.7205030 101.9834300 107.6030180  83.1736210  86.1128390 106.2718110
  82.2996050  86.4463500 106.0691040  83.0646960  85.6401570 107.0969980
  84.0808190  88.3199260 107.6559830  83.7521550  87.5051020 107.2761560
  85.0290490  88.2769070 107.5325520  86.5342800 104.0911300 104.6297400
  86.0745770 104.8427110 104.2555420  85.9055260 103.3717770 104.5712200
  73.3593420 100.1854540 107.0196120  72.6327480  99.5659830 106.9522070
  73.4202570 100.5795150 106.1494200  76.9638520 102.3999540 103.8045530
  77.4803540 101.7886900 103.2793790  77.6135900 102.9028320 104.2956540
  79.7034020 103.2908030 104.6314510  79.9911830 103.0362330 103.7547520
  80.2157240 102.7385390 105.2220080  80.9211030  87.0298230 105.2111020
  80.1382820  87.5043730 105.4907780  80.6273960  86.1253060 105.1024200
  85.4732100  87.7321330 103.2560110  85.9140190  87.6766430 102.4081710
  85.2039690  88.6479340 103.3270290  87.3370670  87.3636570 101.2668930
  87.2759070  86.4197790 101.1199950  88.1162700  87.4716660 101.8122390
  71.6423420 103.5028930 100.2292880  71.4745460 102.8699610 100.9274770
  70.7757930 103.7088330  99.8787070  72.2651440  87.3345710  97.7324740
  73.0230800  87.4474590  97.1588770  71.8028610  88.1714910  97.6868170
  78.8065250  89.4484980 100.7227050  77.9939760  89.0741870 100.3822930
  79.3106890  88.6930060 101.0248240  83.3090230  86.1127430 101.9610120
  83.9119600  86.6847640 102.4358640  82.5683220  86.6766870 101.7384020
  86.4524830  86.5148990  97.2350400  86.6475460  87.4132440  97.5017830
  85.6654700  86.2836070  97.7283350  73.2486120 102.1962160  97.6743020
  72.7233740 102.5770190  96.9704980  73.1730700 102.8212930  98.3952730
  74.6376590  87.8609760  96.2726710  75.1669350  87.0739560  96.1434660
  75.2704910  88.5400950  96.5062240  76.8314430  87.5984900  99.3272100
  76.2017170  86.8972210  99.4942230  76.2919570  88.3589030  99.1105260
  88.0051440 103.7549700  98.9956960  88.1803630 103.0687440  98.3517880
  87.3073010 104.2796750  98.6033630  75.8479090 104.1444540  96.5492270
  76.5797910 103.8603820  96.0016160  76.1072760 103.9057820  97.4391650
  75.0093880 100.2609270  96.5538600  74.3802760 100.7294370  97.1024430
  75.1241710  99.4158490  96.9884790  82.4643600  94.3114930  82.7039800
  82.3837650  93.3969540  82.4331510  82.0508020  94.8082000  81.9979510
  80.5961640  96.0893950  84.5849070  79.8203740  95.6094390  84.8747640
  81.2474570  95.4099600  84.4105230  74.6127470  96.4013760  85.4624830
  73.7812350  96.1462470  85.8621340  75.2208450  96.4724530  86.1982750
  84.6169070 100.4954140  83.3648200  84.1550600  99.7241380  83.6935370
  85.4294620 100.5220210  83.8700650  74.5928730 100.4353850  85.6582850
  74.8956770  99.5451590  85.4793070  75.3372320 100.9924070  85.4305100
  73.0219420  91.3615650  79.2467220  72.1336120  91.7031620  79.1447100
  73.3060610  91.1615970  78.3548050  70.9852430  93.9621300  85.1306920
  71.5568540  93.1943500  85.1310560  70.9853970  94.2610060  84.2213530
  80.8432380 102.7812150  82.9852190  80.2243820 103.2369650  82.4146630
  81.6984160 102.9363610  82.5841890  80.0370630  98.7651140  84.5919230
  79.9678910  97.8241080  84.4308360  80.7990490  98.8552550  85.1641800
  72.2277300  89.3705660  86.9175850  72.0480140  88.4731410  87.1978610
  71.8257380  89.9177530  87.5922800  81.0675800  91.5721520  84.8188160
  81.4440620  90.6993400  84.7061830  80.9695310  91.9080220  83.9278600
  75.1980810  89.9447150  80.2805600  75.3047560  90.8450880  80.5874360
  74.2873170  89.8965120  79.9900250  84.8499920  89.0671960  81.7516500
  85.6709540  88.5768530  81.7941980  84.8834000  89.6569620  82.5048340
  72.8463970  91.8666160  85.5258190  73.5274080  92.1304530  86.1445590
  72.5312020  91.0267030  85.8596200  77.0388540  92.9133520  84.6130780
  77.5466760  93.4114490  85.2535800  77.5701780  92.1368720  84.4370140
  89.1399470  91.0838710  88.3160130  88.4351640  91.4720420  87.7975240
  89.4057390  91.7789000  88.9181060  75.3224640  87.5532080  88.8794200
  75.3243080  88.0704470  88.0740100  74.4928950  87.0762260  88.8564130
  81.7095730  97.6651390  80.3784100  81.0913000  98.1300840  79.8146820
  82.2218980  98.3578870  80.7953610  76.5727490  97.1927260  87.0567700
  76.2396870  97.8196180  87.6988770  76.7494170  97.7189140  86.2769370
  85.0861400  91.0072340  84.5244040  84.3816970  91.2957230  85.1047150
  85.4473560  91.8172450  84.1643600  75.0039970  89.2642040  86.8864650
  75.3456780  90.1084090  86.5918520  74.0655780  89.4125780  87.0029990
  75.7846590  99.1608060  88.8716880  76.4020590  99.8359140  88.5901330
  74.9239710  99.5696040  88.7804380  71.0778930  98.3507920  77.7523730
  70.7006910  98.8395020  77.0208630  71.3352000  99.0233200  78.3830260
  86.7024180 100.6247470  86.7871520  86.0187700 101.2946580  86.7788190
  87.2418470 100.8228120  86.0216380  88.1548320  90.4527130  84.9153250
  87.2073230  90.4866110  85.0468680  88.4798310  91.2666080  85.3002610
  78.6867860  86.7524310  83.2109240  78.9942840  86.1971200  82.4944740
  77.7568560  86.8868770  83.0282230  84.2382920 102.4691600  85.5016700
  84.2510080 102.0653890  84.6338960  83.6858140 103.2438890  85.3978130
  85.5328340  99.1907820  80.5906870  85.4224670  98.2482150  80.7156290
  85.5296590  99.5523460  81.4769630  83.6368360  97.3721440  86.8299310
  84.0537150  97.1581550  85.9952770  84.3608180  97.6294230  87.4007930
  81.0748620  94.8173140  79.9469360  80.1477900  94.7510520  80.1757830
  81.2273440  95.7553270  79.8324600  81.0617700  91.0890140  76.9436520
  80.1221370  91.2504100  77.0288980  81.3800960  91.8075820  76.3972510
  87.5830460  95.7708660  86.9215550  86.7549090  95.8401750  86.4465680
  88.1780940  96.3562970  86.4531380  85.1045910  96.3793440  80.4504610
  84.4858330  96.0412990  79.8030910  85.0870360  95.7353200  81.1583800
  84.5472470  92.5577980  87.8670420  84.1343650  93.3831690  88.1210410
  83.8148420  91.9723020  87.6746780  76.6805260  95.3437880  82.7289090
  76.2762260  94.6315130  82.2334990  76.7668380  94.9991120  83.6177130
  77.1486960  99.0305440  84.8928300  76.8515250  98.4250910  84.2136080
  78.0986780  99.0682750  84.7817660  75.3933880  92.1181090  86.5088130
  75.9448470  92.2276430  85.7341380  75.9077390  92.4918690  87.2243360
  85.2372570 102.6037310  88.5551400  84.7603130 103.4109500  88.3624010
  84.5534360 101.9515640  88.7077610  76.2405390  98.7687130  91.5436100
  75.3433920  98.9927100  91.7909500  76.2658260  98.8922070  90.5947500
  83.2810610  95.6180250  77.4577360  83.7203890  94.7802680  77.3115180
  83.9939030  96.2509650  77.5441500  75.0676610  95.6400450  90.1193470
  74.9284380  96.5123250  90.4880870  74.1857970  95.2973260  89.9741410
  81.3905990 100.5576320  81.4258600  81.8301900 101.3000650  81.0113990
  81.3292880 100.8002890  82.3497560  76.8656960 101.5822150  92.3278620
  76.8372390 101.9865100  91.4607050  76.7021930 100.6532510  92.1650220
  86.8627750  86.8723060  75.7718400  86.5500410  86.9649890  76.6717470
  87.6240220  87.4504090  75.7215830  73.3809890  94.2382860  80.2295740
  73.2607490  94.9644950  79.6177010  73.0710780  93.4685770  79.7523650
  88.8171780 102.3649250  93.6242790  89.2931500 102.8432140  94.3031870
  89.4378940 102.2966740  92.8988290  71.0195260  97.4098000  86.0364380
  71.0975680  97.5446770  85.0920100  71.6336940  96.7013890  86.2292500
  72.2642890  99.1098190  82.4470560  71.8570970  99.2512780  81.5924160
  73.1555900  98.8258350  82.2441770  88.2205030  99.5562100  90.7842800
  88.3468090  99.3173980  89.8659980  88.2626410  98.7246640  91.2564880
  82.0821770 103.2590100  89.3537610  82.5966440 103.1698110  90.1560040
  81.2390850 103.6049800  89.6465520  84.0576170 103.5445440  78.7821610
  83.8977310 103.2548380  79.6803440  83.8922880 102.7685570  78.2466840
  76.5364550 103.3243970  80.5593230  76.3607030 102.4079510  80.3461030
  75.6820290 103.6831260  80.7991030  83.7602300 101.0533000  77.3419610
  83.0667460 101.0510290  76.6821890  84.5025160 100.6292320  76.9113780
  83.3252230 102.6795710  81.4168100  83.7809180 101.8985090  81.7306720
  83.6644750 103.3902530  81.9609280  88.0729040  91.6094560  91.7492540
  87.4573310  92.1174230  91.2208000  87.7525460  90.7092890  91.6918480
  71.0754780  98.4512170  88.5758840  71.2385820  97.9817530  87.7578210
  71.5407230  97.9435730  89.2407680  75.8473550  87.5817930  83.6119410
  75.4041700  88.3627470  83.2803930  76.4058540  87.9047820  84.3190350
  80.1343360  90.4486450  89.2154730  79.6722730  90.6569470  90.0274670
  79.7321470  89.6345800  88.9125400  85.1347870  91.6695400  90.3451390
  84.2841460  91.3701150  90.6660460  84.9749660  91.9137410  89.4335210
  82.2297580  93.1697150  92.4450180  82.5550990  92.3360900  92.1052410
  83.0177910  93.6925670  92.5928510  78.9632370  87.2028630  78.4925240
  78.3386550  87.1988500  79.2178550  78.8762490  86.3359590  78.0961210
  77.8849450  88.1265260  85.4709010  78.1821780  89.0328090  85.3901030
  78.4335010  87.6384040  84.8568580  75.6387770  92.7051500  81.3400660
  75.4128690  92.4888670  82.2447280  74.8580300  93.1379960  80.9946630
  82.8685530  92.7114870  79.9391310  82.2694420  93.4350670  79.7554930
  83.4165140  92.6491650  79.1567760  78.0786980  93.6037080  92.0060930
  77.9830580  92.6631810  91.8561330  78.9218960  93.8252150  91.6109000
  81.4750400  91.3478410  81.9694590  81.8679970  91.6650610  81.1563280
  81.8367250  90.4690290  82.0839110  73.2097520  90.0150750  90.1594710
  72.8160910  90.8625960  90.3667490  72.5215920  89.3777120  90.3503350
  79.7842570  90.0985720  93.2291450  79.0940890  89.9057920  93.8637540
  80.5274870  90.3820360  93.7615750  70.5114570  87.9379210  84.1924790
  70.2227620  88.5082070  84.9049770  71.2560330  87.4583660  84.5556020
  70.6984800  91.8799330  75.4027510  70.6159470  92.8230090  75.5442500
  70.3467860  91.7374240  74.5239860  82.0605540  93.9384160  86.0645370
  81.3286660  94.4470970  86.4135470  81.6629880  93.1214140  85.7634150
  78.4982930  90.6138360  84.4697860  78.5018990  90.1728310  83.6202400
  79.3934050  90.9355690  84.5769680  74.3485310  90.4964850  83.4292070
  74.0085360  90.9740080  84.1859120  73.5862630  90.0429970  83.0693170
  78.5603080  91.6150440  77.4604620  78.6815900  91.5736920  78.4090440
  78.1751590  92.4774590  77.3051350  82.5231450  89.3917840  85.4768310
  82.5404190  89.8426490  86.3210160  82.2747030  88.4923480  85.6901750
  77.5724580  93.9251580  76.8587920  77.0041480  93.4769830  76.2323830
  78.2813580  94.2844360  76.3253070  85.9502200  86.8050020  91.3154690
  86.2747970  86.0739680  91.8412670  85.9858710  86.4863660  90.4135680
  72.6493760  97.8263600  90.7354650  72.2648550  97.1857270  91.3337610
  72.9605950  98.5299720  91.3049380  78.7990900  94.6740140  86.2163270
  79.1661030  94.1998710  86.9624610  78.6095960  95.5481710  86.5571610
  71.6631390  89.4183830  82.3456740  71.3778310  89.0539500  83.1835360
  71.6010250  88.6864290  81.7319880  76.5890270  93.7148780  88.5347480
  76.2847340  94.5940760  88.7597840  77.5436730  93.7748570  88.5704920
  75.1172060  97.9209770  79.1314330  74.3434320  97.3807390  78.9713050
  75.8466690  97.4016380  78.7932090  85.8760040  96.9175130  84.9240720
  86.5959160  97.4130420  84.5336830  85.6741860  96.2393020  84.2794590
  81.3369980  88.3113090  79.0670110  80.5234590  87.8126260  78.9915420
  81.1431930  89.1511340  78.6506460  81.2578840  96.9884190  90.8109720
  81.1916150  96.0679860  90.5567310  80.6283980  97.0859630  91.5254360
  84.0518370  92.6832740  77.3632270  84.9397990  92.9949970  77.1883610
  84.0223460  91.8104990  76.9712850  75.1609460  97.5890150  82.7693140
  75.6788130  96.7858410  82.7150030  74.7093480  97.5269290  83.6109970
  80.0478960  98.8556430  78.0420440  80.3894660  99.5998660  77.5463760
  79.2191670  99.1687550  78.4045270  72.6454000  94.5551520  89.6818840
  72.2868940  95.2205370  90.2692180  72.3508560  93.7235070  90.0531460
  75.8467120  95.0135760  92.5658390  75.5467260  95.1592940  91.6686210
  76.6178360  94.4541050  92.4731780  81.1895570  99.8104760  90.5613520
  81.2040110  98.8785720  90.3432430  80.4820670  99.8964520  91.2003290
  86.3232640  93.9944580  76.8312130  86.2396360  94.4258800  75.9808570
  87.0426830  94.4542930  77.2638950  87.4006780  96.4512100  89.9082100
  86.6754970  97.0440880  89.7111490  87.9282240  96.4435640  89.1095470
  87.3519890 100.8486840  79.5594260  86.7096050 100.1942460  79.8337980
  86.9650550 101.2541930  78.7834930  82.9306370  98.1772270  83.4065950
  83.2830190  97.5800400  82.7467320  82.0468700  97.8516500  83.5774200
  79.0169650  98.9369960  80.8136360  79.7040780  99.4839170  81.1943950
  78.2302070  99.4810690  80.8485970  71.1562050  94.5542780  76.3053440
  72.0256900  94.8367580  76.5889360  70.6652370  95.3678650  76.1902250
  78.3196860  95.9415990  80.4261720  78.7759640  96.7521240  80.6521910
  77.9685070  95.6239130  81.2580210  80.6229470 101.4522330  87.6554020
  81.2671690 101.6581710  88.3327440  80.9858910 100.6910730  87.2024870
  74.2208640  86.2853640  80.8984240  74.0923270  86.2771540  81.8469160
  73.3970660  86.6236730  80.5475250  81.8961550  99.4554680  86.3731470
  82.5383780  98.7547840  86.4863640  82.4210900 100.2353120  86.1928360
  85.7417270  99.7403300  76.0970610  85.5154850  99.0233740  76.6895250
  85.3513470  99.4915740  75.2592360  83.6699170 100.2549580  89.5767530
  84.0055410 100.8416270  90.2545450  82.7499510 100.1242290  89.8065320
  71.5233300 103.7670160  76.8715070  71.8830940 104.3659500  76.2172340
  71.3825640 104.3130050  77.6450100  71.2202570  88.0444760  90.3590940
  70.5061090  88.2441680  90.9643550  71.6397610  87.2684330  90.7305740
  85.3233520  97.6575240  77.7584770  85.0355220  98.1187930  78.5462650
  86.1185690  97.1973010  78.0268990  71.5075160 102.0325020  91.3457470
  71.6166280 101.0919760  91.2052860  70.8555720 102.2979770  90.6971200
  79.4987750 100.3040910  92.7455590  79.1784620  99.5850150  93.2901280
  78.8246110 100.9795980  92.8191650  77.5401920 101.1501360  77.6888740
  77.5312020 101.8831050  77.0733250  76.6200280 100.9032940  77.7815700
  73.1408560  96.3716250  78.4335500  72.5336510  97.1115150  78.4430800
  73.6157910  96.4615610  77.6073700  82.7141350  90.5367070  88.1092390
  83.0822170  89.7162280  88.4371960  81.8539550  90.5968960  88.5248040
  86.0803380  89.4924010  78.9179950  85.4516540  89.5969680  78.2038180
  85.5855300  89.7120790  79.7073830  80.5261520 101.2129600  76.3513930
  80.6273500 101.0093590  75.4215910  79.6263260 100.9587880  76.5561710
  78.0487410  91.7709960  80.3337830  77.3403560  92.2396300  80.7751440
  78.3331890  91.1131970  80.9683020  79.6743340  93.1906660  88.3330360
  80.1728590  93.6652480  88.9982210  79.8166290  92.2670180  88.5400390
  82.0802840  88.4960620  81.7733620  81.9570620  88.5146750  80.8243130
  83.0287400  88.5439560  81.8932020  79.1679630 103.7315920  81.0461600
  79.4221130 103.6937310  80.1240970  78.2192110 103.6049250  81.0389850
  76.2522430  90.0795040  77.7088540  77.1012960  90.5165190  77.6428730
  75.8853700  90.3915300  78.5360600  86.8810200  89.4074620  89.1758750
  86.3783800  90.1480020  89.5152560  87.6966860  89.7958620  88.8595540
  85.1732210  94.6507800  82.6220110  84.2322350  94.6658030  82.7967800
  85.4876280  93.8643760  83.0680410  75.1513850  96.3327400  76.1824070
  75.9177120  96.2208760  76.7449500  75.2288540  95.6365370  75.5300840
  73.8460610  93.7652470  76.8656960  73.9264200  92.8179980  76.9774360
  74.7380360  94.0959350  76.9717620  87.1757790 101.8216650  84.2974370
  87.3005210 102.6447820  84.7698180  88.0423350 101.6107380  83.9498520
  74.6475320 103.9147860  83.9691500  75.3837800 103.3663320  84.2400070
  75.0316240 104.7803870  83.8297490  71.5320800  99.9821430  79.8433010
  70.6060580 100.2242570  79.8338420  71.9977230 100.8095690  79.7217760
  73.6533600 103.0993930  93.1577080  74.4546330 103.4205980  93.5712480
  73.1385420 102.7389510  93.8796990  77.7577630 103.0878170  75.7917070
  78.5506240 103.3767000  75.3398860  77.2381980 102.6570340  75.1129550
  82.4898230  99.2073800  93.1052490  81.8836390  99.2305400  92.3648240
  82.1852340  98.4756840  93.6419740  83.9198600 102.9354090  91.7161900
  84.8720350 102.8512110  91.6662140  83.7726820 103.5995800  92.3895690
  86.8107800 102.3148300  77.2153810  86.5249310 101.9013440  76.4007990
  86.6127350 103.2436010  77.0954330  71.3731410  95.5867390  92.1013130
  71.8770430  95.0074670  92.6729360  70.6338830  95.8707620  92.6389500
  78.2755030  98.3081580  75.6559420  78.1705670  97.6933930  76.3820800
  78.1079250  97.7847470  74.8722430  78.4269350  96.9938380  91.6348650
  77.6615020  97.5623380  91.5503320  78.6085310  96.7014590  90.7416880
  81.5157760  97.3701610  76.2601410  80.9667860  97.8170910  76.9044150
  82.1377020  96.8650860  76.7839080  85.5692700  98.7243710  92.1923670
  86.3102170  99.0619470  91.6891130  84.8065380  98.8935770  91.6393440
  73.4054490  93.7296980  92.9963200  73.4459830  93.4310850  93.9048430
  74.2599990  94.1304590  92.8370720  77.1832880  96.3292530  78.1566710
  77.6049300  96.1632400  78.9998100  77.3083720  95.5192760  77.6621850
  75.3460300  92.3089080  90.9637690  74.8156760  91.8180030  90.3361030
  76.0148370  92.7373280  90.4295620  79.6960520  95.3530140  75.4043810
  80.2166180  94.6379160  75.0384960  80.3428920  95.9916010  75.7044320
  84.2438360  96.7758540  90.7278880  84.6579380  96.9303620  91.5769300
  83.3089360  96.9013760  90.8904660  84.7160530  94.1154700  92.7318030
  85.2981300  93.3607020  92.6438510  84.8922300  94.6462140  91.9549510
  75.8332600  89.2751450  91.0434980  75.7389470  88.6572200  90.3185850
  75.2529990  90.0017740  90.8164890  78.5994040  87.8324690  88.0762370
  78.1511340  87.8548950  87.2307920  77.9659240  87.4343710  88.6732670
  79.0053590  96.7279020  88.6974810  79.4241700  97.5711750  88.5251050
  78.0862220  96.8651060  88.4681590  81.3417490  94.4595200  90.0812650
  81.4613700  93.8636340  90.8207490  82.2011490  94.4964890  89.6613950
  83.6805390  95.0132390  88.6575160  83.1540610  95.5375010  88.0540300
  84.0236730  95.6459780  89.2884890  76.0791780  92.4025760  75.1024870
  75.8780840  91.5393120  75.4638210  75.9083830  92.3159120  74.1646470
  76.8561010 103.0332030  89.8132540  76.3182100 103.7578090  89.4941240
  77.1094970 102.5562370  89.0229880  78.1086260  91.0016550  91.3388470
  78.6985950  90.6932400  92.0266290  77.2906500  90.5296300  91.4948370
  82.9279690  90.6182360  91.5721490  82.2395210  89.9563900  91.5071480
  83.6485710  90.1720630  92.0169950  83.5580090  87.2133990  77.6311750
  83.8382380  86.3701890  77.9871170  82.7845820  87.4457100  78.1450500
  74.8774580  89.5026380  75.0902750  75.1800480  89.5093810  74.1821900
  75.6169170  89.1524240  75.5870410  79.7123220 104.2683240  90.0719190
  79.6381920 105.1718380  90.3791560  78.8102060 103.9495140  90.0441260
  78.0959510  88.4461000  76.0758950  77.7481510  87.7684990  75.4961400
  78.2972280  87.9850510  76.8902340  80.2608550 103.4341750  77.6945550
  81.1559340 103.7726720  77.7164310  80.2926180 102.7121160  77.0669830
  73.9004710  98.8068800  75.9232550  74.3379580  99.3498470  76.5790130
  74.3852440  97.9815750  75.9328890  71.1150510 101.5957830  83.3752810
  71.4453520 100.7278890  83.1431450  71.5441510 101.8016350  84.2057770
  75.7112430  99.9266840  81.0354780  75.4107970  99.8031810  81.9358690
  75.6049920  99.0675430  80.6270510  71.6040720 102.4628420  86.1134440
  71.1671710 102.6429220  86.9458590  72.1718400 103.2203040  85.9716160
  87.2402900 101.9645420  90.4011750  86.6404890 102.0237980  89.6575670
  87.3696800 101.0250400  90.5308600  88.4804350  99.7063240  75.7381460
  87.6497310  99.7739890  76.2088690  88.6576180 100.5967360  75.4348320
  87.9360810  96.4510720  78.2415660  88.6979720  97.0207370  78.3475350
  87.9515180  95.8837920  79.0123970  71.4365150  94.9748650  82.4723320
  70.7813990  94.7060290  81.8283020  72.2743100  94.8653130  82.0225300
  88.9420780  97.3060820  83.0857590  89.3129610  96.5228140  82.6793560
  89.5822710  97.9949920  82.9074890  85.9254540  98.6897400  88.4987910
  85.1114380  99.1194560  88.7613700  86.3328740  99.3015810  87.8856960
  87.9879980  96.7445090  75.3988180  88.2628820  97.6523970  75.2707400
  87.7990720  96.6807620  76.3350170  84.3855590  89.7689940  76.6941810
  84.8040470  89.5820920  75.8538470  84.0791650  88.9168990  77.0044740
  87.8845320  94.6814080  80.3917610  87.5088920  93.9142010  79.9598900
  87.1548440  95.0636780  80.8792540  72.4741080  95.3601220  87.0126660
  72.8414120  95.2728620  87.8922680  71.9051900  94.5967770  86.9133520
  87.2744940  93.8285600  90.0257130  87.0431030  93.5998350  89.1255080
  87.5349490  94.7485150  89.9802020  72.0257080  92.2710310  90.9185080
  71.1313130  92.2377070  91.2578790  72.5654630  92.4697100  91.6836330
  85.7133010  89.0542030  92.8036830  86.5903190  89.0625430  93.1870830
  85.7253850  88.3172870  92.1929180  70.6503230  92.1847580  78.4148650
  69.7467310  92.4477780  78.2400310  71.1343850  92.4558750  77.6348610
  87.1596280  92.9071570  83.6924850  87.6833760  92.4134220  83.0615020
  87.7455700  93.0421930  84.4372420  87.3386000  92.9911440  87.2144400
  86.3888710  92.9574980  87.3289390  87.5199010  93.9011550  86.9794170
  73.1930440  91.2413120  76.3243030  73.9022140  90.8196340  75.8390310
  72.4770380  91.3088350  75.6926380  72.8404600  87.2952450  75.3645680
  73.5632730  87.8361390  75.6826900  73.1129120  87.0215870  74.4887220
  86.6496250  92.1644920  79.6317260  87.1455370  91.9315790  80.4166140
  86.4512320  91.3256760  79.2154900  72.5296790  86.5458640  85.2668300
  73.1772980  85.9956020  84.8263460  72.9498630  86.8001790  86.0884110
  88.0783410  90.8005870  82.1654940  87.9682690  90.6461910  83.1037210
  88.8391000  90.2726810  81.9230350  86.4249130  86.7400000  88.6237940
  87.0621350  87.3534140  88.9897130  86.5724020  86.7760660  87.6787170
  88.9673680  88.6313790  75.4061080  89.8922990  88.4994970  75.1979370
  88.9449470  88.7106610  76.3597530  89.0412170  89.4024450  78.0317790
  88.2463670  89.3369570  78.5610700  89.2455450  90.3375090  78.0203140
  85.9830590 103.4416000  82.0256180  86.5789660 103.1200570  81.3490600
  86.2408740 102.9687820  82.8169450  72.2828790  86.7014310  88.0093620
  71.9343610  87.1578130  88.7751800  71.9516490  85.8071440  88.0916050
  73.8893160  99.8733910  92.1746810  73.8462790  99.5026820  93.0561270
  74.0204170 100.8111480  92.3148630  77.5899190 101.4293500  87.7756530
  77.3490550 101.6968060  86.8887050  78.5301830 101.5999230  87.8307390
  79.7953610  87.8926190  91.5313040  79.7342500  88.4848020  92.2808450
  80.7353990  87.7852150  91.3863300  82.4328170  87.5496250  91.1705330
  83.0468580  87.8675540  90.5086410  82.9777730  87.0644840  91.7901190
  88.8503350 103.4487880  88.5767170  88.3561630 103.8456750  87.8594300
  88.2416640 102.8237090  88.9704450  72.9549430  86.2290510  91.2844390
  73.5032420  86.0478560  90.5210500  73.0204740  85.4384620  91.8200700
  73.7281190 102.8196160  89.2944590  73.1341510 102.6880860  90.0334630
  73.7205030 101.9834300  88.8286690  83.1736210  86.1128390  87.4974620
  82.2996050  86.4463500  87.2947550  83.0646960  85.6401570  88.3226490
  84.0808190  88.3199260  88.8816340  83.7521550  87.5051020  88.5018070
  85.0290490  88.2769070  88.7582030  86.5342800 104.0911300  85.8553910
  86.0745770 104.8427110  85.4811930  85.9055260 103.3717770  85.7968710
  73.3593420 100.1854540  88.2452630  72.6327480  99.5659830  88.1778580
  73.4202570 100.5795150  87.3750710  76.9638520 102.3999540  85.0302040
  77.4803540 101.7886900  84.5050300  77.6135900 102.9028320  85.5213050
  79.7034020 103.2908030  85.8571020  79.9911830 103.0362330  84.9804030
  80.2157240 102.7385390  86.4476590  80.9211030  87.0298230  86.4367530
  80.1382820  87.5043730  86.7164290  80.6273960  86.1253060  86.3280710
  85.4732100  87.7321330  84.4816620  85.9140190  87.6766430  83.6338220
  85.2039690  88.6479340  84.5526800  87.3370670  87.3636570  82.4925440
  87.2759070  86.4197790  82.3456460  88.1162700  87.4716660  83.0378900
  71.6423420 103.5028930  81.4549390  71.4745460 102.8699610  82.1531280
  70.7757930 103.7088330  81.1043580  72.2651440  87.3345710  78.9581250
  73.0230800  87.4474590  78.3845280  71.8028610  88.1714910  78.9124680
  78.8065250  89.4484980  81.9483560  77.9939760  89.0741870  81.6079440
  79.3106890  88.6930060  82.2504750  83.3090230  86.1127430  83.1866630
  83.9119600  86.6847640  83.6615150  82.5683220  86.6766870  82.9640530
  86.4524830  86.5148990  78.4606910  86.6475460  87.4132440  78.7274340
  85.6654700  86.2836070  78.9539860  73.2486120 102.1962160  78.8999530
  72.7233740 102.5770190  78.1961490  73.1730700 102.8212930  79.6209240
  74.6376590  87.8609760  77.4983220  75.1669350  87.0739560  77.3691170
  75.2704910  88.5400950  77.7318750  76.8314430  87.5984900  80.5528610
  76.2017170  86.8972210  80.7198740  76.2919570  88.3589030  80.3361770
  79.7706380 104.2124130  93.2239220  80.6973690 103.9768400  93.2675180
  79.7556810 105.0396130  92.7425250  88.0051440 103.7549700  80.2213470
  88.1803630 103.0687440  79.5774390  87.3073010 104.2796750  79.8290140
  76.9569990  86.8768880  92.9881100  76.6754260  87.3802480  92.2241920
  77.3389690  86.0790630  92.6223230  75.8479090 104.1444540  77.7748780
  76.5797910 103.8603820  77.2272670  76.1072760 103.9057820  78.6648160
  75.0093880 100.2609270  77.7795110  74.3802760 100.7294370  78.3280940
  75.1241710  99.4158490  78.2141300  83.5585450  86.2922460  93.5661570
  83.4450900  86.6117070  94.4613090  84.3755190  86.6934970  93.2698850
  86.3383940 103.4393990  93.0480260  87.1309260 102.9443220  92.8406220
  86.6317090 104.1184130  93.6555870  82.4643600  94.3114930  63.9296310
  82.3837650  93.3969540  63.6588020  82.0508020  94.8082000  63.2236020
  80.5961640  96.0893950  65.8105580  79.8203740  95.6094390  66.1004150
  81.2474570  95.4099600  65.6361740  74.6127470  96.4013760  66.6881340
  73.7812350  96.1462470  67.0877850  75.2208450  96.4724530  67.4239260
  84.6169070 100.4954140  64.5904710  84.1550600  99.7241380  64.9191880
  85.4294620 100.5220210  65.0957160  74.5928730 100.4353850  66.8839360
  74.8956770  99.5451590  66.7049580  75.3372320 100.9924070  66.6561610
  70.9852430  93.9621300  66.3563430  71.5568540  93.1943500  66.3567070
  70.9853970  94.2610060  65.4470040  80.8432380 102.7812150  64.2108700
  80.2243820 103.2369650  63.6403140  81.6984160 102.9363610  63.8098400
  80.0370630  98.7651140  65.8175740  79.9678910  97.8241080  65.6564870
  80.7990490  98.8552550  66.3898310  84.8499920  89.0671960  62.9773010
  85.6709540  88.5768530  63.0198490  84.8834000  89.6569620  63.7304850
  72.8463970  91.8666160  66.7514700  73.5274080  92.1304530  67.3702100
  72.5312020  91.0267030  67.0852710  77.0388540  92.9133520  65.8387290
  77.5466760  93.4114490  66.4792310  77.5701780  92.1368720  65.6626650
  89.1399470  91.0838710  69.5416640  88.4351640  91.4720420  69.0231750
  89.4057390  91.7789000  70.1437570  81.7095730  97.6651390  61.6040610
  81.0913000  98.1300840  61.0403330  82.2218980  98.3578870  62.0210120
  76.5727490  97.1927260  68.2824210  76.2396870  97.8196180  68.9245280
  76.7494170  97.7189140  67.5025880  85.0861400  91.0072340  65.7500550
  84.3816970  91.2957230  66.3303660  85.4473560  91.8172450  65.3900110
  75.7846590  99.1608060  70.0973390  76.4020590  99.8359140  69.8157840
  74.9239710  99.5696040  70.0060890  86.7024180 100.6247470  68.0128030
  86.0187700 101.2946580  68.0044700  87.2418470 100.8228120  67.2472890
  88.1548320  90.4527130  66.1409760  87.2073230  90.4866110  66.2725190
  88.4798310  91.2666080  66.5259120  84.2382920 102.4691600  66.7273210
  84.2510080 102.0653890  65.8595470  83.6858140 103.2438890  66.6234640
  85.5328340  99.1907820  61.8163380  85.4224670  98.2482150  61.9412800
  85.5296590  99.5523460  62.7026140  83.6368360  97.3721440  68.0555820
  84.0537150  97.1581550  67.2209280  84.3608180  97.6294230  68.6264440
  87.5830460  95.7708660  68.1472060  86.7549090  95.8401750  67.6722190
  88.1780940  96.3562970  67.6787890  85.1045910  96.3793440  61.6761120
  84.4858330  96.0412990  61.0287420  85.0870360  95.7353200  62.3840310
  84.5472470  92.5577980  69.0926930  84.1343650  93.3831690  69.3466920
  83.8148420  91.9723020  68.9003290  77.1486960  99.0305440  66.1184810
  76.8515250  98.4250910  65.4392590  78.0986780  99.0682750  66.0074170
  75.3933880  92.1181090  67.7344640  75.9448470  92.2276430  66.9597890
  75.9077390  92.4918690  68.4499870  85.2372570 102.6037310  69.7807910
  84.7603130 103.4109500  69.5880520  84.5534360 101.9515640  69.9334120
  76.2405390  98.7687130  72.7692610  75.3433920  98.9927100  73.0166010
  76.2658260  98.8922070  71.8204010  83.2810610  95.6180250  58.6833870
  83.7203890  94.7802680  58.5371690  83.9939030  96.2509650  58.7698010
  75.0676610  95.6400450  71.3449980  74.9284380  96.5123250  71.7137380
  74.1857970  95.2973260  71.1997920  81.3905990 100.5576320  62.6515110
  81.8301900 101.3000650  62.2370500  81.3292880 100.8002890  63.5754070
  76.8656960 101.5822150  73.5535130  76.8372390 101.9865100  72.6863560
  76.7021930 100.6532510  73.3906730  86.8627750  86.8723060  56.9974910
  86.5500410  86.9649890  57.8973980  87.6240220  87.4504090  56.9472340
  88.8171780 102.3649250  74.8499300  89.2931500 102.8432140  75.5288380
  89.4378940 102.2966740  74.1244800  71.0195260  97.4098000  67.2620890
  71.0975680  97.5446770  66.3176610  71.6336940  96.7013890  67.4549010
  88.2205030  99.5562100  72.0099310  88.3468090  99.3173980  71.0916490
  88.2626410  98.7246640  72.4821390  82.0821770 103.2590100  70.5794120
  82.5966440 103.1698110  71.3816550  81.2390850 103.6049800  70.8722030
  84.0576170 103.5445440  60.0078120  83.8977310 103.2548380  60.9059950
  83.8922880 102.7685570  59.4723350  76.5364550 103.3243970  61.7849740
  76.3607030 102.4079510  61.5717540  75.6820290 103.6831260  62.0247540
  83.7602300 101.0533000  58.5676120  83.0667460 101.0510290  57.9078400
  84.5025160 100.6292320  58.1370290  83.3252230 102.6795710  62.6424610
  83.7809180 101.8985090  62.9563230  83.6644750 103.3902530  63.1865790
  88.0729040  91.6094560  72.9749050  87.4573310  92.1174230  72.4464510
  87.7525460  90.7092890  72.9174990  71.0754780  98.4512170  69.8015350
  71.2385820  97.9817530  68.9834720  71.5407230  97.9435730  70.4664190
  80.1343360  90.4486450  70.4411240  79.6722730  90.6569470  71.2531180
  79.7321470  89.6345800  70.1381910  85.1347870  91.6695400  71.5707900
  84.2841460  91.3701150  71.8916970  84.9749660  91.9137410  70.6591720
  82.2297580  93.1697150  73.6706690  82.5550990  92.3360900  73.3308920
  83.0177910  93.6925670  73.8185020  82.8685530  92.7114870  61.1647820
  82.2694420  93.4350670  60.9811440  83.4165140  92.6491650  60.3824270
  78.0786980  93.6037080  73.2317440  77.9830580  92.6631810  73.0817840
  78.9218960  93.8252150  72.8365510  81.4750400  91.3478410  63.1951100
  81.8679970  91.6650610  62.3819790  81.8367250  90.4690290  63.3095620
  73.2097520  90.0150750  71.3851220  72.8160910  90.8625960  71.5924000
  72.5215920  89.3777120  71.5759860  79.7842570  90.0985720  74.4547960
  79.0940890  89.9057920  75.0894050  80.5274870  90.3820360  74.9872260
  82.0605540  93.9384160  67.2901880  81.3286660  94.4470970  67.6391980
  81.6629880  93.1214140  66.9890660  85.9502200  86.8050020  72.5411200
  86.2747970  86.0739680  73.0669180  85.9858710  86.4863660  71.6392190
  72.6493760  97.8263600  71.9611160  72.2648550  97.1857270  72.5594120
  72.9605950  98.5299720  72.5305890  78.7990900  94.6740140  67.4419780
  79.1661030  94.1998710  68.1881120  78.6095960  95.5481710  67.7828120
  76.5890270  93.7148780  69.7603990  76.2847340  94.5940760  69.9854350
  77.5436730  93.7748570  69.7961430  85.8760040  96.9175130  66.1497230
  86.5959160  97.4130420  65.7593340  85.6741860  96.2393020  65.5051100
  81.2578840  96.9884190  72.0366230  81.1916150  96.0679860  71.7823820
  80.6283980  97.0859630  72.7510870  84.0518370  92.6832740  58.5888780
  84.9397990  92.9949970  58.4140120  84.0223460  91.8104990  58.1969360
  72.6454000  94.5551520  70.9075350  72.2868940  95.2205370  71.4948690
  72.3508560  93.7235070  71.2787970  75.8467120  95.0135760  73.7914900
  75.5467260  95.1592940  72.8942720  76.6178360  94.4541050  73.6988290
  81.1895570  99.8104760  71.7870030  81.2040110  98.8785720  71.5688940
  80.4820670  99.8964520  72.4259800  86.3232640  93.9944580  58.0568640
  86.2396360  94.4258800  57.2065080  87.0426830  94.4542930  58.4895460
  87.4006780  96.4512100  71.1338610  86.6754970  97.0440880  70.9368000
  87.9282240  96.4435640  70.3351980  87.3519890 100.8486840  60.7850770
  86.7096050 100.1942460  61.0594490  86.9650550 101.2541930  60.0091440
  82.9306370  98.1772270  64.6322460  83.2830190  97.5800400  63.9723830
  82.0468700  97.8516500  64.8030710  79.0169650  98.9369960  62.0392870
  79.7040780  99.4839170  62.4200460  78.2302070  99.4810690  62.0742480
  80.6229470 101.4522330  68.8810530  81.2671690 101.6581710  69.5583950
  80.9858910 100.6910730  68.4281380  81.8961550  99.4554680  67.5987980
  82.5383780  98.7547840  67.7120150  82.4210900 100.2353120  67.4184870
  85.7417270  99.7403300  57.3227120  85.5154850  99.0233740  57.9151760
  85.3513470  99.4915740  56.4848870  83.6699170 100.2549580  70.8024040
  84.0055410 100.8416270  71.4801960  82.7499510 100.1242290  71.0321830
  71.5233300 103.7670160  58.0971580  71.8830940 104.3659500  57.4428850
  71.3825640 104.3130050  58.8706610  85.3233520  97.6575240  58.9841280
  85.0355220  98.1187930  59.7719160  86.1185690  97.1973010  59.2525500
  71.5075160 102.0325020  72.5713980  71.6166280 101.0919760  72.4309370
  70.8555720 102.2979770  71.9227710  79.4987750 100.3040910  73.9712100
  79.1784620  99.5850150  74.5157790  78.8246110 100.9795980  74.0448160
  77.5401920 101.1501360  58.9145250  77.5312020 101.8831050  58.2989760
  76.6200280 100.9032940  59.0072210  86.0803380  89.4924010  60.1436460
  85.4516540  89.5969680  59.4294690  85.5855300  89.7120790  60.9330340
  80.5261520 101.2129600  57.5770440  80.6273500 101.0093590  56.6472420
  79.6263260 100.9587880  57.7818220  79.6743340  93.1906660  69.5586870
  80.1728590  93.6652480  70.2238720  79.8166290  92.2670180  69.7656900
  79.1679630 103.7315920  62.2718110  79.4221130 103.6937310  61.3497480
  78.2192110 103.6049250  62.2646360  86.8810200  89.4074620  70.4015260
  86.3783800  90.1480020  70.7409070  87.6966860  89.7958620  70.0852050
  85.1732210  94.6507800  63.8476620  84.2322350  94.6658030  64.0224310
  85.4876280  93.8643760  64.2936920  87.1757790 101.8216650  65.5230880
  87.3005210 102.6447820  65.9954690  88.0423350 101.6107380  65.1755030
  74.6475320 103.9147860  65.1948010  75.3837800 103.3663320  65.4656580
  75.0316240 104.7803870  65.0554000  73.6533600 103.0993930  74.3833590
  74.4546330 103.4205980  74.7968990  73.1385420 102.7389510  75.1053500
  77.7577630 103.0878170  57.0173580  78.5506240 103.3767000  56.5655370
  77.2381980 102.6570340  56.3386060  82.4898230  99.2073800  74.3309000
  81.8836390  99.2305400  73.5904750  82.1852340  98.4756840  74.8676250
  83.9198600 102.9354090  72.9418410  84.8720350 102.8512110  72.8918650
  83.7726820 103.5995800  73.6152200  86.8107800 102.3148300  58.4410320
  86.5249310 101.9013440  57.6264500  86.6127350 103.2436010  58.3210840
  71.3731410  95.5867390  73.3269640  71.8770430  95.0074670  73.8985870
  70.6338830  95.8707620  73.8646010  78.4269350  96.9938380  72.8605160
  77.6615020  97.5623380  72.7759830  78.6085310  96.7014590  71.9673390
  85.5692700  98.7243710  73.4180180  86.3102170  99.0619470  72.9147640
  84.8065380  98.8935770  72.8649950  73.4054490  93.7296980  74.2219710
  73.4459830  93.4310850  75.1304940  74.2599990  94.1304590  74.0627230
  75.3460300  92.3089080  72.1894200  74.8156760  91.8180030  71.5617540
  76.0148370  92.7373280  71.6552130  84.2438360  96.7758540  71.9535390
  84.6579380  96.9303620  72.8025810  83.3089360  96.9013760  72.1161170
  84.7160530  94.1154700  73.9574540  85.2981300  93.3607020  73.8695020
  84.8922300  94.6462140  73.1806020  75.8332600  89.2751450  72.2691490
  75.7389470  88.6572200  71.5442360  75.2529990  90.0017740  72.0421400
  79.0053590  96.7279020  69.9231320  79.4241700  97.5711750  69.7507560
  78.0862220  96.8651060  69.6938100  81.3417490  94.4595200  71.3069160
  81.4613700  93.8636340  72.0464000  82.2011490  94.4964890  70.8870460
  83.6805390  95.0132390  69.8831670  83.1540610  95.5375010  69.2796810
  84.0236730  95.6459780  70.5141400  76.8561010 103.0332030  71.0389050
  76.3182100 103.7578090  70.7197750  77.1094970 102.5562370  70.2486390
  78.1086260  91.0016550  72.5644980  78.6985950  90.6932400  73.2522800
  77.2906500  90.5296300  72.7204880  82.9279690  90.6182360  72.7978000
  82.2395210  89.9563900  72.7327990  83.6485710  90.1720630  73.2426460
  83.5580090  87.2133990  58.8568260  83.8382380  86.3701890  59.2127680
  82.7845820  87.4457100  59.3707010  79.7123220 104.2683240  71.2975700
  79.6381920 105.1718380  71.6048070  78.8102060 103.9495140  71.2697770
  80.2608550 103.4341750  58.9202060  81.1559340 103.7726720  58.9420820
  80.2926180 102.7121160  58.2926340  71.1150510 101.5957830  64.6009320
  71.4453520 100.7278890  64.3687960  71.5441510 101.8016350  65.4314280
  75.7112430  99.9266840  62.2611290  75.4107970  99.8031810  63.1615200
  75.6049920  99.0675430  61.8527020  71.6040720 102.4628420  67.3390950
  71.1671710 102.6429220  68.1715100  72.1718400 103.2203040  67.1972670
  87.2402900 101.9645420  71.6268260  86.6404890 102.0237980  70.8832180
  87.3696800 101.0250400  71.7565110  88.4804350  99.7063240  56.9637970
  87.6497310  99.7739890  57.4345200  88.6576180 100.5967360  56.6604830
  87.9360810  96.4510720  59.4672170  88.6979720  97.0207370  59.5731860
  87.9515180  95.8837920  60.2380480  71.4365150  94.9748650  63.6979830
  70.7813990  94.7060290  63.0539530  72.2743100  94.8653130  63.2481810
  88.9420780  97.3060820  64.3114100  89.3129610  96.5228140  63.9050070
  89.5822710  97.9949920  64.1331400  85.9254540  98.6897400  69.7244420
  85.1114380  99.1194560  69.9870210  86.3328740  99.3015810  69.1113470
  87.9879980  96.7445090  56.6244690  88.2628820  97.6523970  56.4963910
  87.7990720  96.6807620  57.5606680  84.3855590  89.7689940  57.9198320
  84.8040470  89.5820920  57.0794980  84.0791650  88.9168990  58.2301250
  87.8845320  94.6814080  61.6174120  87.5088920  93.9142010  61.1855410
  87.1548440  95.0636780  62.1049050  72.4741080  95.3601220  68.2383170
  72.8414120  95.2728620  69.1179190  71.9051900  94.5967770  68.1390030
  87.2744940  93.8285600  71.2513640  87.0431030  93.5998350  70.3511590
  87.5349490  94.7485150  71.2058530  85.7133010  89.0542030  74.0293340
  86.5903190  89.0625430  74.4127340  85.7253850  88.3172870  73.4185690
  87.1596280  92.9071570  64.9181360  87.6833760  92.4134220  64.2871530
  87.7455700  93.0421930  65.6628930  87.3386000  92.9911440  68.4400910
  86.3888710  92.9574980  68.5545900  87.5199010  93.9011550  68.2050680
  86.6496250  92.1644920  60.8573770  87.1455370  91.9315790  61.6422650
  86.4512320  91.3256760  60.4411410  88.0783410  90.8005870  63.3911450
  87.9682690  90.6461910  64.3293720  88.8391000  90.2726810  63.1486860
  86.4249130  86.7400000  69.8494450  87.0621350  87.3534140  70.2153640
  86.5724020  86.7760660  68.9043680  88.9673680  88.6313790  56.6317590
  89.8922990  88.4994970  56.4235880  88.9449470  88.7106610  57.5854040
  89.0412170  89.4024450  59.2574300  88.2463670  89.3369570  59.7867210
  89.2455450  90.3375090  59.2459650  85.9830590 103.4416000  63.2512690
  86.5789660 103.1200570  62.5747110  86.2408740 102.9687820  64.0425960
  73.8893160  99.8733910  73.4003320  73.8462790  99.5026820  74.2817780
  74.0204170 100.8111480  73.5405140  77.5899190 101.4293500  69.0013040
  77.3490550 101.6968060  68.1143560  78.5301830 101.5999230  69.0563900
  79.7953610  87.8926190  72.7569550  79.7342500  88.4848020  73.5064960
  80.7353990  87.7852150  72.6119810  82.4328170  87.5496250  72.3961840
  83.0468580  87.8675540  71.7342920  82.9777730  87.0644840  73.0157700
  88.8503350 103.4487880  69.8023680  88.3561630 103.8456750  69.0850810
  88.2416640 102.8237090  70.1960960  73.7281190 102.8196160  70.5201100
  73.1341510 102.6880860  71.2591140  73.7205030 101.9834300  70.0543200
  84.0808190  88.3199260  70.1072850  83.7521550  87.5051020  69.7274580
  85.0290490  88.2769070  69.9838540  86.5342800 104.0911300  67.0810420
  86.0745770 104.8427110  66.7068440  85.9055260 103.3717770  67.0225220
  73.3593420 100.1854540  69.4709140  72.6327480  99.5659830  69.4035090
  73.4202570 100.5795150  68.6007220  76.9638520 102.3999540  66.2558550
  77.4803540 101.7886900  65.7306810  77.6135900 102.9028320  66.7469560
  79.7034020 103.2908030  67.0827530  79.9911830 103.0362330  66.2060540
  80.2157240 102.7385390  67.6733100  85.4732100  87.7321330  65.7073130
  85.9140190  87.6766430  64.8594730  85.2039690  88.6479340  65.7783310
  87.3370670  87.3636570  63.7181950  87.2759070  86.4197790  63.5712970
  88.1162700  87.4716660  64.2635410  71.6423420 103.5028930  62.6805900
  71.4745460 102.8699610  63.3787790  70.7757930 103.7088330  62.3300090
  86.4524830  86.5148990  59.6863420  86.6475460  87.4132440  59.9530850
  85.6654700  86.2836070  60.1796370  73.2486120 102.1962160  60.1256040
  72.7233740 102.5770190  59.4218000  73.1730700 102.8212930  60.8465750
  79.7706380 104.2124130  74.4495730  80.6973690 103.9768400  74.4931690
  79.7556810 105.0396130  73.9681760  88.0051440 103.7549700  61.4469980
  88.1803630 103.0687440  60.8030900  87.3073010 104.2796750  61.0546650
  76.9569990  86.8768880  74.2137610  76.6754260  87.3802480  73.4498430
  77.3389690  86.0790630  73.8479740  75.8479090 104.1444540  59.0005290
  76.5797910 103.8603820  58.4529180  76.1072760 103.9057820  59.8904670
  75.0093880 100.2609270  59.0051620  74.3802760 100.7294370  59.5537450
  75.1241710  99.4158490  59.4397810  83.5585450  86.2922460  74.7918080
  83.4450900  86.6117070  75.6869600  84.3755190  86.6934970  74.4955360
  86.3383940 103.4393990  74.2736770  87.1309260 102.9443220  74.0662730
  86.6317090 104.1184130  74.8812380  82.4643600  94.3114930  45.1552820
  82.3837650  93.3969540  44.8844530  82.0508020  94.8082000  44.4492530
  84.6169070 100.4954140  45.8161220  84.1550600  99.7241380  46.1448390
  85.4294620 100.5220210  46.3213670  80.8432380 102.7812150  45.4365210
  80.2243820 103.2369650  44.8659650  81.6984160 102.9363610  45.0354910
  89.1399470  91.0838710  50.7673150  88.4351640  91.4720420  50.2488260
  89.4057390  91.7789000  51.3694080  85.0861400  91.0072340  46.9757060
  84.3816970  91.2957230  47.5560170  85.4473560  91.8172450  46.6156620
  86.7024180 100.6247470  49.2384540  86.0187700 101.2946580  49.2301210
  87.2418470 100.8228120  48.4729400  88.1548320  90.4527130  47.3666270
  87.2073230  90.4866110  47.4981700  88.4798310  91.2666080  47.7515630
  84.2382920 102.4691600  47.9529720  84.2510080 102.0653890  47.0851980
  83.6858140 103.2438890  47.8491150  85.5328340  99.1907820  43.0419890
  85.4224670  98.2482150  43.1669310  85.5296590  99.5523460  43.9282650
  83.6368360  97.3721440  49.2812330  84.0537150  97.1581550  48.4465790
  84.3608180  97.6294230  49.8520950  81.0748620  94.8173140  42.3982380
  80.1477900  94.7510520  42.6270850  81.2273440  95.7553270  42.2837620
  87.5830460  95.7708660  49.3728570  86.7549090  95.8401750  48.8978700
  88.1780940  96.3562970  48.9044400  85.1045910  96.3793440  42.9017630
  84.4858330  96.0412990  42.2543930  85.0870360  95.7353200  43.6096820
  84.5472470  92.5577980  50.3183440  84.1343650  93.3831690  50.5723430
  83.8148420  91.9723020  50.1259800  85.2372570 102.6037310  51.0064420
  84.7603130 103.4109500  50.8137030  84.5534360 101.9515640  51.1590630
  83.2810610  95.6180250  39.9090380  83.7203890  94.7802680  39.7628200
  83.9939030  96.2509650  39.9954520  81.3905990 100.5576320  43.8771620
  81.8301900 101.3000650  43.4627010  81.3292880 100.8002890  44.8010580
  76.8656960 101.5822150  54.7791640  76.8372390 101.9865100  53.9120070
  76.7021930 100.6532510  54.6163240  86.8627750  86.8723060  38.2231420
  86.5500410  86.9649890  39.1230490  87.6240220  87.4504090  38.1728850
  88.8171780 102.3649250  56.0755810  89.2931500 102.8432140  56.7544890
  89.4378940 102.2966740  55.3501310  88.2205030  99.5562100  53.2355820
  88.3468090  99.3173980  52.3173000  88.2626410  98.7246640  53.7077900
  82.0821770 103.2590100  51.8050630  82.5966440 103.1698110  52.6073060
  81.2390850 103.6049800  52.0978540  84.0576170 103.5445440  41.2334630
  83.8977310 103.2548380  42.1316460  83.8922880 102.7685570  40.6979860
  76.5364550 103.3243970  43.0106250  76.3607030 102.4079510  42.7974050
  75.6820290 103.6831260  43.2504050  83.7602300 101.0533000  39.7932630
  83.0667460 101.0510290  39.1334910  84.5025160 100.6292320  39.3626800
  83.3252230 102.6795710  43.8681120  83.7809180 101.8985090  44.1819740
  83.6644750 103.3902530  44.4122300  88.0729040  91.6094560  54.2005560
  87.4573310  92.1174230  53.6721020  87.7525460  90.7092890  54.1431500
  85.1347870  91.6695400  52.7964410  84.2841460  91.3701150  53.1173480
  84.9749660  91.9137410  51.8848230  82.2297580  93.1697150  54.8963200
  82.5550990  92.3360900  54.5565430  83.0177910  93.6925670  55.0441530
  82.0605540  93.9384160  48.5158390  81.3286660  94.4470970  48.8648490
  81.6629880  93.1214140  48.2147170  85.9502200  86.8050020  53.7667710
  86.2747970  86.0739680  54.2925690  85.9858710  86.4863660  52.8648700
  85.8760040  96.9175130  47.3753740  86.5959160  97.4130420  46.9849850
  85.6741860  96.2393020  46.7307610  81.2578840  96.9884190  53.2622740
  81.1916150  96.0679860  53.0080330  80.6283980  97.0859630  53.9767380
  84.0518370  92.6832740  39.8145290  84.9397990  92.9949970  39.6396630
  84.0223460  91.8104990  39.4225870  81.1895570  99.8104760  53.0126540
  81.2040110  98.8785720  52.7945450  80.4820670  99.8964520  53.6516310
  86.3232640  93.9944580  39.2825150  86.2396360  94.4258800  38.4321590
  87.0426830  94.4542930  39.7151970  87.4006780  96.4512100  52.3595120
  86.6754970  97.0440880  52.1624510  87.9282240  96.4435640  51.5608490
  87.3519890 100.8486840  42.0107280  86.7096050 100.1942460  42.2851000
  86.9650550 101.2541930  41.2347950  82.9306370  98.1772270  45.8578970
  83.2830190  97.5800400  45.1980340  82.0468700  97.8516500  46.0287220
  80.6229470 101.4522330  50.1067040  81.2671690 101.6581710  50.7840460
  80.9858910 100.6910730  49.6537890  81.8961550  99.4554680  48.8244490
  82.5383780  98.7547840  48.9376660  82.4210900 100.2353120  48.6441380
  85.7417270  99.7403300  38.5483630  85.5154850  99.0233740  39.1408270
  85.3513470  99.4915740  37.7105380  83.6699170 100.2549580  52.0280550
  84.0055410 100.8416270  52.7058470  82.7499510 100.1242290  52.2578340
  71.5233300 103.7670160  39.3228090  71.8830940 104.3659500  38.6685360
  71.3825640 104.3130050  40.0963120  85.3233520  97.6575240  40.2097790
  85.0355220  98.1187930  40.9975670  86.1185690  97.1973010  40.4782010
  71.5075160 102.0325020  53.7970490  71.6166280 101.0919760  53.6565880
  70.8555720 102.2979770  53.1484220  79.4987750 100.3040910  55.1968610
  79.1784620  99.5850150  55.7414300  78.8246110 100.9795980  55.2704670
  77.5401920 101.1501360  40.1401760  77.5312020 101.8831050  39.5246270
  76.6200280 100.9032940  40.2328720  82.7141350  90.5367070  50.5605410
  83.0822170  89.7162280  50.8884980  81.8539550  90.5968960  50.9761060
  86.0803380  89.4924010  41.3692970  85.4516540  89.5969680  40.6551200
  85.5855300  89.7120790  42.1586850  80.5261520 101.2129600  38.8026950
  80.6273500 101.0093590  37.8728930  79.6263260 100.9587880  39.0074730
  79.1679630 103.7315920  43.4974620  79.4221130 103.6937310  42.5753990
  78.2192110 103.6049250  43.4902870  86.8810200  89.4074620  51.6271770
  86.3783800  90.1480020  51.9665580  87.6966860  89.7958620  51.3108560
  85.1732210  94.6507800  45.0733130  84.2322350  94.6658030  45.2480820
  85.4876280  93.8643760  45.5193430  87.1757790 101.8216650  46.7487390
  87.3005210 102.6447820  47.2211200  88.0423350 101.6107380  46.4011540
  74.6475320 103.9147860  46.4204520  75.3837800 103.3663320  46.6913090
  75.0316240 104.7803870  46.2810510  71.5320800  99.9821430  42.2946030
  70.6060580 100.2242570  42.2851440  71.9977230 100.8095690  42.1730780
  73.6533600 103.0993930  55.6090100  74.4546330 103.4205980  56.0225500
  73.1385420 102.7389510  56.3310010  77.7577630 103.0878170  38.2430090
  78.5506240 103.3767000  37.7911880  77.2381980 102.6570340  37.5642570
  82.4898230  99.2073800  55.5565510  81.8836390  99.2305400  54.8161260
  82.1852340  98.4756840  56.0932760  83.9198600 102.9354090  54.1674920
  84.8720350 102.8512110  54.1175160  83.7726820 103.5995800  54.8408710
  86.8107800 102.3148300  39.6666830  86.5249310 101.9013440  38.8521010
  86.6127350 103.2436010  39.5467350  78.2755030  98.3081580  38.1072440
  78.1705670  97.6933930  38.8333820  78.1079250  97.7847470  37.3235450
  81.5157760  97.3701610  38.7114430  80.9667860  97.8170910  39.3557170
  82.1377020  96.8650860  39.2352100  85.5692700  98.7243710  54.6436690
  86.3102170  99.0619470  54.1404150  84.8065380  98.8935770  54.0906460
  79.6960520  95.3530140  37.8556830  80.2166180  94.6379160  37.4897980
  80.3428920  95.9916010  38.1557340  84.2438360  96.7758540  53.1791900
  84.6579380  96.9303620  54.0282320  83.3089360  96.9013760  53.3417680
  84.7160530  94.1154700  55.1831050  85.2981300  93.3607020  55.0951530
  84.8922300  94.6462140  54.4062530  81.3417490  94.4595200  52.5325670
  81.4613700  93.8636340  53.2720510  82.2011490  94.4964890  52.1126970
  83.6805390  95.0132390  51.1088180  83.1540610  95.5375010  50.5053320
  84.0236730  95.6459780  51.7397910  76.8561010 103.0332030  52.2645560
  76.3182100 103.7578090  51.9454260  77.1094970 102.5562370  51.4742900
  82.9279690  90.6182360  54.0234510  82.2395210  89.9563900  53.9584500
  83.6485710  90.1720630  54.4682970  79.7123220 104.2683240  52.5232210
  79.6381920 105.1718380  52.8304580  78.8102060 103.9495140  52.4954280
  80.2608550 103.4341750  40.1458570  81.1559340 103.7726720  40.1677330
  80.2926180 102.7121160  39.5182850  71.1150510 101.5957830  45.8265830
  71.4453520 100.7278890  45.5944470  71.5441510 101.8016350  46.6570790
  71.6040720 102.4628420  48.5647460  71.1671710 102.6429220  49.3971610
  72.1718400 103.2203040  48.4229180  87.2402900 101.9645420  52.8524770
  86.6404890 102.0237980  52.1088690  87.3696800 101.0250400  52.9821620
  88.4804350  99.7063240  38.1894480  87.6497310  99.7739890  38.6601710
  88.6576180 100.5967360  37.8861340  87.9360810  96.4510720  40.6928680
  88.6979720  97.0207370  40.7988370  87.9515180  95.8837920  41.4636990
  88.9420780  97.3060820  45.5370610  89.3129610  96.5228140  45.1306580
  89.5822710  97.9949920  45.3587910  85.9254540  98.6897400  50.9500930
  85.1114380  99.1194560  51.2126720  86.3328740  99.3015810  50.3369980
  87.9879980  96.7445090  37.8501200  88.2628820  97.6523970  37.7220420
  87.7990720  96.6807620  38.7863190  84.3855590  89.7689940  39.1454830
  84.8040470  89.5820920  38.3051490  84.0791650  88.9168990  39.4557760
  87.8845320  94.6814080  42.8430630  87.5088920  93.9142010  42.4111920
  87.1548440  95.0636780  43.3305560  87.2744940  93.8285600  52.4770150
  87.0431030  93.5998350  51.5768100  87.5349490  94.7485150  52.4315040
  85.7133010  89.0542030  55.2549850  86.5903190  89.0625430  55.6383850
  85.7253850  88.3172870  54.6442200  87.1596280  92.9071570  46.1437870
  87.6833760  92.4134220  45.5128040  87.7455700  93.0421930  46.8885440
  87.3386000  92.9911440  49.6657420  86.3888710  92.9574980  49.7802410
  87.5199010  93.9011550  49.4307190  86.6496250  92.1644920  42.0830280
  87.1455370  91.9315790  42.8679160  86.4512320  91.3256760  41.6667920
  88.0783410  90.8005870  44.6167960  87.9682690  90.6461910  45.5550230
  88.8391000  90.2726810  44.3743370  86.4249130  86.7400000  51.0750960
  87.0621350  87.3534140  51.4410150  86.5724020  86.7760660  50.1300190
  88.9673680  88.6313790  37.8574100  89.8922990  88.4994970  37.6492390
  88.9449470  88.7106610  38.8110550  89.0412170  89.4024450  40.4830810
  88.2463670  89.3369570  41.0123720  89.2455450  90.3375090  40.4716160
  85.9830590 103.4416000  44.4769200  86.5789660 103.1200570  43.8003620
  86.2408740 102.9687820  45.2682470  82.4328170  87.5496250  53.6218350
  83.0468580  87.8675540  52.9599430  82.9777730  87.0644840  54.2414210
  88.8503350 103.4487880  51.0280190  88.3561630 103.8456750  50.3107320
  88.2416640 102.8237090  51.4217470  73.7281190 102.8196160  51.7457610
  73.1341510 102.6880860  52.4847650  73.7205030 101.9834300  51.2799710
  84.0808190  88.3199260  51.3329360  83.7521550  87.5051020  50.9531090
  85.0290490  88.2769070  51.2095050  86.5342800 104.0911300  48.3066930
  86.0745770 104.8427110  47.9324950  85.9055260 103.3717770  48.2481730
  76.9638520 102.3999540  47.4815060  77.4803540 101.7886900  46.9563320
  77.6135900 102.9028320  47.9726070  79.7034020 103.2908030  48.3084040
  79.9911830 103.0362330  47.4317050  80.2157240 102.7385390  48.8989610
  87.3370670  87.3636570  44.9438460  87.2759070  86.4197790  44.7969480
  88.1162700  87.4716660  45.4891920  71.6423420 103.5028930  43.9062410
  71.4745460 102.8699610  44.6044300  70.7757930 103.7088330  43.5556600
  86.4524830  86.5148990  40.9119930  86.6475460  87.4132440  41.1787360
  85.6654700  86.2836070  41.4052880  73.2486120 102.1962160  41.3512550
  72.7233740 102.5770190  40.6474510  73.1730700 102.8212930  42.0722260
  79.7706380 104.2124130  55.6752240  80.6973690 103.9768400  55.7188200
  79.7556810 105.0396130  55.1938270  88.0051440 103.7549700  42.6726490
  88.1803630 103.0687440  42.0287410  87.3073010 104.2796750  42.2803160
  75.8479090 104.1444540  40.2261800  76.5797910 103.8603820  39.6785690
  76.1072760 103.9057820  41.1161180  75.0093880 100.2609270  40.2308130
  74.3802760 100.7294370  40.7793960  75.1241710  99.4158490  40.6654320
  83.5585450  86.2922460  56.0174590  83.4450900  86.6117070  56.9126110
  84.3755190  86.6934970  55.7211870  86.3383940 103.4393990  55.4993280
  87.1309260 102.9443220  55.2919240  86.6317090 104.1184130  56.1068890
  82.4643600  94.3114930  26.3809330  82.3837650  93.3969540  26.1101040
  82.0508020  94.8082000  25.6749040  80.5961640  96.0893950  28.2618600
  79.8203740  95.6094390  28.5517170  81.2474570  95.4099600  28.0874760
  84.6169070 100.4954140  27.0417730  84.1550600  99.7241380  27.3704900
  85.4294620 100.5220210  27.5470180  74.5928730 100.4353850  29.3352380
  74.8956770  99.5451590  29.1562600  75.3372320 100.9924070  29.1074630
  73.0219420  91.3615650  22.9236750  72.1336120  91.7031620  22.8216630
  73.3060610  91.1615970  22.0317580  80.8432380 102.7812150  26.6621720
  80.2243820 103.2369650  26.0916160  81.6984160 102.9363610  26.2611420
  80.0370630  98.7651140  28.2688760  79.9678910  97.8241080  28.1077890
  80.7990490  98.8552550  28.8411330  81.0675800  91.5721520  28.4957690
  81.4440620  90.6993400  28.3831360  80.9695310  91.9080220  27.6048130
  75.1980810  89.9447150  23.9575130  75.3047560  90.8450880  24.2643890
  74.2873170  89.8965120  23.6669780  84.8499920  89.0671960  25.4286030
  85.6709540  88.5768530  25.4711510  84.8834000  89.6569620  26.1817870
  89.1399470  91.0838710  31.9929660  88.4351640  91.4720420  31.4744770
  89.4057390  91.7789000  32.5950590  81.7095730  97.6651390  24.0553630
  81.0913000  98.1300840  23.4916350  82.2218980  98.3578870  24.4723140
  85.0861400  91.0072340  28.2013570  84.3816970  91.2957230  28.7816680
  85.4473560  91.8172450  27.8413130  75.7846590  99.1608060  32.5486410
  76.4020590  99.8359140  32.2670860  74.9239710  99.5696040  32.4573910
  71.0778930  98.3507920  21.4293260  70.7006910  98.8395020  20.6978160
  71.3352000  99.0233200  22.0599790  86.7024180 100.6247470  30.4641050
  86.0187700 101.2946580  30.4557720  87.2418470 100.8228120  29.6985910
  88.1548320  90.4527130  28.5922780  87.2073230  90.4866110  28.7238210
  88.4798310  91.2666080  28.9772140  78.6867860  86.7524310  26.8878770
  78.9942840  86.1971200  26.1714270  77.7568560  86.8868770  26.7051760
  84.2382920 102.4691600  29.1786230  84.2510080 102.0653890  28.3108490
  83.6858140 103.2438890  29.0747660  85.5328340  99.1907820  24.2676400
  85.4224670  98.2482150  24.3925820  85.5296590  99.5523460  25.1539160
  83.6368360  97.3721440  30.5068840  84.0537150  97.1581550  29.6722300
  84.3608180  97.6294230  31.0777460  81.0748620  94.8173140  23.6238890
  80.1477900  94.7510520  23.8527360  81.2273440  95.7553270  23.5094130
  81.0617700  91.0890140  20.6206050  80.1221370  91.2504100  20.7058510
  81.3800960  91.8075820  20.0742040  87.5830460  95.7708660  30.5985080
  86.7549090  95.8401750  30.1235210  88.1780940  96.3562970  30.1300910
  85.1045910  96.3793440  24.1274140  84.4858330  96.0412990  23.4800440
  85.0870360  95.7353200  24.8353330  84.5472470  92.5577980  31.5439950
  84.1343650  93.3831690  31.7979940  83.8148420  91.9723020  31.3516310
  77.1486960  99.0305440  28.5697830  76.8515250  98.4250910  27.8905610
  78.0986780  99.0682750  28.4587190  85.2372570 102.6037310  32.2320930
  84.7603130 103.4109500  32.0393540  84.5534360 101.9515640  32.3847140
  76.2405390  98.7687130  35.2205630  75.3433920  98.9927100  35.4679030
  76.2658260  98.8922070  34.2717030  83.2810610  95.6180250  21.1346890
  83.7203890  94.7802680  20.9884710  83.9939030  96.2509650  21.2211030
  81.3905990 100.5576320  25.1028130  81.8301900 101.3000650  24.6883520
  81.3292880 100.8002890  26.0267090  76.8656960 101.5822150  36.0048150
  76.8372390 101.9865100  35.1376580  76.7021930 100.6532510  35.8419750
  86.8627750  86.8723060  19.4487930  86.5500410  86.9649890  20.3487000
  87.6240220  87.4504090  19.3985360  73.3809890  94.2382860  23.9065270
  73.2607490  94.9644950  23.2946540  73.0710780  93.4685770  23.4293180
  88.8171780 102.3649250  37.3012320  89.2931500 102.8432140  37.9801400
  89.4378940 102.2966740  36.5757820  88.2205030  99.5562100  34.4612330
  88.3468090  99.3173980  33.5429510  88.2626410  98.7246640  34.9334410
  82.0821770 103.2590100  33.0307140  82.5966440 103.1698110  33.8329570
  81.2390850 103.6049800  33.3235050  84.0576170 103.5445440  22.4591140
  83.8977310 103.2548380  23.3572970  83.8922880 102.7685570  21.9236370
  76.5364550 103.3243970  24.2362760  76.3607030 102.4079510  24.0230560
  75.6820290 103.6831260  24.4760560  83.7602300 101.0533000  21.0189140
  83.0667460 101.0510290  20.3591420  84.5025160 100.6292320  20.5883310
  83.3252230 102.6795710  25.0937630  83.7809180 101.8985090  25.4076250
  83.6644750 103.3902530  25.6378810  88.0729040  91.6094560  35.4262070
  87.4573310  92.1174230  34.8977530  87.7525460  90.7092890  35.3688010
  85.1347870  91.6695400  34.0220920  84.2841460  91.3701150  34.3429990
  84.9749660  91.9137410  33.1104740  82.2297580  93.1697150  36.1219710
  82.5550990  92.3360900  35.7821940  83.0177910  93.6925670  36.2698040
  78.9632370  87.2028630  22.1694770  78.3386550  87.1988500  22.8948080
  78.8762490  86.3359590  21.7730740  75.6387770  92.7051500  25.0170190
  75.4128690  92.4888670  25.9216810  74.8580300  93.1379960  24.6716160
  82.8685530  92.7114870  23.6160840  82.2694420  93.4350670  23.4324460
  83.4165140  92.6491650  22.8337290  81.4750400  91.3478410  25.6464120
  81.8679970  91.6650610  24.8332810  81.8367250  90.4690290  25.7608640
  70.6984800  91.8799330  19.0797040  70.6159470  92.8230090  19.2212030
  70.3467860  91.7374240  18.2009390  82.0605540  93.9384160  29.7414900
  81.3286660  94.4470970  30.0905000  81.6629880  93.1214140  29.4403680
  78.4982930  90.6138360  28.1467390  78.5018990  90.1728310  27.2971930
  79.3934050  90.9355690  28.2539210  74.3485310  90.4964850  27.1061600
  74.0085360  90.9740080  27.8628650  73.5862630  90.0429970  26.7462700
  78.5603080  91.6150440  21.1374150  78.6815900  91.5736920  22.0859970
  78.1751590  92.4774590  20.9820880  82.5231450  89.3917840  29.1537840
  82.5404190  89.8426490  29.9979690  82.2747030  88.4923480  29.3671280
  77.5724580  93.9251580  20.5357450  77.0041480  93.4769830  19.9093360
  78.2813580  94.2844360  20.0022600  85.9502200  86.8050020  34.9924220
  86.2747970  86.0739680  35.5182200  85.9858710  86.4863660  34.0905210
  78.7990900  94.6740140  29.8932800  79.1661030  94.1998710  30.6394140
  78.6095960  95.5481710  30.2341140  71.6631390  89.4183830  26.0226270
  71.3778310  89.0539500  26.8604890  71.6010250  88.6864290  25.4089410
  75.1172060  97.9209770  22.8083860  74.3434320  97.3807390  22.6482580
  75.8466690  97.4016380  22.4701620  85.8760040  96.9175130  28.6010250
  86.5959160  97.4130420  28.2106360  85.6741860  96.2393020  27.9564120
  81.3369980  88.3113090  22.7439640  80.5234590  87.8126260  22.6684950
  81.1431930  89.1511340  22.3275990  81.2578840  96.9884190  34.4879250
  81.1916150  96.0679860  34.2336840  80.6283980  97.0859630  35.2023890
  84.0518370  92.6832740  21.0401800  84.9397990  92.9949970  20.8653140
  84.0223460  91.8104990  20.6482380  80.0478960  98.8556430  21.7189970
  80.3894660  99.5998660  21.2233290  79.2191670  99.1687550  22.0814800
  81.1895570  99.8104760  34.2383050  81.2040110  98.8785720  34.0201960
  80.4820670  99.8964520  34.8772820  86.3232640  93.9944580  20.5081660
  86.2396360  94.4258800  19.6578100  87.0426830  94.4542930  20.9408480
  87.4006780  96.4512100  33.5851630  86.6754970  97.0440880  33.3881020
  87.9282240  96.4435640  32.7865000  87.3519890 100.8486840  23.2363790
  86.7096050 100.1942460  23.5107510  86.9650550 101.2541930  22.4604460
  82.9306370  98.1772270  27.0835480  83.2830190  97.5800400  26.4236850
  82.0468700  97.8516500  27.2543730  79.0169650  98.9369960  24.4905890
  79.7040780  99.4839170  24.8713480  78.2302070  99.4810690  24.5255500
  71.1562050  94.5542780  19.9822970  72.0256900  94.8367580  20.2658890
  70.6652370  95.3678650  19.8671780  78.3196860  95.9415990  24.1031250
  78.7759640  96.7521240  24.3291440  77.9685070  95.6239130  24.9349740
  80.6229470 101.4522330  31.3323550  81.2671690 101.6581710  32.0096970
  80.9858910 100.6910730  30.8794400  81.8961550  99.4554680  30.0501000
  82.5383780  98.7547840  30.1633170  82.4210900 100.2353120  29.8697890
  85.7417270  99.7403300  19.7740140  85.5154850  99.0233740  20.3664780
  85.3513470  99.4915740  18.9361890  83.6699170 100.2549580  33.2537060
  84.0055410 100.8416270  33.9314980  82.7499510 100.1242290  33.4834850
  71.5233300 103.7670160  20.5484600  71.8830940 104.3659500  19.8941870
  71.3825640 104.3130050  21.3219630  85.3233520  97.6575240  21.4354300
  85.0355220  98.1187930  22.2232180  86.1185690  97.1973010  21.7038520
  71.5075160 102.0325020  35.0227000  71.6166280 101.0919760  34.8822390
  70.8555720 102.2979770  34.3740730  79.4987750 100.3040910  36.4225120
  79.1784620  99.5850150  36.9670810  78.8246110 100.9795980  36.4961180
  77.5401920 101.1501360  21.3658270  77.5312020 101.8831050  20.7502780
  76.6200280 100.9032940  21.4585230  73.1408560  96.3716250  22.1105030
  72.5336510  97.1115150  22.1200330  73.6157910  96.4615610  21.2843230
  86.0803380  89.4924010  22.5949480  85.4516540  89.5969680  21.8807710
  85.5855300  89.7120790  23.3843360  80.5261520 101.2129600  20.0283460
  80.6273500 101.0093590  19.0985440  79.6263260 100.9587880  20.2331240
  78.0487410  91.7709960  24.0107360  77.3403560  92.2396300  24.4520970
  78.3331890  91.1131970  24.6452550  79.6743340  93.1906660  32.0099890
  80.1728590  93.6652480  32.6751740  79.8166290  92.2670180  32.2169920
  82.0802840  88.4960620  25.4503150  81.9570620  88.5146750  24.5012660
  83.0287400  88.5439560  25.5701550  79.1679630 103.7315920  24.7231130
  79.4221130 103.6937310  23.8010500  78.2192110 103.6049250  24.7159380
  76.2522430  90.0795040  21.3858070  77.1012960  90.5165190  21.3198260
  75.8853700  90.3915300  22.2130130  86.8810200  89.4074620  32.8528280
  86.3783800  90.1480020  33.1922090  87.6966860  89.7958620  32.5365070
  85.1732210  94.6507800  26.2989640  84.2322350  94.6658030  26.4737330
  85.4876280  93.8643760  26.7449940  75.1513850  96.3327400  19.8593600
  75.9177120  96.2208760  20.4219030  75.2288540  95.6365370  19.2070370
  73.8460610  93.7652470  20.5426490  73.9264200  92.8179980  20.6543890
  74.7380360  94.0959350  20.6487150  87.1757790 101.8216650  27.9743900
  87.3005210 102.6447820  28.4467710  88.0423350 101.6107380  27.6268050
  74.6475320 103.9147860  27.6461030  75.3837800 103.3663320  27.9169600
  75.0316240 104.7803870  27.5067020  71.5320800  99.9821430  23.5202540
  70.6060580 100.2242570  23.5107950  71.9977230 100.8095690  23.3987290
  73.6533600 103.0993930  36.8346610  74.4546330 103.4205980  37.2482010
  73.1385420 102.7389510  37.5566520  77.7577630 103.0878170  19.4686600
  78.5506240 103.3767000  19.0168390  77.2381980 102.6570340  18.7899080
  82.4898230  99.2073800  36.7822020  81.8836390  99.2305400  36.0417770
  82.1852340  98.4756840  37.3189270  83.9198600 102.9354090  35.3931430
  84.8720350 102.8512110  35.3431670  83.7726820 103.5995800  36.0665220
  86.8107800 102.3148300  20.8923340  86.5249310 101.9013440  20.0777520
  86.6127350 103.2436010  20.7723860  78.2755030  98.3081580  19.3328950
  78.1705670  97.6933930  20.0590330  78.1079250  97.7847470  18.5491960
  78.4269350  96.9938380  35.3118180  77.6615020  97.5623380  35.2272850
  78.6085310  96.7014590  34.4186410  81.5157760  97.3701610  19.9370940
  80.9667860  97.8170910  20.5813680  82.1377020  96.8650860  20.4608610
  85.5692700  98.7243710  35.8693200  86.3102170  99.0619470  35.3660660
  84.8065380  98.8935770  35.3162970  77.1832880  96.3292530  21.8336240
  77.6049300  96.1632400  22.6767630  77.3083720  95.5192760  21.3391380
  79.6960520  95.3530140  19.0813340  80.2166180  94.6379160  18.7154490
  80.3428920  95.9916010  19.3813850  84.2438360  96.7758540  34.4048410
  84.6579380  96.9303620  35.2538830  83.3089360  96.9013760  34.5674190
  84.7160530  94.1154700  36.4087560  85.2981300  93.3607020  36.3208040
  84.8922300  94.6462140  35.6319040  79.0053590  96.7279020  32.3744340
  79.4241700  97.5711750  32.2020580  78.0862220  96.8651060  32.1451120
  81.3417490  94.4595200  33.7582180  81.4613700  93.8636340  34.4977020
  82.2011490  94.4964890  33.3383480  83.6805390  95.0132390  32.3344690
  83.1540610  95.5375010  31.7309830  84.0236730  95.6459780  32.9654420
  76.0791780  92.4025760  18.7794400  75.8780840  91.5393120  19.1407740
  75.9083830  92.3159120  17.8416000  76.8561010 103.0332030  33.4902070
  76.3182100 103.7578090  33.1710770  77.1094970 102.5562370  32.6999410
  83.5580090  87.2133990  21.3081280  83.8382380  86.3701890  21.6640700
  82.7845820  87.4457100  21.8220030  74.8774580  89.5026380  18.7672280
  75.1800480  89.5093810  17.8591430  75.6169170  89.1524240  19.2639940
  79.7123220 104.2683240  33.7488720  79.6381920 105.1718380  34.0561090
  78.8102060 103.9495140  33.7210790  78.0959510  88.4461000  19.7528480
  77.7481510  87.7684990  19.1730930  78.2972280  87.9850510  20.5671870
  80.2608550 103.4341750  21.3715080  81.1559340 103.7726720  21.3933840
  80.2926180 102.7121160  20.7439360  73.9004710  98.8068800  19.6002080
  74.3379580  99.3498470  20.2559660  74.3852440  97.9815750  19.6098420
  71.1150510 101.5957830  27.0522340  71.4453520 100.7278890  26.8200980
  71.5441510 101.8016350  27.8827300  75.7112430  99.9266840  24.7124310
  75.4107970  99.8031810  25.6128220  75.6049920  99.0675430  24.3040040
  87.2402900 101.9645420  34.0781280  86.6404890 102.0237980  33.3345200
  87.3696800 101.0250400  34.2078130  88.4804350  99.7063240  19.4150990
  87.6497310  99.7739890  19.8858220  88.6576180 100.5967360  19.1117850
  87.9360810  96.4510720  21.9185190  88.6979720  97.0207370  22.0244880
  87.9515180  95.8837920  22.6893500  88.9420780  97.3060820  26.7627120
  89.3129610  96.5228140  26.3563090  89.5822710  97.9949920  26.5844420
  85.9254540  98.6897400  32.1757440  85.1114380  99.1194560  32.4383230
  86.3328740  99.3015810  31.5626490  87.9879980  96.7445090  19.0757710
  88.2628820  97.6523970  18.9476930  87.7990720  96.6807620  20.0119700
  84.3855590  89.7689940  20.3711340  84.8040470  89.5820920  19.5308000
  84.0791650  88.9168990  20.6814270  87.8845320  94.6814080  24.0687140
  87.5088920  93.9142010  23.6368430  87.1548440  95.0636780  24.5562070
  87.2744940  93.8285600  33.7026660  87.0431030  93.5998350  32.8024610
  87.5349490  94.7485150  33.6571550  85.7133010  89.0542030  36.4806360
  86.5903190  89.0625430  36.8640360  85.7253850  88.3172870  35.8698710
  70.6503230  92.1847580  22.0918180  69.7467310  92.4477780  21.9169840
  71.1343850  92.4558750  21.3118140  87.1596280  92.9071570  27.3694380
  87.6833760  92.4134220  26.7384550  87.7455700  93.0421930  28.1141950
  87.3386000  92.9911440  30.8913930  86.3888710  92.9574980  31.0058920
  87.5199010  93.9011550  30.6563700  73.1930440  91.2413120  20.0012560
  73.9022140  90.8196340  19.5159840  72.4770380  91.3088350  19.3695910
  72.8404600  87.2952450  19.0415210  73.5632730  87.8361390  19.3596430
  73.1129120  87.0215870  18.1656750  86.6496250  92.1644920  23.3086790
  87.1455370  91.9315790  24.0935670  86.4512320  91.3256760  22.8924430
  88.0783410  90.8005870  25.8424470  87.9682690  90.6461910  26.7806740
  88.8391000  90.2726810  25.5999880  86.4249130  86.7400000  32.3007470
  87.0621350  87.3534140  32.6666660  86.5724020  86.7760660  31.3556700
  88.9673680  88.6313790  19.0830610  89.8922990  88.4994970  18.8748900
  88.9449470  88.7106610  20.0367060  89.0412170  89.4024450  21.7087320
  88.2463670  89.3369570  22.2380230  89.2455450  90.3375090  21.6972670
  85.9830590 103.4416000  25.7025710  86.5789660 103.1200570  25.0260130
  86.2408740 102.9687820  26.4938980  77.5899190 101.4293500  31.4526060
  77.3490550 101.6968060  30.5656580  78.5301830 101.5999230  31.5076920
  88.8503350 103.4487880  32.2536700  88.3561630 103.8456750  31.5363830
  88.2416640 102.8237090  32.6473980  73.7281190 102.8196160  32.9714120
  73.1341510 102.6880860  33.7104160  73.7205030 101.9834300  32.5056220
  83.1736210  86.1128390  31.1744150  82.2996050  86.4463500  30.9717080
  83.0646960  85.6401570  31.9996020  84.0808190  88.3199260  32.5585870
  83.7521550  87.5051020  32.1787600  85.0290490  88.2769070  32.4351560
  86.5342800 104.0911300  29.5323440  86.0745770 104.8427110  29.1581460
  85.9055260 103.3717770  29.4738240  73.3593420 100.1854540  31.9222160
  72.6327480  99.5659830  31.8548110  73.4202570 100.5795150  31.0520240
  76.9638520 102.3999540  28.7071570  77.4803540 101.7886900  28.1819830
  77.6135900 102.9028320  29.1982580  79.7034020 103.2908030  29.5340550
  79.9911830 103.0362330  28.6573560  80.2157240 102.7385390  30.1246120
  80.9211030  87.0298230  30.1137060  80.1382820  87.5043730  30.3933820
  80.6273960  86.1253060  30.0050240  85.4732100  87.7321330  28.1586150
  85.9140190  87.6766430  27.3107750  85.2039690  88.6479340  28.2296330
  87.3370670  87.3636570  26.1694970  87.2759070  86.4197790  26.0225990
  88.1162700  87.4716660  26.7148430  71.6423420 103.5028930  25.1318920
  71.4745460 102.8699610  25.8300810  70.7757930 103.7088330  24.7813110
  72.2651440  87.3345710  22.6350780  73.0230800  87.4474590  22.0614810
  71.8028610  88.1714910  22.5894210  78.8065250  89.4484980  25.6253090
  77.9939760  89.0741870  25.2848970  79.3106890  88.6930060  25.9274280
  83.3090230  86.1127430  26.8636160  83.9119600  86.6847640  27.3384680
  82.5683220  86.6766870  26.6410060  86.4524830  86.5148990  22.1376440
  86.6475460  87.4132440  22.4043870  85.6654700  86.2836070  22.6309390
  73.2486120 102.1962160  22.5769060  72.7233740 102.5770190  21.8731020
  73.1730700 102.8212930  23.2978770  74.6376590  87.8609760  21.1752750
  75.1669350  87.0739560  21.0460700  75.2704910  88.5400950  21.4088280
  76.8314430  87.5984900  24.2298140  76.2017170  86.8972210  24.3968270
  76.2919570  88.3589030  24.0131300  79.7706380 104.2124130  36.9008750
  80.6973690 103.9768400  36.9444710  79.7556810 105.0396130  36.4194780
  88.0051440 103.7549700  23.8983000  88.1803630 103.0687440  23.2543920
  87.3073010 104.2796750  23.5059670  75.8479090 104.1444540  21.4518310
  76.5797910 103.8603820  20.9042200  76.1072760 103.9057820  22.3417690
  75.0093880 100.2609270  21.4564640  74.3802760 100.7294370  22.0050470
  75.1241710  99.4158490  21.8910830  86.3383940 103.4393990  36.7249790
  87.1309260 102.9443220  36.5175750  86.6317090 104.1184130  37.3325400
  82.4643600  94.3114930   7.6065840  82.3837650  93.3969540   7.3357550
  82.0508020  94.8082000   6.9005550  80.5961640  96.0893950   9.4875110
  79.8203740  95.6094390   9.7773680  81.2474570  95.4099600   9.3131270
  74.6127470  96.4013760  10.3650870  73.7812350  96.1462470  10.7647380
  75.2208450  96.4724530  11.1008790  84.6169070 100.4954140   8.2674240
  84.1550600  99.7241380   8.5961410  85.4294620 100.5220210   8.7726690
  74.5928730 100.4353850  10.5608890  74.8956770  99.5451590  10.3819110
  75.3372320 100.9924070  10.3331140  73.0219420  91.3615650   4.1493260
  72.1336120  91.7031620   4.0473140  73.3060610  91.1615970   3.2574090
  70.9852430  93.9621300  10.0332960  71.5568540  93.1943500  10.0336600
  70.9853970  94.2610060   9.1239570  80.8432380 102.7812150   7.8878230
  80.2243820 103.2369650   7.3172670  81.6984160 102.9363610   7.4867930
  80.0370630  98.7651140   9.4945270  79.9678910  97.8241080   9.3334400
  80.7990490  98.8552550  10.0667840  72.2277300  89.3705660  11.8201890
  72.0480140  88.4731410  12.1004650  71.8257380  89.9177530  12.4948840
  81.0675800  91.5721520   9.7214200  81.4440620  90.6993400   9.6087870
  80.9695310  91.9080220   8.8304640  75.1980810  89.9447150   5.1831640
  75.3047560  90.8450880   5.4900400  74.2873170  89.8965120   4.8926290
  84.8499920  89.0671960   6.6542540  85.6709540  88.5768530   6.6968020
  84.8834000  89.6569620   7.4074380  72.8463970  91.8666160  10.4284230
  73.5274080  92.1304530  11.0471630  72.5312020  91.0267030  10.7622240
  77.0388540  92.9133520   9.5156820  77.5466760  93.4114490  10.1561840
  77.5701780  92.1368720   9.3396180  89.1399470  91.0838710  13.2186170
  88.4351640  91.4720420  12.7001280  89.4057390  91.7789000  13.8207100
  75.3224640  87.5532080  13.7820240  75.3243080  88.0704470  12.9766140
  74.4928950  87.0762260  13.7590170  81.7095730  97.6651390   5.2810140
  81.0913000  98.1300840   4.7172860  82.2218980  98.3578870   5.6979650
  76.5727490  97.1927260  11.9593740  76.2396870  97.8196180  12.6014810
  76.7494170  97.7189140  11.1795410  85.0861400  91.0072340   9.4270080
  84.3816970  91.2957230  10.0073190  85.4473560  91.8172450   9.0669640
  75.0039970  89.2642040  11.7890690  75.3456780  90.1084090  11.4944560
  74.0655780  89.4125780  11.9056030  75.7846590  99.1608060  13.7742920
  76.4020590  99.8359140  13.4927370  74.9239710  99.5696040  13.6830420
  71.0778930  98.3507920   2.6549770  70.7006910  98.8395020   1.9234670
  71.3352000  99.0233200   3.2856300  86.7024180 100.6247470  11.6897560
  86.0187700 101.2946580  11.6814230  87.2418470 100.8228120  10.9242420
  88.1548320  90.4527130   9.8179290  87.2073230  90.4866110   9.9494720
  88.4798310  91.2666080  10.2028650  78.6867860  86.7524310   8.1135280
  78.9942840  86.1971200   7.3970780  77.7568560  86.8868770   7.9308270
  84.2382920 102.4691600  10.4042740  84.2510080 102.0653890   9.5365000
  83.6858140 103.2438890  10.3004170  85.5328340  99.1907820   5.4932910
  85.4224670  98.2482150   5.6182330  85.5296590  99.5523460   6.3795670
  83.6368360  97.3721440  11.7325350  84.0537150  97.1581550  10.8978810
  84.3608180  97.6294230  12.3033970  81.0748620  94.8173140   4.8495400
  80.1477900  94.7510520   5.0783870  81.2273440  95.7553270   4.7350640
  81.0617700  91.0890140   1.8462560  80.1221370  91.2504100   1.9315020
  81.3800960  91.8075820   1.2998550  87.5830460  95.7708660  11.8241590
  86.7549090  95.8401750  11.3491720  88.1780940  96.3562970  11.3557420
  85.1045910  96.3793440   5.3530650  84.4858330  96.0412990   4.7056950
  85.0870360  95.7353200   6.0609840  84.5472470  92.5577980  12.7696460
  84.1343650  93.3831690  13.0236450  83.8148420  91.9723020  12.5772820
  76.6805260  95.3437880   7.6315130  76.2762260  94.6315130   7.1361030
  76.7668380  94.9991120   8.5203170  77.1486960  99.0305440   9.7954340
  76.8515250  98.4250910   9.1162120  78.0986780  99.0682750   9.6843700
  75.3933880  92.1181090  11.4114170  75.9448470  92.2276430  10.6367420
  75.9077390  92.4918690  12.1269400  85.2372570 102.6037310  13.4577440
  84.7603130 103.4109500  13.2650050  84.5534360 101.9515640  13.6103650
  76.2405390  98.7687130  16.4462140  75.3433920  98.9927100  16.6935540
  76.2658260  98.8922070  15.4973540  83.2810610  95.6180250   2.3603400
  83.7203890  94.7802680   2.2141220  83.9939030  96.2509650   2.4467540
  75.0676610  95.6400450  15.0219510  74.9284380  96.5123250  15.3906910
  74.1857970  95.2973260  14.8767450  81.3905990 100.5576320   6.3284640
  81.8301900 101.3000650   5.9140030  81.3292880 100.8002890   7.2523600
  76.8656960 101.5822150  17.2304660  76.8372390 101.9865100  16.3633090
  76.7021930 100.6532510  17.0676260  73.3809890  94.2382860   5.1321780
  73.2607490  94.9644950   4.5203050  73.0710780  93.4685770   4.6549690
  88.8171780 102.3649250  18.5268830  89.2931500 102.8432140  19.2057910
  89.4378940 102.2966740  17.8014330  71.0195260  97.4098000  10.9390420
  71.0975680  97.5446770   9.9946140  71.6336940  96.7013890  11.1318540
  72.2642890  99.1098190   7.3496600  71.8570970  99.2512780   6.4950200
  73.1555900  98.8258350   7.1467810  88.2205030  99.5562100  15.6868840
  88.3468090  99.3173980  14.7686020  88.2626410  98.7246640  16.1590920
  82.0821770 103.2590100  14.2563650  82.5966440 103.1698110  15.0586080
  81.2390850 103.6049800  14.5491560  84.0576170 103.5445440   3.6847650
  83.8977310 103.2548380   4.5829480  83.8922880 102.7685570   3.1492880
  76.5364550 103.3243970   5.4619270  76.3607030 102.4079510   5.2487070
  75.6820290 103.6831260   5.7017070  83.7602300 101.0533000   2.2445650
  83.0667460 101.0510290   1.5847930  84.5025160 100.6292320   1.8139820
  83.3252230 102.6795710   6.3194140  83.7809180 101.8985090   6.6332760
  83.6644750 103.3902530   6.8635320  88.0729040  91.6094560  16.6518580
  87.4573310  92.1174230  16.1234040  87.7525460  90.7092890  16.5944520
  71.0754780  98.4512170  13.4784880  71.2385820  97.9817530  12.6604250
  71.5407230  97.9435730  14.1433720  75.8473550  87.5817930   8.5145450
  75.4041700  88.3627470   8.1829970  76.4058540  87.9047820   9.2216390
  80.1343360  90.4486450  14.1180770  79.6722730  90.6569470  14.9300710
  79.7321470  89.6345800  13.8151440  85.1347870  91.6695400  15.2477430
  84.2841460  91.3701150  15.5686500  84.9749660  91.9137410  14.3361250
  82.2297580  93.1697150  17.3476220  82.5550990  92.3360900  17.0078450
  83.0177910  93.6925670  17.4954550  78.9632370  87.2028630   3.3951280
  78.3386550  87.1988500   4.1204590  78.8762490  86.3359590   2.9987250
  77.8849450  88.1265260  10.3735050  78.1821780  89.0328090  10.2927070
  78.4335010  87.6384040   9.7594620  75.6387770  92.7051500   6.2426700
  75.4128690  92.4888670   7.1473320  74.8580300  93.1379960   5.8972670
  82.8685530  92.7114870   4.8417350  82.2694420  93.4350670   4.6580970
  83.4165140  92.6491650   4.0593800  78.0786980  93.6037080  16.9086970
  77.9830580  92.6631810  16.7587370  78.9218960  93.8252150  16.5135040
  81.4750400  91.3478410   6.8720630  81.8679970  91.6650610   6.0589320
  81.8367250  90.4690290   6.9865150  73.2097520  90.0150750  15.0620750
  72.8160910  90.8625960  15.2693530  72.5215920  89.3777120  15.2529390
  79.7842570  90.0985720  18.1317490  79.0940890  89.9057920  18.7663580
  80.5274870  90.3820360  18.6641790  70.5114570  87.9379210   9.0950830
  70.2227620  88.5082070   9.8075810  71.2560330  87.4583660   9.4582060
  82.0605540  93.9384160  10.9671410  81.3286660  94.4470970  11.3161510
  81.6629880  93.1214140  10.6660190  78.4982930  90.6138360   9.3723900
  78.5018990  90.1728310   8.5228440  79.3934050  90.9355690   9.4795720
  74.3485310  90.4964850   8.3318110  74.0085360  90.9740080   9.0885160
  73.5862630  90.0429970   7.9719210  78.5603080  91.6150440   2.3630660
  78.6815900  91.5736920   3.3116480  78.1751590  92.4774590   2.2077390
  82.5231450  89.3917840  10.3794350  82.5404190  89.8426490  11.2236200
  82.2747030  88.4923480  10.5927790  85.9502200  86.8050020  16.2180730
  86.2747970  86.0739680  16.7438710  85.9858710  86.4863660  15.3161720
  72.6493760  97.8263600  15.6380690  72.2648550  97.1857270  16.2363650
  72.9605950  98.5299720  16.2075420  78.7990900  94.6740140  11.1189310
  79.1661030  94.1998710  11.8650650  78.6095960  95.5481710  11.4597650
  71.6631390  89.4183830   7.2482780  71.3778310  89.0539500   8.0861400
  71.6010250  88.6864290   6.6345920  76.5890270  93.7148780  13.4373520
  76.2847340  94.5940760  13.6623880  77.5436730  93.7748570  13.4730960
  75.1172060  97.9209770   4.0340370  74.3434320  97.3807390   3.8739090
  75.8466690  97.4016380   3.6958130  85.8760040  96.9175130   9.8266760
  86.5959160  97.4130420   9.4362870  85.6741860  96.2393020   9.1820630
  81.3369980  88.3113090   3.9696150  80.5234590  87.8126260   3.8941460
  81.1431930  89.1511340   3.5532500  81.2578840  96.9884190  15.7135760
  81.1916150  96.0679860  15.4593350  80.6283980  97.0859630  16.4280400
  84.0518370  92.6832740   2.2658310  84.9397990  92.9949970   2.0909650
  84.0223460  91.8104990   1.8738890  75.1609460  97.5890150   7.6719180
  75.6788130  96.7858410   7.6176070  74.7093480  97.5269290   8.5136010
  80.0478960  98.8556430   2.9446480  80.3894660  99.5998660   2.4489800
  79.2191670  99.1687550   3.3071310  72.6454000  94.5551520  14.5844880
  72.2868940  95.2205370  15.1718220  72.3508560  93.7235070  14.9557500
  75.8467120  95.0135760  17.4684430  75.5467260  95.1592940  16.5712250
  76.6178360  94.4541050  17.3757820  81.1895570  99.8104760  15.4639560
  81.2040110  98.8785720  15.2458470  80.4820670  99.8964520  16.1029330
  87.4006780  96.4512100  14.8108140  86.6754970  97.0440880  14.6137530
  87.9282240  96.4435640  14.0121510  87.3519890 100.8486840   4.4620300
  86.7096050 100.1942460   4.7364020  86.9650550 101.2541930   3.6860970
  82.9306370  98.1772270   8.3091990  83.2830190  97.5800400   7.6493360
  82.0468700  97.8516500   8.4800240  79.0169650  98.9369960   5.7162400
  79.7040780  99.4839170   6.0969990  78.2302070  99.4810690   5.7512010
  78.3196860  95.9415990   5.3287760  78.7759640  96.7521240   5.5547950
  77.9685070  95.6239130   6.1606250  80.6229470 101.4522330  12.5580060
  81.2671690 101.6581710  13.2353480  80.9858910 100.6910730  12.1050910
  74.2208640  86.2853640   5.8010280  74.0923270  86.2771540   6.7495200
  73.3970660  86.6236730   5.4501290  81.8961550  99.4554680  11.2757510
  82.5383780  98.7547840  11.3889680  82.4210900 100.2353120  11.0954400
  83.6699170 100.2549580  14.4793570  84.0055410 100.8416270  15.1571490
  82.7499510 100.1242290  14.7091360  71.2202570  88.0444760  15.2616980
  70.5061090  88.2441680  15.8669590  71.6397610  87.2684330  15.6331780
  85.3233520  97.6575240   2.6610810  85.0355220  98.1187930   3.4488690
  86.1185690  97.1973010   2.9295030  71.5075160 102.0325020  16.2483510
  71.6166280 101.0919760  16.1078900  70.8555720 102.2979770  15.5997240
  79.4987750 100.3040910  17.6481630  79.1784620  99.5850150  18.1927320
  78.8246110 100.9795980  17.7217690  77.5401920 101.1501360   2.5914780
  77.5312020 101.8831050   1.9759290  76.6200280 100.9032940   2.6841740
  73.1408560  96.3716250   3.3361540  72.5336510  97.1115150   3.3456840
  73.6157910  96.4615610   2.5099740  82.7141350  90.5367070  13.0118430
  83.0822170  89.7162280  13.3398000  81.8539550  90.5968960  13.4274080
  86.0803380  89.4924010   3.8205990  85.4516540  89.5969680   3.1064220
  85.5855300  89.7120790   4.6099870  78.0487410  91.7709960   5.2363870
  77.3403560  92.2396300   5.6777480  78.3331890  91.1131970   5.8709060
  79.6743340  93.1906660  13.2356400  80.1728590  93.6652480  13.9008250
  79.8166290  92.2670180  13.4426430  82.0802840  88.4960620   6.6759660
  81.9570620  88.5146750   5.7269170  83.0287400  88.5439560   6.7958060
  79.1679630 103.7315920   5.9487640  79.4221130 103.6937310   5.0267010
  78.2192110 103.6049250   5.9415890  76.2522430  90.0795040   2.6114580
  77.1012960  90.5165190   2.5454770  75.8853700  90.3915300   3.4386640
  86.8810200  89.4074620  14.0784790  86.3783800  90.1480020  14.4178600
  87.6966860  89.7958620  13.7621580  85.1732210  94.6507800   7.5246150
  84.2322350  94.6658030   7.6993840  85.4876280  93.8643760   7.9706450
  73.8460610  93.7652470   1.7683000  73.9264200  92.8179980   1.8800400
  74.7380360  94.0959350   1.8743660  87.1757790 101.8216650   9.2000410
  87.3005210 102.6447820   9.6724220  88.0423350 101.6107380   8.8524560
  74.6475320 103.9147860   8.8717540  75.3837800 103.3663320   9.1426110
  75.0316240 104.7803870   8.7323530  71.5320800  99.9821430   4.7459050
  70.6060580 100.2242570   4.7364460  71.9977230 100.8095690   4.6243800
  73.6533600 103.0993930  18.0603120  74.4546330 103.4205980  18.4738520
  73.1385420 102.7389510  18.7823030  82.4898230  99.2073800  18.0078530
  81.8836390  99.2305400  17.2674280  82.1852340  98.4756840  18.5445780
  83.9198600 102.9354090  16.6187940  84.8720350 102.8512110  16.5688180
  83.7726820 103.5995800  17.2921730  86.8107800 102.3148300   2.1179850
  86.5249310 101.9013440   1.3034030  86.6127350 103.2436010   1.9980370
  71.3731410  95.5867390  17.0039170  71.8770430  95.0074670  17.5755400
  70.6338830  95.8707620  17.5415540  78.4269350  96.9938380  16.5374690
  77.6615020  97.5623380  16.4529360  78.6085310  96.7014590  15.6442920
  85.5692700  98.7243710  17.0949710  86.3102170  99.0619470  16.5917170
  84.8065380  98.8935770  16.5419480  73.4054490  93.7296980  17.8989240
  73.4459830  93.4310850  18.8074470  74.2599990  94.1304590  17.7396760
  77.1832880  96.3292530   3.0592750  77.6049300  96.1632400   3.9024140
  77.3083720  95.5192760   2.5647890  75.3460300  92.3089080  15.8663730
  74.8156760  91.8180030  15.2387070  76.0148370  92.7373280  15.3321660
  84.2438360  96.7758540  15.6304920  84.6579380  96.9303620  16.4795340
  83.3089360  96.9013760  15.7930700  84.7160530  94.1154700  17.6344070
  85.2981300  93.3607020  17.5464550  84.8922300  94.6462140  16.8575550
  75.8332600  89.2751450  15.9461020  75.7389470  88.6572200  15.2211890
  75.2529990  90.0017740  15.7190930  78.5994040  87.8324690  12.9788410
  78.1511340  87.8548950  12.1333960  77.9659240  87.4343710  13.5758710
  79.0053590  96.7279020  13.6000850  79.4241700  97.5711750  13.4277090
  78.0862220  96.8651060  13.3707630  81.3417490  94.4595200  14.9838690
  81.4613700  93.8636340  15.7233530  82.2011490  94.4964890  14.5639990
  83.6805390  95.0132390  13.5601200  83.1540610  95.5375010  12.9566340
  84.0236730  95.6459780  14.1910930  76.8561010 103.0332030  14.7158580
  76.3182100 103.7578090  14.3967280  77.1094970 102.5562370  13.9255920
  78.1086260  91.0016550  16.2414510  78.6985950  90.6932400  16.9292330
  77.2906500  90.5296300  16.3974410  82.9279690  90.6182360  16.4747530
  82.2395210  89.9563900  16.4097520  83.6485710  90.1720630  16.9195990
  83.5580090  87.2133990   2.5337790  83.8382380  86.3701890   2.8897210
  82.7845820  87.4457100   3.0476540  79.7123220 104.2683240  14.9745230
  79.6381920 105.1718380  15.2817600  78.8102060 103.9495140  14.9467300
  80.2608550 103.4341750   2.5971590  81.1559340 103.7726720   2.6190350
  80.2926180 102.7121160   1.9695870  71.1150510 101.5957830   8.2778850
  71.4453520 100.7278890   8.0457490  71.5441510 101.8016350   9.1083810
  75.7112430  99.9266840   5.9380820  75.4107970  99.8031810   6.8384730
  75.6049920  99.0675430   5.5296550  71.6040720 102.4628420  11.0160480
  71.1671710 102.6429220  11.8484630  72.1718400 103.2203040  10.8742200
  87.2402900 101.9645420  15.3037790  86.6404890 102.0237980  14.5601710
  87.3696800 101.0250400  15.4334640  87.9360810  96.4510720   3.1441700
  88.6979720  97.0207370   3.2501390  87.9515180  95.8837920   3.9150010
  71.4365150  94.9748650   7.3749360  70.7813990  94.7060290   6.7309060
  72.2743100  94.8653130   6.9251340  88.9420780  97.3060820   7.9883630
  89.3129610  96.5228140   7.5819600  89.5822710  97.9949920   7.8100930
  85.9254540  98.6897400  13.4013950  85.1114380  99.1194560  13.6639740
  86.3328740  99.3015810  12.7883000  87.8845320  94.6814080   5.2943650
  87.5088920  93.9142010   4.8624940  87.1548440  95.0636780   5.7818580
  72.4741080  95.3601220  11.9152700  72.8414120  95.2728620  12.7948720
  71.9051900  94.5967770  11.8159560  87.2744940  93.8285600  14.9283170
  87.0431030  93.5998350  14.0281120  87.5349490  94.7485150  14.8828060
  72.0257080  92.2710310  15.8211120  71.1313130  92.2377070  16.1604830
  72.5654630  92.4697100  16.5862370  85.7133010  89.0542030  17.7062870
  86.5903190  89.0625430  18.0896870  85.7253850  88.3172870  17.0955220
  70.6503230  92.1847580   3.3174690  69.7467310  92.4477780   3.1426350
  71.1343850  92.4558750   2.5374650  87.1596280  92.9071570   8.5950890
  87.6833760  92.4134220   7.9641060  87.7455700  93.0421930   9.3398460
  87.3386000  92.9911440  12.1170440  86.3888710  92.9574980  12.2315430
  87.5199010  93.9011550  11.8820210  86.6496250  92.1644920   4.5343300
  87.1455370  91.9315790   5.3192180  86.4512320  91.3256760   4.1180940
  72.5296790  86.5458640  10.1694340  73.1772980  85.9956020   9.7289500
  72.9498630  86.8001790  10.9910150  88.0783410  90.8005870   7.0680980
  87.9682690  90.6461910   8.0063250  88.8391000  90.2726810   6.8256390
  86.4249130  86.7400000  13.5263980  87.0621350  87.3534140  13.8923170
  86.5724020  86.7760660  12.5813210  89.0412170  89.4024450   2.9343830
  88.2463670  89.3369570   3.4636740  89.2455450  90.3375090   2.9229180
  85.9830590 103.4416000   6.9282220  86.5789660 103.1200570   6.2516640
  86.2408740 102.9687820   7.7195490  72.2828790  86.7014310  12.9119660
  71.9343610  87.1578130  13.6777840  71.9516490  85.8071440  12.9942090
  73.8893160  99.8733910  17.0772850  73.8462790  99.5026820  17.9587310
  74.0204170 100.8111480  17.2174670  77.5899190 101.4293500  12.6782570
  77.3490550 101.6968060  11.7913090  78.5301830 101.5999230  12.7333430
  79.7953610  87.8926190  16.4339080  79.7342500  88.4848020  17.1834490
  80.7353990  87.7852150  16.2889340  82.4328170  87.5496250  16.0731370
  83.0468580  87.8675540  15.4112450  82.9777730  87.0644840  16.6927230
  88.8503350 103.4487880  13.4793210  88.3561630 103.8456750  12.7620340
  88.2416640 102.8237090  13.8730490  72.9549430  86.2290510  16.1870430
  73.5032420  86.0478560  15.4236540  73.0204740  85.4384620  16.7226740
  73.7281190 102.8196160  14.1970630  73.1341510 102.6880860  14.9360670
  73.7205030 101.9834300  13.7312730  83.1736210  86.1128390  12.4000660
  82.2996050  86.4463500  12.1973590  83.0646960  85.6401570  13.2252530
  84.0808190  88.3199260  13.7842380  83.7521550  87.5051020  13.4044110
  85.0290490  88.2769070  13.6608070  86.5342800 104.0911300  10.7579950
  86.0745770 104.8427110  10.3837970  85.9055260 103.3717770  10.6994750
  73.3593420 100.1854540  13.1478670  72.6327480  99.5659830  13.0804620
  73.4202570 100.5795150  12.2776750  76.9638520 102.3999540   9.9328080
  77.4803540 101.7886900   9.4076340  77.6135900 102.9028320  10.4239090
  79.7034020 103.2908030  10.7597060  79.9911830 103.0362330   9.8830070
  80.2157240 102.7385390  11.3502630  80.9211030  87.0298230  11.3393570
  80.1382820  87.5043730  11.6190330  80.6273960  86.1253060  11.2306750
  85.4732100  87.7321330   9.3842660  85.9140190  87.6766430   8.5364260
  85.2039690  88.6479340   9.4552840  87.3370670  87.3636570   7.3951480
  87.2759070  86.4197790   7.2482500  88.1162700  87.4716660   7.9404940
  71.6423420 103.5028930   6.3575430  71.4745460 102.8699610   7.0557320
  70.7757930 103.7088330   6.0069620  72.2651440  87.3345710   3.8607290
  73.0230800  87.4474590   3.2871320  71.8028610  88.1714910   3.8150720
  78.8065250  89.4484980   6.8509600  77.9939760  89.0741870   6.5105480
  79.3106890  88.6930060   7.1530790  83.3090230  86.1127430   8.0892670
  83.9119600  86.6847640   8.5641190  82.5683220  86.6766870   7.8666570
  86.4524830  86.5148990   3.3632950  86.6475460  87.4132440   3.6300380
  85.6654700  86.2836070   3.8565900  73.2486120 102.1962160   3.8025570
  72.7233740 102.5770190   3.0987530  73.1730700 102.8212930   4.5235280
  74.6376590  87.8609760   2.4009260  75.1669350  87.0739560   2.2717210
  75.2704910  88.5400950   2.6344790  76.8314430  87.5984900   5.4554650
  76.2017170  86.8972210   5.6224780  76.2919570  88.3589030   5.2387810
  79.7706380 104.2124130  18.1265260  80.6973690 103.9768400  18.1701220
  79.7556810 105.0396130  17.6451290  88.0051440 103.7549700   5.1239510
  88.1803630 103.0687440   4.4800430  87.3073010 104.2796750   4.7316180
  76.9569990  86.8768880  17.8907140  76.6754260  87.3802480  17.1267960
  77.3389690  86.0790630  17.5249270  75.8479090 104.1444540   2.6774820
  76.5797910 103.8603820   2.1298710  76.1072760 103.9057820   3.5674200
  75.0093880 100.2609270   2.6821150  74.3802760 100.7294370   3.2306980
  75.1241710  99.4158490   3.1167340  83.5585450  86.2922460  18.4687610
  83.4450900  86.6117070  19.3639130  84.3755190  86.6934970  18.1724890
  86.3383940 103.4393990  17.9506300  87.1309260 102.9443220  17.7432260
  86.6317090 104.1184130  18.5581910  82.4643600  75.5371440 101.4783290
  82.3837650  74.6226050 101.2075000  82.0508020  76.0338510 100.7723000
  80.5961640  77.3150460 103.3592560  79.8203740  76.8350900 103.6491130
  81.2474570  76.6356110 103.1848720  74.6127470  77.6270270 104.2368320
  73.7812350  77.3718980 104.6364830  75.2208450  77.6981040 104.9726240
  84.6169070  81.7210650 102.1391690  84.1550600  80.9497890 102.4678860
  85.4294620  81.7476720 102.6444140  74.5928730  81.6610360 104.4326340
  74.8956770  80.7708100 104.2536560  75.3372320  82.2180580 104.2048590
  73.0219420  72.5872160  98.0210710  72.1336120  72.9288130  97.9190590
  73.3060610  72.3872480  97.1291540  70.9852430  75.1877810 103.9050410
  71.5568540  74.4200010 103.9054050  70.9853970  75.4866570 102.9957020
  80.8432380  84.0068660 101.7595680  80.2243820  84.4626160 101.1890120
  81.6984160  84.1620120 101.3585380  80.0370630  79.9907650 103.3662720
  79.9678910  79.0497590 103.2051850  80.7990490  80.0809060 103.9385290
  72.2277300  70.5962170 105.6919340  72.0480140  69.6987920 105.9722100
  71.8257380  71.1434040 106.3666290  81.0675800  72.7978030 103.5931650
  81.4440620  71.9249910 103.4805320  80.9695310  73.1336730 102.7022090
  75.1980810  71.1703660  99.0549090  75.3047560  72.0707390  99.3617850
  74.2873170  71.1221630  98.7643740  84.8499920  70.2928470 100.5259990
  85.6709540  69.8025040 100.5685470  84.8834000  70.8826130 101.2791830
  72.8463970  73.0922670 104.3001680  73.5274080  73.3561040 104.9189080
  72.5312020  72.2523540 104.6339690  77.0388540  74.1390030 103.3874270
  77.5466760  74.6371000 104.0279290  77.5701780  73.3625230 103.2113630
  89.1399470  72.3095220 107.0903620  88.4351640  72.6976930 106.5718730
  89.4057390  73.0045510 107.6924550  75.3224640  68.7788590 107.6537690
  75.3243080  69.2960980 106.8483590  74.4928950  68.3018770 107.6307620
  81.7095730  78.8907900  99.1527590  81.0913000  79.3557350  98.5890310
  82.2218980  79.5835380  99.5697100  76.5727490  78.4183770 105.8311190
  76.2396870  79.0452690 106.4732260  76.7494170  78.9445650 105.0512860
  85.0861400  72.2328850 103.2987530  84.3816970  72.5213740 103.8790640
  85.4473560  73.0428960 102.9387090  75.0039970  70.4898550 105.6608140
  75.3456780  71.3340600 105.3662010  74.0655780  70.6382290 105.7773480
  75.7846590  80.3864570 107.6460370  76.4020590  81.0615650 107.3644820
  74.9239710  80.7952550 107.5547870  71.0778930  79.5764430  96.5267220
  70.7006910  80.0651530  95.7952120  71.3352000  80.2489710  97.1573750
  86.7024180  81.8503980 105.5615010  86.0187700  82.5203090 105.5531680
  87.2418470  82.0484630 104.7959870  88.1548320  71.6783640 103.6896740
  87.2073230  71.7122620 103.8212170  88.4798310  72.4922590 104.0746100
  78.6867860  67.9780820 101.9852730  78.9942840  67.4227710 101.2688230
  77.7568560  68.1125280 101.8025720  84.2382920  83.6948110 104.2760190
  84.2510080  83.2910400 103.4082450  83.6858140  84.4695400 104.1721620
  85.5328340  80.4164330  99.3650360  85.4224670  79.4738660  99.4899780
  85.5296590  80.7779970 100.2513120  83.6368360  78.5977950 105.6042800
  84.0537150  78.3838060 104.7696260  84.3608180  78.8550740 106.1751420
  81.0748620  76.0429650  98.7212850  80.1477900  75.9767030  98.9501320
  81.2273440  76.9809780  98.6068090  81.0617700  72.3146650  95.7180010
  80.1221370  72.4760610  95.8032470  81.3800960  73.0332330  95.1716000
  87.5830460  76.9965170 105.6959040  86.7549090  77.0658260 105.2209170
  88.1780940  77.5819480 105.2274870  85.1045910  77.6049950  99.2248100
  84.4858330  77.2669500  98.5774400  85.0870360  76.9609710  99.9327290
  84.5472470  73.7834490 106.6413910  84.1343650  74.6088200 106.8953900
  83.8148420  73.1979530 106.4490270  76.6805260  76.5694390 101.5032580
  76.2762260  75.8571640 101.0078480  76.7668380  76.2247630 102.3920620
  77.1486960  80.2561950 103.6671790  76.8515250  79.6507420 102.9879570
  78.0986780  80.2939260 103.5561150  75.3933880  73.3437600 105.2831620
  75.9448470  73.4532940 104.5084870  75.9077390  73.7175200 105.9986850
  85.2372570  83.8293820 107.3294890  84.7603130  84.6366010 107.1367500
  84.5534360  83.1772150 107.4821100  76.2405390  79.9943640 110.3179590
  75.3433920  80.2183610 110.5652990  76.2658260  80.1178580 109.3690990
  83.2810610  76.8436760  96.2320850  83.7203890  76.0059190  96.0858670
  83.9939030  77.4766160  96.3184990  75.0676610  76.8656960 108.8936960
  74.9284380  77.7379760 109.2624360  74.1857970  76.5229770 108.7484900
  81.3905990  81.7832830 100.2002090  81.8301900  82.5257160  99.7857480
  81.3292880  82.0259400 101.1241050  86.8627750  68.0979570  94.5461890
  86.5500410  68.1906400  95.4460960  87.6240220  68.6760600  94.4959320
  73.3809890  75.4639370  99.0039230  73.2607490  76.1901460  98.3920500
  73.0710780  74.6942280  98.5267140  71.0195260  78.6354510 104.8107870
  71.0975680  78.7703280 103.8663590  71.6336940  77.9270400 105.0035990
  72.2642890  80.3354700 101.2214050  71.8570970  80.4769290 100.3667650
  73.1555900  80.0514860 101.0185260  88.2205030  80.7818610 109.5586290
  88.3468090  80.5430490 108.6403470  88.2626410  79.9503150 110.0308370
  82.0821770  84.4846610 108.1281100  82.5966440  84.3954620 108.9303530
  81.2390850  84.8306310 108.4209010  84.0576170  84.7701950  97.5565100
  83.8977310  84.4804890  98.4546930  83.8922880  83.9942080  97.0210330
  76.5364550  84.5500480  99.3336720  76.3607030  83.6336020  99.1204520
  75.6820290  84.9087770  99.5734520  83.7602300  82.2789510  96.1163100
  83.0667460  82.2766800  95.4565380  84.5025160  81.8548830  95.6857270
  83.3252230  83.9052220 100.1911590  83.7809180  83.1241600 100.5050210
  83.6644750  84.6159040 100.7352770  88.0729040  72.8351070 110.5236030
  87.4573310  73.3430740 109.9951490  87.7525460  71.9349400 110.4661970
  71.0754780  79.6768680 107.3502330  71.2385820  79.2074040 106.5321700
  71.5407230  79.1692240 108.0151170  75.8473550  68.8074440 102.3862900
  75.4041700  69.5883980 102.0547420  76.4058540  69.1304330 103.0933840
  80.1343360  71.6742960 107.9898220  79.6722730  71.8825980 108.8018160
  79.7321470  70.8602310 107.6868890  85.1347870  72.8951910 109.1194880
  84.2841460  72.5957660 109.4403950  84.9749660  73.1393920 108.2078700
  78.9632370  68.4285140  97.2668730  78.3386550  68.4245010  97.9922040
  78.8762490  67.5616100  96.8704700  77.8849450  69.3521770 104.2452500
  78.1821780  70.2584600 104.1644520  78.4335010  68.8640550 103.6312070
  75.6387770  73.9308010 100.1144150  75.4128690  73.7145180 101.0190770
  74.8580300  74.3636470  99.7690120  82.8685530  73.9371380  98.7134800
  82.2694420  74.6607180  98.5298420  83.4165140  73.8748160  97.9311250
  78.0786980  74.8293590 110.7804420  77.9830580  73.8888320 110.6304820
  78.9218960  75.0508660 110.3852490  81.4750400  72.5734920 100.7438080
  81.8679970  72.8907120  99.9306770  81.8367250  71.6946800 100.8582600
  73.2097520  71.2407260 108.9338200  72.8160910  72.0882470 109.1410980
  72.5215920  70.6033630 109.1246840  70.5114570  69.1635720 102.9668280
  70.2227620  69.7338580 103.6793260  71.2560330  68.6840170 103.3299510
  70.6984800  73.1055840  94.1771000  70.6159470  74.0486600  94.3185990
  70.3467860  72.9630750  93.2983350  82.0605540  75.1640670 104.8388860
  81.3286660  75.6727480 105.1878960  81.6629880  74.3470650 104.5377640
  78.4982930  71.8394870 103.2441350  78.5018990  71.3984820 102.3945890
  79.3934050  72.1612200 103.3513170  74.3485310  71.7221360 102.2035560
  74.0085360  72.1996590 102.9602610  73.5862630  71.2686480 101.8436660
  78.5603080  72.8406950  96.2348110  78.6815900  72.7993430  97.1833930
  78.1751590  73.7031100  96.0794840  82.5231450  70.6174350 104.2511800
  82.5404190  71.0683000 105.0953650  82.2747030  69.7179990 104.4645240
  77.5724580  75.1508090  95.6331410  77.0041480  74.7026340  95.0067320
  78.2813580  75.5100870  95.0996560  85.9502200  68.0306530 110.0898180
  86.2747970  67.2996190 110.6156160  85.9858710  67.7120170 109.1879170
  72.6493760  79.0520110 109.5098140  72.2648550  78.4113780 110.1081100
  72.9605950  79.7556230 110.0792870  78.7990900  75.8996650 104.9906760
  79.1661030  75.4255220 105.7368100  78.6095960  76.7738220 105.3315100
  71.6631390  70.6440340 101.1200230  71.3778310  70.2796010 101.9578850
  71.6010250  69.9120800 100.5063370  76.5890270  74.9405290 107.3090970
  76.2847340  75.8197270 107.5341330  77.5436730  75.0005080 107.3448410
  75.1172060  79.1466280  97.9057820  74.3434320  78.6063900  97.7456540
  75.8466690  78.6272890  97.5675580  85.8760040  78.1431640 103.6984210
  86.5959160  78.6386930 103.3080320  85.6741860  77.4649530 103.0538080
  81.3369980  69.5369600  97.8413600  80.5234590  69.0382770  97.7658910
  81.1431930  70.3767850  97.4249950  81.2578840  78.2140700 109.5853210
  81.1916150  77.2936370 109.3310800  80.6283980  78.3116140 110.2997850
  84.0518370  73.9089250  96.1375760  84.9397990  74.2206480  95.9627100
  84.0223460  73.0361500  95.7456340  75.1609460  78.8146660 101.5436630
  75.6788130  78.0114920 101.4893520  74.7093480  78.7525800 102.3853460
  80.0478960  80.0812940  96.8163930  80.3894660  80.8255170  96.3207250
  79.2191670  80.3944060  97.1788760  72.6454000  75.7808030 108.4562330
  72.2868940  76.4461880 109.0435670  72.3508560  74.9491580 108.8274950
  81.1895570  81.0361270 109.3357010  81.2040110  80.1042230 109.1175920
  80.4820670  81.1221030 109.9746780  86.3232640  75.2201090  95.6055620
  86.2396360  75.6515310  94.7552060  87.0426830  75.6799440  96.0382440
  87.4006780  77.6768610 108.6825590  86.6754970  78.2697390 108.4854980
  87.9282240  77.6692150 107.8838960  87.3519890  82.0743350  98.3337750
  86.7096050  81.4198970  98.6081470  86.9650550  82.4798440  97.5578420
  82.9306370  79.4028780 102.1809440  83.2830190  78.8056910 101.5210810
  82.0468700  79.0773010 102.3517690  79.0169650  80.1626470  99.5879850
  79.7040780  80.7095680  99.9687440  78.2302070  80.7067200  99.6229460
  71.1562050  75.7799290  95.0796930  72.0256900  76.0624090  95.3632850
  70.6652370  76.5935160  94.9645740  78.3196860  77.1672500  99.2005210
  78.7759640  77.9777750  99.4265400  77.9685070  76.8495640 100.0323700
  80.6229470  82.6778840 106.4297510  81.2671690  82.8838220 107.1070930
  80.9858910  81.9167240 105.9768360  74.2208640  67.5110150  99.6727730
  74.0923270  67.5028050 100.6212650  73.3970660  67.8493240  99.3218740
  81.8961550  80.6811190 105.1474960  82.5383780  79.9804350 105.2607130
  82.4210900  81.4609630 104.9671850  85.7417270  80.9659810  94.8714100
  85.5154850  80.2490250  95.4638740  85.3513470  80.7172250  94.0335850
  83.6699170  81.4806090 108.3511020  84.0055410  82.0672780 109.0288940
  82.7499510  81.3498800 108.5808810  71.5233300  84.9926670  95.6458560
  71.8830940  85.5916010  94.9915830  71.3825640  85.5386560  96.4193590
  71.2202570  69.2701270 109.1334430  70.5061090  69.4698190 109.7387040
  71.6397610  68.4940840 109.5049230  85.3233520  78.8831750  96.5328260
  85.0355220  79.3444440  97.3206140  86.1185690  78.4229520  96.8012480
  71.5075160  83.2581530 110.1200960  71.6166280  82.3176270 109.9796350
  70.8555720  83.5236280 109.4714690  77.5401920  82.3757870  96.4632230
  77.5312020  83.1087560  95.8476740  76.6200280  82.1289450  96.5559190
  73.1408560  77.5972760  97.2078990  72.5336510  78.3371660  97.2174290
  73.6157910  77.6872120  96.3817190  82.7141350  71.7623580 106.8835880
  83.0822170  70.9418790 107.2115450  81.8539550  71.8225470 107.2991530
  86.0803380  70.7180520  97.6923440  85.4516540  70.8226190  96.9781670
  85.5855300  70.9377300  98.4817320  80.5261520  82.4386110  95.1257420
  80.6273500  82.2350100  94.1959400  79.6263260  82.1844390  95.3305200
  78.0487410  72.9966470  99.1081320  77.3403560  73.4652810  99.5494930
  78.3331890  72.3388480  99.7426510  79.6743340  74.4163170 107.1073850
  80.1728590  74.8908990 107.7725700  79.8166290  73.4926690 107.3143880
  82.0802840  69.7217130 100.5477110  81.9570620  69.7403260  99.5986620
  83.0287400  69.7696070 100.6675510  79.1679630  84.9572430  99.8205090
  79.4221130  84.9193820  98.8984460  78.2192110  84.8305760  99.8133340
  76.2522430  71.3051550  96.4832030  77.1012960  71.7421700  96.4172220
  75.8853700  71.6171810  97.3104090  86.8810200  70.6331130 107.9502240
  86.3783800  71.3736530 108.2896050  87.6966860  71.0215130 107.6339030
  85.1732210  75.8764310 101.3963600  84.2322350  75.8914540 101.5711290
  85.4876280  75.0900270 101.8423900  75.1513850  77.5583910  94.9567560
  75.9177120  77.4465270  95.5192990  75.2288540  76.8621880  94.3044330
  73.8460610  74.9908980  95.6400450  73.9264200  74.0436490  95.7517850
  74.7380360  75.3215860  95.7461110  87.1757790  83.0473160 103.0717860
  87.3005210  83.8704330 103.5441670  88.0423350  82.8363890 102.7242010
  74.6475320  85.1404370 102.7434990  75.3837800  84.5919830 103.0143560
  75.0316240  86.0060380 102.6040980  71.5320800  81.2077940  98.6176500
  70.6060580  81.4499080  98.6081910  71.9977230  82.0352200  98.4961250
  77.7577630  84.3134680  94.5660560  78.5506240  84.6023510  94.1142350
  77.2381980  83.8826850  93.8873040  86.8107800  83.5404810  95.9897300
  86.5249310  83.1269950  95.1751480  86.6127350  84.4692520  95.8697820
  78.2755030  79.5338090  94.4302910  78.1705670  78.9190440  95.1564290
  78.1079250  79.0103980  93.6465920  78.4269350  78.2194890 110.4092140
  77.6615020  78.7879890 110.3246810  78.6085310  77.9271100 109.5160370
  81.5157760  78.5958120  95.0344900  80.9667860  79.0427420  95.6787640
  82.1377020  78.0907370  95.5582570  85.5692700  79.9500220 110.9667160
  86.3102170  80.2875980 110.4634620  84.8065380  80.1192280 110.4136930
  77.1832880  77.5549040  96.9310200  77.6049300  77.3888910  97.7741590
  77.3083720  76.7449270  96.4365340  75.3460300  73.5345590 109.7381180
  74.8156760  73.0436540 109.1104520  76.0148370  73.9629790 109.2039110
  79.6960520  76.5786650  94.1787300  80.2166180  75.8635670  93.8128450
  80.3428920  77.2172520  94.4787810  84.2438360  78.0015050 109.5022370
  84.6579380  78.1560130 110.3512790  83.3089360  78.1270270 109.6648150
  75.8332600  70.5007960 109.8178470  75.7389470  69.8828710 109.0929340
  75.2529990  71.2274250 109.5908380  78.5994040  69.0581200 106.8505860
  78.1511340  69.0805460 106.0051410  77.9659240  68.6600220 107.4476160
  79.0053590  77.9535530 107.4718300  79.4241700  78.7968260 107.2994540
  78.0862220  78.0907570 107.2425080  81.3417490  75.6851710 108.8556140
  81.4613700  75.0892850 109.5950980  82.2011490  75.7221400 108.4357440
  83.6805390  76.2388900 107.4318650  83.1540610  76.7631520 106.8283790
  84.0236730  76.8716290 108.0628380  76.0791780  73.6282270  93.8768360
  75.8780840  72.7649630  94.2381700  75.9083830  73.5415630  92.9389960
  76.8561010  84.2588540 108.5876030  76.3182100  84.9834600 108.2684730
  77.1094970  83.7818880 107.7973370  78.1086260  72.2273060 110.1131960
  78.6985950  71.9188910 110.8009780  77.2906500  71.7552810 110.2691860
  82.9279690  71.8438870 110.3464980  82.2395210  71.1820410 110.2814970
  83.6485710  71.3977140 110.7913440  83.5580090  68.4390500  96.4055240
  83.8382380  67.5958400  96.7614660  82.7845820  68.6713610  96.9193990
  74.8774580  70.7282890  93.8646240  75.1800480  70.7350320  92.9565390
  75.6169170  70.3780750  94.3613900  79.7123220  85.4939750 108.8462680
  79.6381920  86.3974890 109.1535050  78.8102060  85.1751650 108.8184750
  78.0959510  69.6717510  94.8502440  77.7481510  68.9941500  94.2704890
  78.2972280  69.2107020  95.6645830  80.2608550  84.6598260  96.4689040
  81.1559340  84.9983230  96.4907800  80.2926180  83.9377670  95.8413320
  73.9004710  80.0325310  94.6976040  74.3379580  80.5754980  95.3533620
  74.3852440  79.2072260  94.7072380  71.1150510  82.8214340 102.1496300
  71.4453520  81.9535400 101.9174940  71.5441510  83.0272860 102.9801260
  75.7112430  81.1523350  99.8098270  75.4107970  81.0288320 100.7102180
  75.6049920  80.2931940  99.4014000  71.6040720  83.6884930 104.8877930
  71.1671710  83.8685730 105.7202080  72.1718400  84.4459550 104.7459650
  87.2402900  83.1901930 109.1755240  86.6404890  83.2494490 108.4319160
  87.3696800  82.2506910 109.3052090  88.4804350  80.9319750  94.5124950
  87.6497310  80.9996400  94.9832180  88.6576180  81.8223870  94.2091810
  87.9360810  77.6767230  97.0159150  88.6979720  78.2463880  97.1218840
  87.9515180  77.1094430  97.7867460  71.4365150  76.2005160 101.2466810
  70.7813990  75.9316800 100.6026510  72.2743100  76.0909640 100.7968790
  88.9420780  78.5317330 101.8601080  89.3129610  77.7484650 101.4537050
  89.5822710  79.2206430 101.6818380  85.9254540  79.9153910 107.2731400
  85.1114380  80.3451070 107.5357190  86.3328740  80.5272320 106.6600450
  87.9879980  77.9701600  94.1731670  88.2628820  78.8780480  94.0450890
  87.7990720  77.9064130  95.1093660  84.3855590  70.9946450  95.4685300
  84.8040470  70.8077430  94.6281960  84.0791650  70.1425500  95.7788230
  87.8845320  75.9070590  99.1661100  87.5088920  75.1398520  98.7342390
  87.1548440  76.2893290  99.6536030  72.4741080  76.5857730 105.7870150
  72.8414120  76.4985130 106.6666170  71.9051900  75.8224280 105.6877010
  87.2744940  75.0542110 108.8000620  87.0431030  74.8254860 107.8998570
  87.5349490  75.9741660 108.7545510  72.0257080  73.4966820 109.6928570
  71.1313130  73.4633580 110.0322280  72.5654630  73.6953610 110.4579820
  70.6503230  73.4104090  97.1892140  69.7467310  73.6734290  97.0143800
  71.1343850  73.6815260  96.4092100  87.1596280  74.1328080 102.4668340
  87.6833760  73.6390730 101.8358510  87.7455700  74.2678440 103.2115910
  87.3386000  74.2167950 105.9887890  86.3888710  74.1831490 106.1032880
  87.5199010  75.1268060 105.7537660  73.1930440  72.4669630  95.0986520
  73.9022140  72.0452850  94.6133800  72.4770380  72.5344860  94.4669870
  72.8404600  68.5208960  94.1389170  73.5632730  69.0617900  94.4570390
  73.1129120  68.2472380  93.2630710  86.6496250  73.3901430  98.4060750
  87.1455370  73.1572300  99.1909630  86.4512320  72.5513270  97.9898390
  72.5296790  67.7715150 104.0411790  73.1772980  67.2212530 103.6006950
  72.9498630  68.0258300 104.8627600  88.0783410  72.0262380 100.9398430
  87.9682690  71.8718420 101.8780700  88.8391000  71.4983320 100.6973840
  86.4249130  67.9656510 107.3981430  87.0621350  68.5790650 107.7640620
  86.5724020  68.0017170 106.4530660  88.9673680  69.8570300  94.1804570
  89.8922990  69.7251480  93.9722860  88.9449470  69.9363120  95.1341020
  89.0412170  70.6280960  96.8061280  88.2463670  70.5626080  97.3354190
  89.2455450  71.5631600  96.7946630  85.9830590  84.6672510 100.7999670
  86.5789660  84.3457080 100.1234090  86.2408740  84.1944330 101.5912940
  72.2828790  67.9270820 106.7837110  71.9343610  68.3834640 107.5495290
  71.9516490  67.0327950 106.8659540  77.5899190  82.6550010 106.5500020
  77.3490550  82.9224570 105.6630540  78.5301830  82.8255740 106.6050880
  82.4328170  68.7752760 109.9448820  83.0468580  69.0932050 109.2829900
  82.9777730  68.2901350 110.5644680  88.8503350  84.6744390 107.3510660
  88.3561630  85.0713260 106.6337790  88.2416640  84.0493600 107.7447940
  72.9549430  67.4547020 110.0587880  73.5032420  67.2735070 109.2953990
  73.0204740  66.6641130 110.5944190  73.7281190  84.0452670 108.0688080
  73.1341510  83.9137370 108.8078120  73.7205030  83.2090810 107.6030180
  83.1736210  67.3384900 106.2718110  82.2996050  67.6720010 106.0691040
  83.0646960  66.8658080 107.0969980  84.0808190  69.5455770 107.6559830
  83.7521550  68.7307530 107.2761560  85.0290490  69.5025580 107.5325520
  86.5342800  85.3167810 104.6297400  86.0745770  86.0683620 104.2555420
  85.9055260  84.5974280 104.5712200  73.3593420  81.4111050 107.0196120
  72.6327480  80.7916340 106.9522070  73.4202570  81.8051660 106.1494200
  76.9638520  83.6256050 103.8045530  77.4803540  83.0143410 103.2793790
  77.6135900  84.1284830 104.2956540  79.7034020  84.5164540 104.6314510
  79.9911830  84.2618840 103.7547520  80.2157240  83.9641900 105.2220080
  80.9211030  68.2554740 105.2111020  80.1382820  68.7300240 105.4907780
  80.6273960  67.3509570 105.1024200  85.4732100  68.9577840 103.2560110
  85.9140190  68.9022940 102.4081710  85.2039690  69.8735850 103.3270290
  87.3370670  68.5893080 101.2668930  87.2759070  67.6454300 101.1199950
  88.1162700  68.6973170 101.8122390  71.6423420  84.7285440 100.2292880
  71.4745460  84.0956120 100.9274770  70.7757930  84.9344840  99.8787070
  72.2651440  68.5602220  97.7324740  73.0230800  68.6731100  97.1588770
  71.8028610  69.3971420  97.6868170  78.8065250  70.6741490 100.7227050
  77.9939760  70.2998380 100.3822930  79.3106890  69.9186570 101.0248240
  83.3090230  67.3383940 101.9610120  83.9119600  67.9104150 102.4358640
  82.5683220  67.9023380 101.7384020  86.4524830  67.7405500  97.2350400
  86.6475460  68.6388950  97.5017830  85.6654700  67.5092580  97.7283350
  73.2486120  83.4218670  97.6743020  72.7233740  83.8026700  96.9704980
  73.1730700  84.0469440  98.3952730  74.6376590  69.0866270  96.2726710
  75.1669350  68.2996070  96.1434660  75.2704910  69.7657460  96.5062240
  76.8314430  68.8241410  99.3272100  76.2017170  68.1228720  99.4942230
  76.2919570  69.5845540  99.1105260  88.0051440  84.9806210  98.9956960
  88.1803630  84.2943950  98.3517880  87.3073010  85.5053260  98.6033630
  75.8479090  85.3701050  96.5492270  76.5797910  85.0860330  96.0016160
  76.1072760  85.1314330  97.4391650  75.0093880  81.4865780  96.5538600
  74.3802760  81.9550880  97.1024430  75.1241710  80.6415000  96.9884790
  82.4643600  75.5371440  82.7039800  82.3837650  74.6226050  82.4331510
  82.0508020  76.0338510  81.9979510  80.5961640  77.3150460  84.5849070
  79.8203740  76.8350900  84.8747640  81.2474570  76.6356110  84.4105230
  74.6127470  77.6270270  85.4624830  73.7812350  77.3718980  85.8621340
  75.2208450  77.6981040  86.1982750  84.6169070  81.7210650  83.3648200
  84.1550600  80.9497890  83.6935370  85.4294620  81.7476720  83.8700650
  74.5928730  81.6610360  85.6582850  74.8956770  80.7708100  85.4793070
  75.3372320  82.2180580  85.4305100  80.8432380  84.0068660  82.9852190
  80.2243820  84.4626160  82.4146630  81.6984160  84.1620120  82.5841890
  80.0370630  79.9907650  84.5919230  79.9678910  79.0497590  84.4308360
  80.7990490  80.0809060  85.1641800  72.2277300  70.5962170  86.9175850
  72.0480140  69.6987920  87.1978610  71.8257380  71.1434040  87.5922800
  81.0675800  72.7978030  84.8188160  81.4440620  71.9249910  84.7061830
  80.9695310  73.1336730  83.9278600  84.8499920  70.2928470  81.7516500
  85.6709540  69.8025040  81.7941980  84.8834000  70.8826130  82.5048340
  72.8463970  73.0922670  85.5258190  73.5274080  73.3561040  86.1445590
  72.5312020  72.2523540  85.8596200  77.0388540  74.1390030  84.6130780
  77.5466760  74.6371000  85.2535800  77.5701780  73.3625230  84.4370140
  89.1399470  72.3095220  88.3160130  88.4351640  72.6976930  87.7975240
  89.4057390  73.0045510  88.9181060  75.3224640  68.7788590  88.8794200
  75.3243080  69.2960980  88.0740100  74.4928950  68.3018770  88.8564130
  81.7095730  78.8907900  80.3784100  81.0913000  79.3557350  79.8146820
  82.2218980  79.5835380  80.7953610  76.5727490  78.4183770  87.0567700
  76.2396870  79.0452690  87.6988770  76.7494170  78.9445650  86.2769370
  85.0861400  72.2328850  84.5244040  84.3816970  72.5213740  85.1047150
  85.4473560  73.0428960  84.1643600  75.0039970  70.4898550  86.8864650
  75.3456780  71.3340600  86.5918520  74.0655780  70.6382290  87.0029990
  75.7846590  80.3864570  88.8716880  76.4020590  81.0615650  88.5901330
  74.9239710  80.7952550  88.7804380  86.7024180  81.8503980  86.7871520
  86.0187700  82.5203090  86.7788190  87.2418470  82.0484630  86.0216380
  88.1548320  71.6783640  84.9153250  87.2073230  71.7122620  85.0468680
  88.4798310  72.4922590  85.3002610  78.6867860  67.9780820  83.2109240
  78.9942840  67.4227710  82.4944740  77.7568560  68.1125280  83.0282230
  84.2382920  83.6948110  85.5016700  84.2510080  83.2910400  84.6338960
  83.6858140  84.4695400  85.3978130  85.5328340  80.4164330  80.5906870
  85.4224670  79.4738660  80.7156290  85.5296590  80.7779970  81.4769630
  83.6368360  78.5977950  86.8299310  84.0537150  78.3838060  85.9952770
  84.3608180  78.8550740  87.4007930  81.0748620  76.0429650  79.9469360
  80.1477900  75.9767030  80.1757830  81.2273440  76.9809780  79.8324600
  87.5830460  76.9965170  86.9215550  86.7549090  77.0658260  86.4465680
  88.1780940  77.5819480  86.4531380  85.1045910  77.6049950  80.4504610
  84.4858330  77.2669500  79.8030910  85.0870360  76.9609710  81.1583800
  84.5472470  73.7834490  87.8670420  84.1343650  74.6088200  88.1210410
  83.8148420  73.1979530  87.6746780  76.6805260  76.5694390  82.7289090
  76.2762260  75.8571640  82.2334990  76.7668380  76.2247630  83.6177130
  77.1486960  80.2561950  84.8928300  76.8515250  79.6507420  84.2136080
  78.0986780  80.2939260  84.7817660  75.3933880  73.3437600  86.5088130
  75.9448470  73.4532940  85.7341380  75.9077390  73.7175200  87.2243360
  85.2372570  83.8293820  88.5551400  84.7603130  84.6366010  88.3624010
  84.5534360  83.1772150  88.7077610  76.2405390  79.9943640  91.5436100
  75.3433920  80.2183610  91.7909500  76.2658260  80.1178580  90.5947500
  83.2810610  76.8436760  77.4577360  83.7203890  76.0059190  77.3115180
  83.9939030  77.4766160  77.5441500  75.0676610  76.8656960  90.1193470
  74.9284380  77.7379760  90.4880870  74.1857970  76.5229770  89.9741410
  81.3905990  81.7832830  81.4258600  81.8301900  82.5257160  81.0113990
  81.3292880  82.0259400  82.3497560  76.8656960  82.8078660  92.3278620
  76.8372390  83.2121610  91.4607050  76.7021930  81.8789020  92.1650220
  88.8171780  83.5905760  93.6242790  89.2931500  84.0688650  94.3031870
  89.4378940  83.5223250  92.8988290  71.0195260  78.6354510  86.0364380
  71.0975680  78.7703280  85.0920100  71.6336940  77.9270400  86.2292500
  88.2205030  80.7818610  90.7842800  88.3468090  80.5430490  89.8659980
  88.2626410  79.9503150  91.2564880  82.0821770  84.4846610  89.3537610
  82.5966440  84.3954620  90.1560040  81.2390850  84.8306310  89.6465520
  84.0576170  84.7701950  78.7821610  83.8977310  84.4804890  79.6803440
  83.8922880  83.9942080  78.2466840  76.5364550  84.5500480  80.5593230
  76.3607030  83.6336020  80.3461030  75.6820290  84.9087770  80.7991030
  83.7602300  82.2789510  77.3419610  83.0667460  82.2766800  76.6821890
  84.5025160  81.8548830  76.9113780  83.3252230  83.9052220  81.4168100
  83.7809180  83.1241600  81.7306720  83.6644750  84.6159040  81.9609280
  88.0729040  72.8351070  91.7492540  87.4573310  73.3430740  91.2208000
  87.7525460  71.9349400  91.6918480  71.0754780  79.6768680  88.5758840
  71.2385820  79.2074040  87.7578210  71.5407230  79.1692240  89.2407680
  75.8473550  68.8074440  83.6119410  75.4041700  69.5883980  83.2803930
  76.4058540  69.1304330  84.3190350  80.1343360  71.6742960  89.2154730
  79.6722730  71.8825980  90.0274670  79.7321470  70.8602310  88.9125400
  85.1347870  72.8951910  90.3451390  84.2841460  72.5957660  90.6660460
  84.9749660  73.1393920  89.4335210  82.2297580  74.3953660  92.4450180
  82.5550990  73.5617410  92.1052410  83.0177910  74.9182180  92.5928510
  77.8849450  69.3521770  85.4709010  78.1821780  70.2584600  85.3901030
  78.4335010  68.8640550  84.8568580  78.0786980  74.8293590  92.0060930
  77.9830580  73.8888320  91.8561330  78.9218960  75.0508660  91.6109000
  81.4750400  72.5734920  81.9694590  81.8679970  72.8907120  81.1563280
  81.8367250  71.6946800  82.0839110  73.2097520  71.2407260  90.1594710
  72.8160910  72.0882470  90.3667490  72.5215920  70.6033630  90.3503350
  79.7842570  71.3242230  93.2291450  79.0940890  71.1314430  93.8637540
  80.5274870  71.6076870  93.7615750  82.0605540  75.1640670  86.0645370
  81.3286660  75.6727480  86.4135470  81.6629880  74.3470650  85.7634150
  78.4982930  71.8394870  84.4697860  78.5018990  71.3984820  83.6202400
  79.3934050  72.1612200  84.5769680  82.5231450  70.6174350  85.4768310
  82.5404190  71.0683000  86.3210160  82.2747030  69.7179990  85.6901750
  77.5724580  75.1508090  76.8587920  77.0041480  74.7026340  76.2323830
  78.2813580  75.5100870  76.3253070  85.9502200  68.0306530  91.3154690
  86.2747970  67.2996190  91.8412670  85.9858710  67.7120170  90.4135680
  72.6493760  79.0520110  90.7354650  72.2648550  78.4113780  91.3337610
  72.9605950  79.7556230  91.3049380  78.7990900  75.8996650  86.2163270
  79.1661030  75.4255220  86.9624610  78.6095960  76.7738220  86.5571610
  76.5890270  74.9405290  88.5347480  76.2847340  75.8197270  88.7597840
  77.5436730  75.0005080  88.5704920  85.8760040  78.1431640  84.9240720
  86.5959160  78.6386930  84.5336830  85.6741860  77.4649530  84.2794590
  81.2578840  78.2140700  90.8109720  81.1916150  77.2936370  90.5567310
  80.6283980  78.3116140  91.5254360  75.1609460  78.8146660  82.7693140
  75.6788130  78.0114920  82.7150030  74.7093480  78.7525800  83.6109970
  80.0478960  80.0812940  78.0420440  80.3894660  80.8255170  77.5463760
  79.2191670  80.3944060  78.4045270  72.6454000  75.7808030  89.6818840
  72.2868940  76.4461880  90.2692180  72.3508560  74.9491580  90.0531460
  75.8467120  76.2392270  92.5658390  75.5467260  76.3849450  91.6686210
  76.6178360  75.6797560  92.4731780  81.1895570  81.0361270  90.5613520
  81.2040110  80.1042230  90.3432430  80.4820670  81.1221030  91.2003290
  86.3232640  75.2201090  76.8312130  86.2396360  75.6515310  75.9808570
  87.0426830  75.6799440  77.2638950  87.4006780  77.6768610  89.9082100
  86.6754970  78.2697390  89.7111490  87.9282240  77.6692150  89.1095470
  87.3519890  82.0743350  79.5594260  86.7096050  81.4198970  79.8337980
  86.9650550  82.4798440  78.7834930  82.9306370  79.4028780  83.4065950
  83.2830190  78.8056910  82.7467320  82.0468700  79.0773010  83.5774200
  79.0169650  80.1626470  80.8136360  79.7040780  80.7095680  81.1943950
  78.2302070  80.7067200  80.8485970  78.3196860  77.1672500  80.4261720
  78.7759640  77.9777750  80.6521910  77.9685070  76.8495640  81.2580210
  80.6229470  82.6778840  87.6554020  81.2671690  82.8838220  88.3327440
  80.9858910  81.9167240  87.2024870  81.8961550  80.6811190  86.3731470
  82.5383780  79.9804350  86.4863640  82.4210900  81.4609630  86.1928360
  85.7417270  80.9659810  76.0970610  85.5154850  80.2490250  76.6895250
  85.3513470  80.7172250  75.2592360  83.6699170  81.4806090  89.5767530
  84.0055410  82.0672780  90.2545450  82.7499510  81.3498800  89.8065320
  71.2202570  69.2701270  90.3590940  70.5061090  69.4698190  90.9643550
  71.6397610  68.4940840  90.7305740  85.3233520  78.8831750  77.7584770
  85.0355220  79.3444440  78.5462650  86.1185690  78.4229520  78.0268990
  71.5075160  83.2581530  91.3457470  71.6166280  82.3176270  91.2052860
  70.8555720  83.5236280  90.6971200  79.4987750  81.5297420  92.7455590
  79.1784620  80.8106660  93.2901280  78.8246110  82.2052490  92.8191650
  82.7141350  71.7623580  88.1092390  83.0822170  70.9418790  88.4371960
  81.8539550  71.8225470  88.5248040  80.5261520  82.4386110  76.3513930
  80.6273500  82.2350100  75.4215910  79.6263260  82.1844390  76.5561710
  79.6743340  74.4163170  88.3330360  80.1728590  74.8908990  88.9982210
  79.8166290  73.4926690  88.5400390  82.0802840  69.7217130  81.7733620
  81.9570620  69.7403260  80.8243130  83.0287400  69.7696070  81.8932020
  79.1679630  84.9572430  81.0461600  79.4221130  84.9193820  80.1240970
  78.2192110  84.8305760  81.0389850  86.8810200  70.6331130  89.1758750
  86.3783800  71.3736530  89.5152560  87.6966860  71.0215130  88.8595540
  85.1732210  75.8764310  82.6220110  84.2322350  75.8914540  82.7967800
  85.4876280  75.0900270  83.0680410  75.1513850  77.5583910  76.1824070
  75.9177120  77.4465270  76.7449500  75.2288540  76.8621880  75.5300840
  87.1757790  83.0473160  84.2974370  87.3005210  83.8704330  84.7698180
  88.0423350  82.8363890  83.9498520  74.6475320  85.1404370  83.9691500
  75.3837800  84.5919830  84.2400070  75.0316240  86.0060380  83.8297490
  73.6533600  84.3250440  93.1577080  74.4546330  84.6462490  93.5712480
  73.1385420  83.9646020  93.8796990  77.7577630  84.3134680  75.7917070
  78.5506240  84.6023510  75.3398860  77.2381980  83.8826850  75.1129550
  82.4898230  80.4330310  93.1052490  81.8836390  80.4561910  92.3648240
  82.1852340  79.7013350  93.6419740  83.9198600  84.1610600  91.7161900
  84.8720350  84.0768620  91.6662140  83.7726820  84.8252310  92.3895690
  86.8107800  83.5404810  77.2153810  86.5249310  83.1269950  76.4007990
  86.6127350  84.4692520  77.0954330  71.3731410  76.8123900  92.1013130
  71.8770430  76.2331180  92.6729360  70.6338830  77.0964130  92.6389500
  78.2755030  79.5338090  75.6559420  78.1705670  78.9190440  76.3820800
  78.1079250  79.0103980  74.8722430  78.4269350  78.2194890  91.6348650
  77.6615020  78.7879890  91.5503320  78.6085310  77.9271100  90.7416880
  81.5157760  78.5958120  76.2601410  80.9667860  79.0427420  76.9044150
  82.1377020  78.0907370  76.7839080  85.5692700  79.9500220  92.1923670
  86.3102170  80.2875980  91.6891130  84.8065380  80.1192280  91.6393440
  73.4054490  74.9553490  92.9963200  73.4459830  74.6567360  93.9048430
  74.2599990  75.3561100  92.8370720  77.1832880  77.5549040  78.1566710
  77.6049300  77.3888910  78.9998100  77.3083720  76.7449270  77.6621850
  75.3460300  73.5345590  90.9637690  74.8156760  73.0436540  90.3361030
  76.0148370  73.9629790  90.4295620  79.6960520  76.5786650  75.4043810
  80.2166180  75.8635670  75.0384960  80.3428920  77.2172520  75.7044320
  84.2438360  78.0015050  90.7278880  84.6579380  78.1560130  91.5769300
  83.3089360  78.1270270  90.8904660  84.7160530  75.3411210  92.7318030
  85.2981300  74.5863530  92.6438510  84.8922300  75.8718650  91.9549510
  75.8332600  70.5007960  91.0434980  75.7389470  69.8828710  90.3185850
  75.2529990  71.2274250  90.8164890  78.5994040  69.0581200  88.0762370
  78.1511340  69.0805460  87.2307920  77.9659240  68.6600220  88.6732670
  79.0053590  77.9535530  88.6974810  79.4241700  78.7968260  88.5251050
  78.0862220  78.0907570  88.4681590  81.3417490  75.6851710  90.0812650
  81.4613700  75.0892850  90.8207490  82.2011490  75.7221400  89.6613950
  83.6805390  76.2388900  88.6575160  83.1540610  76.7631520  88.0540300
  84.0236730  76.8716290  89.2884890  76.8561010  84.2588540  89.8132540
  76.3182100  84.9834600  89.4941240  77.1094970  83.7818880  89.0229880
  78.1086260  72.2273060  91.3388470  78.6985950  71.9188910  92.0266290
  77.2906500  71.7552810  91.4948370  82.9279690  71.8438870  91.5721490
  82.2395210  71.1820410  91.5071480  83.6485710  71.3977140  92.0169950
  79.7123220  85.4939750  90.0719190  79.6381920  86.3974890  90.3791560
  78.8102060  85.1751650  90.0441260  80.2608550  84.6598260  77.6945550
  81.1559340  84.9983230  77.7164310  80.2926180  83.9377670  77.0669830
  71.6040720  83.6884930  86.1134440  71.1671710  83.8685730  86.9458590
  72.1718400  84.4459550  85.9716160  87.2402900  83.1901930  90.4011750
  86.6404890  83.2494490  89.6575670  87.3696800  82.2506910  90.5308600
  88.4804350  80.9319750  75.7381460  87.6497310  80.9996400  76.2088690
  88.6576180  81.8223870  75.4348320  87.9360810  77.6767230  78.2415660
  88.6979720  78.2463880  78.3475350  87.9515180  77.1094430  79.0123970
  88.9420780  78.5317330  83.0857590  89.3129610  77.7484650  82.6793560
  89.5822710  79.2206430  82.9074890  85.9254540  79.9153910  88.4987910
  85.1114380  80.3451070  88.7613700  86.3328740  80.5272320  87.8856960
  87.9879980  77.9701600  75.3988180  88.2628820  78.8780480  75.2707400
  87.7990720  77.9064130  76.3350170  87.8845320  75.9070590  80.3917610
  87.5088920  75.1398520  79.9598900  87.1548440  76.2893290  80.8792540
  72.4741080  76.5857730  87.0126660  72.8414120  76.4985130  87.8922680
  71.9051900  75.8224280  86.9133520  87.2744940  75.0542110  90.0257130
  87.0431030  74.8254860  89.1255080  87.5349490  75.9741660  89.9802020
  72.0257080  73.4966820  90.9185080  71.1313130  73.4633580  91.2578790
  72.5654630  73.6953610  91.6836330  85.7133010  70.2798540  92.8036830
  86.5903190  70.2881940  93.1870830  85.7253850  69.5429380  92.1929180
  87.1596280  74.1328080  83.6924850  87.6833760  73.6390730  83.0615020
  87.7455700  74.2678440  84.4372420  87.3386000  74.2167950  87.2144400
  86.3888710  74.1831490  87.3289390  87.5199010  75.1268060  86.9794170
  88.0783410  72.0262380  82.1654940  87.9682690  71.8718420  83.1037210
  88.8391000  71.4983320  81.9230350  86.4249130  67.9656510  88.6237940
  87.0621350  68.5790650  88.9897130  86.5724020  68.0017170  87.6787170
  89.0412170  70.6280960  78.0317790  88.2463670  70.5626080  78.5610700
  89.2455450  71.5631600  78.0203140  85.9830590  84.6672510  82.0256180
  86.5789660  84.3457080  81.3490600  86.2408740  84.1944330  82.8169450
  73.8893160  81.0990420  92.1746810  73.8462790  80.7283330  93.0561270
  74.0204170  82.0367990  92.3148630  77.5899190  82.6550010  87.7756530
  77.3490550  82.9224570  86.8887050  78.5301830  82.8255740  87.8307390
  79.7953610  69.1182700  91.5313040  79.7342500  69.7104530  92.2808450
  80.7353990  69.0108660  91.3863300  82.4328170  68.7752760  91.1705330
  83.0468580  69.0932050  90.5086410  82.9777730  68.2901350  91.7901190
  88.8503350  84.6744390  88.5767170  88.3561630  85.0713260  87.8594300
  88.2416640  84.0493600  88.9704450  72.9549430  67.4547020  91.2844390
  73.5032420  67.2735070  90.5210500  73.0204740  66.6641130  91.8200700
  73.7281190  84.0452670  89.2944590  73.1341510  83.9137370  90.0334630
  73.7205030  83.2090810  88.8286690  83.1736210  67.3384900  87.4974620
  82.2996050  67.6720010  87.2947550  83.0646960  66.8658080  88.3226490
  84.0808190  69.5455770  88.8816340  83.7521550  68.7307530  88.5018070
  85.0290490  69.5025580  88.7582030  86.5342800  85.3167810  85.8553910
  86.0745770  86.0683620  85.4811930  85.9055260  84.5974280  85.7968710
  73.3593420  81.4111050  88.2452630  72.6327480  80.7916340  88.1778580
  73.4202570  81.8051660  87.3750710  76.9638520  83.6256050  85.0302040
  77.4803540  83.0143410  84.5050300  77.6135900  84.1284830  85.5213050
  79.7034020  84.5164540  85.8571020  79.9911830  84.2618840  84.9804030
  80.2157240  83.9641900  86.4476590  80.9211030  68.2554740  86.4367530
  80.1382820  68.7300240  86.7164290  80.6273960  67.3509570  86.3280710
  85.4732100  68.9577840  84.4816620  85.9140190  68.9022940  83.6338220
  85.2039690  69.8735850  84.5526800  87.3370670  68.5893080  82.4925440
  87.2759070  67.6454300  82.3456460  88.1162700  68.6973170  83.0378900
  83.3090230  67.3383940  83.1866630  83.9119600  67.9104150  83.6615150
  82.5683220  67.9023380  82.9640530  86.4524830  67.7405500  78.4606910
  86.6475460  68.6388950  78.7274340  85.6654700  67.5092580  78.9539860
  79.7706380  85.4380640  93.2239220  80.6973690  85.2024910  93.2675180
  79.7556810  86.2652640  92.7425250  88.0051440  84.9806210  80.2213470
  88.1803630  84.2943950  79.5774390  87.3073010  85.5053260  79.8290140
  76.9569990  68.1025390  92.9881100  76.6754260  68.6058990  92.2241920
  77.3389690  67.3047140  92.6223230  75.8479090  85.3701050  77.7748780
  76.5797910  85.0860330  77.2272670  76.1072760  85.1314330  78.6648160
  83.5585450  67.5178970  93.5661570  83.4450900  67.8373580  94.4613090
  84.3755190  67.9191480  93.2698850  86.3383940  84.6650500  93.0480260
  87.1309260  84.1699730  92.8406220  86.6317090  85.3440640  93.6555870
  86.7024180  81.8503980  68.0128030  86.0187700  82.5203090  68.0044700
  87.2418470  82.0484630  67.2472890  84.2382920  83.6948110  66.7273210
  84.2510080  83.2910400  65.8595470  83.6858140  84.4695400  66.6234640
  85.2372570  83.8293820  69.7807910  84.7603130  84.6366010  69.5880520
  84.5534360  83.1772150  69.9334120  76.8656960  82.8078660  73.5535130
  76.8372390  83.2121610  72.6863560  76.7021930  81.8789020  73.3906730
  88.8171780  83.5905760  74.8499300  89.2931500  84.0688650  75.5288380
  89.4378940  83.5223250  74.1244800  88.2205030  80.7818610  72.0099310
  88.3468090  80.5430490  71.0916490  88.2626410  79.9503150  72.4821390
  82.0821770  84.4846610  70.5794120  82.5966440  84.3954620  71.3816550
  81.2390850  84.8306310  70.8722030  84.0576170  84.7701950  60.0078120
  83.8977310  84.4804890  60.9059950  83.8922880  83.9942080  59.4723350
  81.2578840  78.2140700  72.0366230  81.1916150  77.2936370  71.7823820
  80.6283980  78.3116140  72.7510870  81.1895570  81.0361270  71.7870030
  81.2040110  80.1042230  71.5688940  80.4820670  81.1221030  72.4259800
  87.4006780  77.6768610  71.1338610  86.6754970  78.2697390  70.9368000
  87.9282240  77.6692150  70.3351980  87.3519890  82.0743350  60.7850770
  86.7096050  81.4198970  61.0594490  86.9650550  82.4798440  60.0091440
  80.6229470  82.6778840  68.8810530  81.2671690  82.8838220  69.5583950
  80.9858910  81.9167240  68.4281380  85.7417270  80.9659810  57.3227120
  85.5154850  80.2490250  57.9151760  85.3513470  80.7172250  56.4848870
  83.6699170  81.4806090  70.8024040  84.0055410  82.0672780  71.4801960
  82.7499510  81.3498800  71.0321830  79.4987750  81.5297420  73.9712100
  79.1784620  80.8106660  74.5157790  78.8246110  82.2052490  74.0448160
  87.1757790  83.0473160  65.5230880  87.3005210  83.8704330  65.9954690
  88.0423350  82.8363890  65.1755030  82.4898230  80.4330310  74.3309000
  81.8836390  80.4561910  73.5904750  82.1852340  79.7013350  74.8676250
  83.9198600  84.1610600  72.9418410  84.8720350  84.0768620  72.8918650
  83.7726820  84.8252310  73.6152200  86.8107800  83.5404810  58.4410320
  86.5249310  83.1269950  57.6264500  86.6127350  84.4692520  58.3210840
  78.4269350  78.2194890  72.8605160  77.6615020  78.7879890  72.7759830
  78.6085310  77.9271100  71.9673390  85.5692700  79.9500220  73.4180180
  86.3102170  80.2875980  72.9147640  84.8065380  80.1192280  72.8649950
  84.2438360  78.0015050  71.9535390  84.6579380  78.1560130  72.8025810
  83.3089360  78.1270270  72.1161170  81.3417490  75.6851710  71.3069160
  81.4613700  75.0892850  72.0464000  82.2011490  75.7221400  70.8870460
  79.7123220  85.4939750  71.2975700  79.6381920  86.3974890  71.6048070
  78.8102060  85.1751650  71.2697770  80.2608550  84.6598260  58.9202060
  81.1559340  84.9983230  58.9420820  80.2926180  83.9377670  58.2926340
  87.2402900  83.1901930  71.6268260  86.6404890  83.2494490  70.8832180
  87.3696800  82.2506910  71.7565110  88.4804350  80.9319750  56.9637970
  87.6497310  80.9996400  57.4345200  88.6576180  81.8223870  56.6604830
  85.9254540  79.9153910  69.7244420  85.1114380  80.3451070  69.9870210
  86.3328740  80.5272320  69.1113470  87.9879980  77.9701600  56.6244690
  88.2628820  78.8780480  56.4963910  87.7990720  77.9064130  57.5606680
  89.0412170  70.6280960  59.2574300  88.2463670  70.5626080  59.7867210
  89.2455450  71.5631600  59.2459650  85.9830590  84.6672510  63.2512690
  86.5789660  84.3457080  62.5747110  86.2408740  84.1944330  64.0425960
  88.8503350  84.6744390  69.8023680  88.3561630  85.0713260  69.0850810
  88.2416640  84.0493600  70.1960960  86.5342800  85.3167810  67.0810420
  86.0745770  86.0683620  66.7068440  85.9055260  84.5974280  67.0225220
  79.7706380  85.4380640  74.4495730  80.6973690  85.2024910  74.4931690
  79.7556810  86.2652640  73.9681760  88.0051440  84.9806210  61.4469980
  88.1803630  84.2943950  60.8030900  87.3073010  85.5053260  61.0546650
  86.3383940  84.6650500  74.2736770  87.1309260  84.1699730  74.0662730
  86.6317090  85.3440640  74.8812380  89.1399470  72.3095220  50.7673150
  88.4351640  72.6976930  50.2488260  89.4057390  73.0045510  51.3694080
  86.7024180  81.8503980  49.2384540  86.0187700  82.5203090  49.2301210
  87.2418470  82.0484630  48.4729400  85.5328340  80.4164330  43.0419890
  85.4224670  79.4738660  43.1669310  85.5296590  80.7779970  43.9282650
  85.2372570  83.8293820  51.0064420  84.7603130  84.6366010  50.8137030
  84.5534360  83.1772150  51.1590630  83.2810610  76.8436760  39.9090380
  83.7203890  76.0059190  39.7628200  83.9939030  77.4766160  39.9954520
  86.8627750  68.0979570  38.2231420  86.5500410  68.1906400  39.1230490
  87.6240220  68.6760600  38.1728850  88.8171780  83.5905760  56.0755810
  89.2931500  84.0688650  56.7544890  89.4378940  83.5223250  55.3501310
  88.2205030  80.7818610  53.2355820  88.3468090  80.5430490  52.3173000
  88.2626410  79.9503150  53.7077900  84.0576170  84.7701950  41.2334630
  83.8977310  84.4804890  42.1316460  83.8922880  83.9942080  40.6979860
  84.0518370  73.9089250  39.8145290  84.9397990  74.2206480  39.6396630
  84.0223460  73.0361500  39.4225870  86.3232640  75.2201090  39.2825150
  86.2396360  75.6515310  38.4321590  87.0426830  75.6799440  39.7151970
  87.4006780  77.6768610  52.3595120  86.6754970  78.2697390  52.1624510
  87.9282240  77.6692150  51.5608490  87.3519890  82.0743350  42.0107280
  86.7096050  81.4198970  42.2851000  86.9650550  82.4798440  41.2347950
  85.7417270  80.9659810  38.5483630  85.5154850  80.2490250  39.1408270
  85.3513470  80.7172250  37.7105380  85.3233520  78.8831750  40.2097790
  85.0355220  79.3444440  40.9975670  86.1185690  78.4229520  40.4782010
  86.0803380  70.7180520  41.3692970  85.4516540  70.8226190  40.6551200
  85.5855300  70.9377300  42.1586850  86.8810200  70.6331130  51.6271770
  86.3783800  71.3736530  51.9665580  87.6966860  71.0215130  51.3108560
  87.1757790  83.0473160  46.7487390  87.3005210  83.8704330  47.2211200
  88.0423350  82.8363890  46.4011540  83.9198600  84.1610600  54.1674920
  84.8720350  84.0768620  54.1175160  83.7726820  84.8252310  54.8408710
  86.8107800  83.5404810  39.6666830  86.5249310  83.1269950  38.8521010
  86.6127350  84.4692520  39.5467350  85.5692700  79.9500220  54.6436690
  86.3102170  80.2875980  54.1404150  84.8065380  80.1192280  54.0906460
  83.5580090  68.4390500  40.0824770  83.8382380  67.5958400  40.4384190
  82.7845820  68.6713610  40.5963520  87.2402900  83.1901930  52.8524770
  86.6404890  83.2494490  52.1088690  87.3696800  82.2506910  52.9821620
  88.4804350  80.9319750  38.1894480  87.6497310  80.9996400  38.6601710
  88.6576180  81.8223870  37.8861340  87.9360810  77.6767230  40.6928680
  88.6979720  78.2463880  40.7988370  87.9515180  77.1094430  41.4636990
  88.9420780  78.5317330  45.5370610  89.3129610  77.7484650  45.1306580
  89.5822710  79.2206430  45.3587910  87.9879980  77.9701600  37.8501200
  88.2628820  78.8780480  37.7220420  87.7990720  77.9064130  38.7863190
  84.3855590  70.9946450  39.1454830  84.8040470  70.8077430  38.3051490
  84.0791650  70.1425500  39.4557760  87.2744940  75.0542110  52.4770150
  87.0431030  74.8254860  51.5768100  87.5349490  75.9741660  52.4315040
  87.3386000  74.2167950  49.6657420  86.3888710  74.1831490  49.7802410
  87.5199010  75.1268060  49.4307190  88.9673680  69.8570300  37.8574100
  89.8922990  69.7251480  37.6492390  88.9449470  69.9363120  38.8110550
  89.0412170  70.6280960  40.4830810  88.2463670  70.5626080  41.0123720
  89.2455450  71.5631600  40.4716160  85.9830590  84.6672510  44.4769200
  86.5789660  84.3457080  43.8003620  86.2408740  84.1944330  45.2682470
  88.8503350  84.6744390  51.0280190  88.3561630  85.0713260  50.3107320
  88.2416640  84.0493600  51.4217470  86.5342800  85.3167810  48.3066930
  86.0745770  86.0683620  47.9324950  85.9055260  84.5974280  48.2481730
  87.3370670  68.5893080  44.9438460  87.2759070  67.6454300  44.7969480
  88.1162700  68.6973170  45.4891920  86.4524830  67.7405500  40.9119930
  86.6475460  68.6388950  41.1787360  85.6654700  67.5092580  41.4052880
  88.0051440  84.9806210  42.6726490  88.1803630  84.2943950  42.0287410
  87.3073010  85.5053260  42.2803160  86.3383940  84.6650500  55.4993280
  87.1309260  84.1699730  55.2919240  86.6317090  85.3440640  56.1068890
  82.4643600  75.5371440  26.3809330  82.3837650  74.6226050  26.1101040
  82.0508020  76.0338510  25.6749040  84.6169070  81.7210650  27.0417730
  84.1550600  80.9497890  27.3704900  85.4294620  81.7476720  27.5470180
  80.8432380  84.0068660  26.6621720  80.2243820  84.4626160  26.0916160
  81.6984160  84.1620120  26.2611420  81.0675800  72.7978030  28.4957690
  81.4440620  71.9249910  28.3831360  80.9695310  73.1336730  27.6048130
  84.8499920  70.2928470  25.4286030  85.6709540  69.8025040  25.4711510
  84.8834000  70.8826130  26.1817870  89.1399470  72.3095220  31.9929660
  88.4351640  72.6976930  31.4744770  89.4057390  73.0045510  32.5950590
  75.3224640  68.7788590  32.5563730  75.3243080  69.2960980  31.7509630
  74.4928950  68.3018770  32.5333660  81.7095730  78.8907900  24.0553630
  81.0913000  79.3557350  23.4916350  82.2218980  79.5835380  24.4723140
  85.0861400  72.2328850  28.2013570  84.3816970  72.5213740  28.7816680
  85.4473560  73.0428960  27.8413130  86.7024180  81.8503980  30.4641050
  86.0187700  82.5203090  30.4557720  87.2418470  82.0484630  29.6985910
  88.1548320  71.6783640  28.5922780  87.2073230  71.7122620  28.7238210
  88.4798310  72.4922590  28.9772140  78.6867860  67.9780820  26.8878770
  78.9942840  67.4227710  26.1714270  77.7568560  68.1125280  26.7051760
  84.2382920  83.6948110  29.1786230  84.2510080  83.2910400  28.3108490
  83.6858140  84.4695400  29.0747660  85.5328340  80.4164330  24.2676400
  85.4224670  79.4738660  24.3925820  85.5296590  80.7779970  25.1539160
  83.6368360  78.5977950  30.5068840  84.0537150  78.3838060  29.6722300
  84.3608180  78.8550740  31.0777460  81.0748620  76.0429650  23.6238890
  80.1477900  75.9767030  23.8527360  81.2273440  76.9809780  23.5094130
  81.0617700  72.3146650  20.6206050  80.1221370  72.4760610  20.7058510
  81.3800960  73.0332330  20.0742040  87.5830460  76.9965170  30.5985080
  86.7549090  77.0658260  30.1235210  88.1780940  77.5819480  30.1300910
  85.1045910  77.6049950  24.1274140  84.4858330  77.2669500  23.4800440
  85.0870360  76.9609710  24.8353330  84.5472470  73.7834490  31.5439950
  84.1343650  74.6088200  31.7979940  83.8148420  73.1979530  31.3516310
  85.2372570  83.8293820  32.2320930  84.7603130  84.6366010  32.0393540
  84.5534360  83.1772150  32.3847140  83.2810610  76.8436760  21.1346890
  83.7203890  76.0059190  20.9884710  83.9939030  77.4766160  21.2211030
  81.3905990  81.7832830  25.1028130  81.8301900  82.5257160  24.6883520
  81.3292880  82.0259400  26.0267090  86.8627750  68.0979570  19.4487930
  86.5500410  68.1906400  20.3487000  87.6240220  68.6760600  19.3985360
  88.8171780  83.5905760  37.3012320  89.2931500  84.0688650  37.9801400
  89.4378940  83.5223250  36.5757820  88.2205030  80.7818610  34.4612330
  88.3468090  80.5430490  33.5429510  88.2626410  79.9503150  34.9334410
  82.0821770  84.4846610  33.0307140  82.5966440  84.3954620  33.8329570
  81.2390850  84.8306310  33.3235050  84.0576170  84.7701950  22.4591140
  83.8977310  84.4804890  23.3572970  83.8922880  83.9942080  21.9236370
  83.7602300  82.2789510  21.0189140  83.0667460  82.2766800  20.3591420
  84.5025160  81.8548830  20.5883310  83.3252230  83.9052220  25.0937630
  83.7809180  83.1241600  25.4076250  83.6644750  84.6159040  25.6378810
  88.0729040  72.8351070  35.4262070  87.4573310  73.3430740  34.8977530
  87.7525460  71.9349400  35.3688010  80.1343360  71.6742960  32.8924260
  79.6722730  71.8825980  33.7044200  79.7321470  70.8602310  32.5894930
  85.1347870  72.8951910  34.0220920  84.2841460  72.5957660  34.3429990
  84.9749660  73.1393920  33.1104740  82.2297580  74.3953660  36.1219710
  82.5550990  73.5617410  35.7821940  83.0177910  74.9182180  36.2698040
  78.9632370  68.4285140  22.1694770  78.3386550  68.4245010  22.8948080
  78.8762490  67.5616100  21.7730740  77.8849450  69.3521770  29.1478540
  78.1821780  70.2584600  29.0670560  78.4335010  68.8640550  28.5338110
  82.8685530  73.9371380  23.6160840  82.2694420  74.6607180  23.4324460
  83.4165140  73.8748160  22.8337290  81.4750400  72.5734920  25.6464120
  81.8679970  72.8907120  24.8332810  81.8367250  71.6946800  25.7608640
  79.7842570  71.3242230  36.9060980  79.0940890  71.1314430  37.5407070
  80.5274870  71.6076870  37.4385280  70.5114570  69.1635720  27.8694320
  70.2227620  69.7338580  28.5819300  71.2560330  68.6840170  28.2325550
  78.5603080  72.8406950  21.1374150  78.6815900  72.7993430  22.0859970
  78.1751590  73.7031100  20.9820880  82.5231450  70.6174350  29.1537840
  82.5404190  71.0683000  29.9979690  82.2747030  69.7179990  29.3671280
  85.9502200  68.0306530  34.9924220  86.2747970  67.2996190  35.5182200
  85.9858710  67.7120170  34.0905210  85.8760040  78.1431640  28.6010250
  86.5959160  78.6386930  28.2106360  85.6741860  77.4649530  27.9564120
  81.3369980  69.5369600  22.7439640  80.5234590  69.0382770  22.6684950
  81.1431930  70.3767850  22.3275990  84.0518370  73.9089250  21.0401800
  84.9397990  74.2206480  20.8653140  84.0223460  73.0361500  20.6482380
  86.3232640  75.2201090  20.5081660  86.2396360  75.6515310  19.6578100
  87.0426830  75.6799440  20.9408480  87.4006780  77.6768610  33.5851630
  86.6754970  78.2697390  33.3881020  87.9282240  77.6692150  32.7865000
  87.3519890  82.0743350  23.2363790  86.7096050  81.4198970  23.5107510
  86.9650550  82.4798440  22.4604460  82.9306370  79.4028780  27.0835480
  83.2830190  78.8056910  26.4236850  82.0468700  79.0773010  27.2543730
  74.2208640  67.5110150  24.5753770  74.0923270  67.5028050  25.5238690
  73.3970660  67.8493240  24.2244780  85.7417270  80.9659810  19.7740140
  85.5154850  80.2490250  20.3664780  85.3513470  80.7172250  18.9361890
  83.6699170  81.4806090  33.2537060  84.0055410  82.0672780  33.9314980
  82.7499510  81.3498800  33.4834850  71.5233300  84.9926670  20.5484600
  71.8830940  85.5916010  19.8941870  71.3825640  85.5386560  21.3219630
  85.3233520  78.8831750  21.4354300  85.0355220  79.3444440  22.2232180
  86.1185690  78.4229520  21.7038520  82.7141350  71.7623580  31.7861920
  83.0822170  70.9418790  32.1141490  81.8539550  71.8225470  32.2017570
  86.0803380  70.7180520  22.5949480  85.4516540  70.8226190  21.8807710
  85.5855300  70.9377300  23.3843360  80.5261520  82.4386110  20.0283460
  80.6273500  82.2350100  19.0985440  79.6263260  82.1844390  20.2331240
  82.0802840  69.7217130  25.4503150  81.9570620  69.7403260  24.5012660
  83.0287400  69.7696070  25.5701550  79.1679630  84.9572430  24.7231130
  79.4221130  84.9193820  23.8010500  78.2192110  84.8305760  24.7159380
  86.8810200  70.6331130  32.8528280  86.3783800  71.3736530  33.1922090
  87.6966860  71.0215130  32.5365070  85.1732210  75.8764310  26.2989640
  84.2322350  75.8914540  26.4737330  85.4876280  75.0900270  26.7449940
  87.1757790  83.0473160  27.9743900  87.3005210  83.8704330  28.4467710
  88.0423350  82.8363890  27.6268050  77.7577630  84.3134680  19.4686600
  78.5506240  84.6023510  19.0168390  77.2381980  83.8826850  18.7899080
  83.9198600  84.1610600  35.3931430  84.8720350  84.0768620  35.3431670
  83.7726820  84.8252310  36.0665220  86.8107800  83.5404810  20.8923340
  86.5249310  83.1269950  20.0777520  86.6127350  84.4692520  20.7723860
  81.5157760  78.5958120  19.9370940  80.9667860  79.0427420  20.5813680
  82.1377020  78.0907370  20.4608610  85.5692700  79.9500220  35.8693200
  86.3102170  80.2875980  35.3660660  84.8065380  80.1192280  35.3162970
  84.2438360  78.0015050  34.4048410  84.6579380  78.1560130  35.2538830
  83.3089360  78.1270270  34.5674190  84.7160530  75.3411210  36.4087560
  85.2981300  74.5863530  36.3208040  84.8922300  75.8718650  35.6319040
  83.6805390  76.2388900  32.3344690  83.1540610  76.7631520  31.7309830
  84.0236730  76.8716290  32.9654420  78.1086260  72.2273060  35.0158000
  78.6985950  71.9188910  35.7035820  77.2906500  71.7552810  35.1717900
  82.9279690  71.8438870  35.2491020  82.2395210  71.1820410  35.1841010
  83.6485710  71.3977140  35.6939480  83.5580090  68.4390500  21.3081280
  83.8382380  67.5958400  21.6640700  82.7845820  68.6713610  21.8220030
  78.0959510  69.6717510  19.7528480  77.7481510  68.9941500  19.1730930
  78.2972280  69.2107020  20.5671870  80.2608550  84.6598260  21.3715080
  81.1559340  84.9983230  21.3933840  80.2926180  83.9377670  20.7439360
  87.2402900  83.1901930  34.0781280  86.6404890  83.2494490  33.3345200
  87.3696800  82.2506910  34.2078130  88.4804350  80.9319750  19.4150990
  87.6497310  80.9996400  19.8858220  88.6576180  81.8223870  19.1117850
  87.9360810  77.6767230  21.9185190  88.6979720  78.2463880  22.0244880
  87.9515180  77.1094430  22.6893500  88.9420780  78.5317330  26.7627120
  89.3129610  77.7484650  26.3563090  89.5822710  79.2206430  26.5844420
  85.9254540  79.9153910  32.1757440  85.1114380  80.3451070  32.4383230
  86.3328740  80.5272320  31.5626490  87.9879980  77.9701600  19.0757710
  88.2628820  78.8780480  18.9476930  87.7990720  77.9064130  20.0119700
  84.3855590  70.9946450  20.3711340  84.8040470  70.8077430  19.5308000
  84.0791650  70.1425500  20.6814270  87.8845320  75.9070590  24.0687140
  87.5088920  75.1398520  23.6368430  87.1548440  76.2893290  24.5562070
  87.2744940  75.0542110  33.7026660  87.0431030  74.8254860  32.8024610
  87.5349490  75.9741660  33.6571550  85.7133010  70.2798540  36.4806360
  86.5903190  70.2881940  36.8640360  85.7253850  69.5429380  35.8698710
  87.1596280  74.1328080  27.3694380  87.6833760  73.6390730  26.7384550
  87.7455700  74.2678440  28.1141950  87.3386000  74.2167950  30.8913930
  86.3888710  74.1831490  31.0058920  87.5199010  75.1268060  30.6563700
  72.8404600  68.5208960  19.0415210  73.5632730  69.0617900  19.3596430
  73.1129120  68.2472380  18.1656750  86.6496250  73.3901430  23.3086790
  87.1455370  73.1572300  24.0935670  86.4512320  72.5513270  22.8924430
  88.0783410  72.0262380  25.8424470  87.9682690  71.8718420  26.7806740
  88.8391000  71.4983320  25.5999880  86.4249130  67.9656510  32.3007470
  87.0621350  68.5790650  32.6666660  86.5724020  68.0017170  31.3556700
  88.9673680  69.8570300  19.0830610  89.8922990  69.7251480  18.8748900
  88.9449470  69.9363120  20.0367060  89.0412170  70.6280960  21.7087320
  88.2463670  70.5626080  22.2380230  89.2455450  71.5631600  21.6972670
  85.9830590  84.6672510  25.7025710  86.5789660  84.3457080  25.0260130
  86.2408740  84.1944330  26.4938980  88.8503350  84.6744390  32.2536700
  88.3561630  85.0713260  31.5363830  88.2416640  84.0493600  32.6473980
  83.1736210  67.3384900  31.1744150  82.2996050  67.6720010  30.9717080
  83.0646960  66.8658080  31.9996020  84.0808190  69.5455770  32.5585870
  83.7521550  68.7307530  32.1787600  85.0290490  69.5025580  32.4351560
  86.5342800  85.3167810  29.5323440  86.0745770  86.0683620  29.1581460
  85.9055260  84.5974280  29.4738240  80.9211030  68.2554740  30.1137060
  80.1382820  68.7300240  30.3933820  80.6273960  67.3509570  30.0050240
  85.4732100  68.9577840  28.1586150  85.9140190  68.9022940  27.3107750
  85.2039690  69.8735850  28.2296330  87.3370670  68.5893080  26.1694970
  87.2759070  67.6454300  26.0225990  88.1162700  68.6973170  26.7148430
  72.2651440  68.5602220  22.6350780  73.0230800  68.6731100  22.0614810
  71.8028610  69.3971420  22.5894210  83.3090230  67.3383940  26.8636160
  83.9119600  67.9104150  27.3384680  82.5683220  67.9023380  26.6410060
  86.4524830  67.7405500  22.1376440  86.6475460  68.6388950  22.4043870
  85.6654700  67.5092580  22.6309390  74.6376590  69.0866270  21.1752750
  75.1669350  68.2996070  21.0460700  75.2704910  69.7657460  21.4088280
  76.8314430  68.8241410  24.2298140  76.2017170  68.1228720  24.3968270
  76.2919570  69.5845540  24.0131300  88.0051440  84.9806210  23.8983000
  88.1803630  84.2943950  23.2543920  87.3073010  85.5053260  23.5059670
  75.8479090  85.3701050  21.4518310  76.5797910  85.0860330  20.9042200
  76.1072760  85.1314330  22.3417690  86.3383940  84.6650500  36.7249790
  87.1309260  84.1699730  36.5175750  86.6317090  85.3440640  37.3325400
  82.4643600  75.5371440   7.6065840  82.3837650  74.6226050   7.3357550
  82.0508020  76.0338510   6.9005550  80.5961640  77.3150460   9.4875110
  79.8203740  76.8350900   9.7773680  81.2474570  76.6356110   9.3131270
  74.6127470  77.6270270  10.3650870  73.7812350  77.3718980  10.7647380
  75.2208450  77.6981040  11.1008790  84.6169070  81.7210650   8.2674240
  84.1550600  80.9497890   8.5961410  85.4294620  81.7476720   8.7726690
  74.5928730  81.6610360  10.5608890  74.8956770  80.7708100  10.3819110
  75.3372320  82.2180580  10.3331140  73.0219420  72.5872160   4.1493260
  72.1336120  72.9288130   4.0473140  73.3060610  72.3872480   3.2574090
  70.9852430  75.1877810  10.0332960  71.5568540  74.4200010  10.0336600
  70.9853970  75.4866570   9.1239570  80.8432380  84.0068660   7.8878230
  80.2243820  84.4626160   7.3172670  81.6984160  84.1620120   7.4867930
  80.0370630  79.9907650   9.4945270  79.9678910  79.0497590   9.3334400
  80.7990490  80.0809060  10.0667840  72.2277300  70.5962170  11.8201890
  72.0480140  69.6987920  12.1004650  71.8257380  71.1434040  12.4948840
  81.0675800  72.7978030   9.7214200  81.4440620  71.9249910   9.6087870
  80.9695310  73.1336730   8.8304640  75.1980810  71.1703660   5.1831640
  75.3047560  72.0707390   5.4900400  74.2873170  71.1221630   4.8926290
  84.8499920  70.2928470   6.6542540  85.6709540  69.8025040   6.6968020
  84.8834000  70.8826130   7.4074380  72.8463970  73.0922670  10.4284230
  73.5274080  73.3561040  11.0471630  72.5312020  72.2523540  10.7622240
  77.0388540  74.1390030   9.5156820  77.5466760  74.6371000  10.1561840
  77.5701780  73.3625230   9.3396180  89.1399470  72.3095220  13.2186170
  88.4351640  72.6976930  12.7001280  89.4057390  73.0045510  13.8207100
  75.3224640  68.7788590  13.7820240  75.3243080  69.2960980  12.9766140
  74.4928950  68.3018770  13.7590170  81.7095730  78.8907900   5.2810140
  81.0913000  79.3557350   4.7172860  82.2218980  79.5835380   5.6979650
  76.5727490  78.4183770  11.9593740  76.2396870  79.0452690  12.6014810
  76.7494170  78.9445650  11.1795410  85.0861400  72.2328850   9.4270080
  84.3816970  72.5213740  10.0073190  85.4473560  73.0428960   9.0669640
  75.0039970  70.4898550  11.7890690  75.3456780  71.3340600  11.4944560
  74.0655780  70.6382290  11.9056030  75.7846590  80.3864570  13.7742920
  76.4020590  81.0615650  13.4927370  74.9239710  80.7952550  13.6830420
  71.0778930  79.5764430   2.6549770  70.7006910  80.0651530   1.9234670
  71.3352000  80.2489710   3.2856300  86.7024180  81.8503980  11.6897560
  86.0187700  82.5203090  11.6814230  87.2418470  82.0484630  10.9242420
  88.1548320  71.6783640   9.8179290  87.2073230  71.7122620   9.9494720
  88.4798310  72.4922590  10.2028650  78.6867860  67.9780820   8.1135280
  78.9942840  67.4227710   7.3970780  77.7568560  68.1125280   7.9308270
  84.2382920  83.6948110  10.4042740  84.2510080  83.2910400   9.5365000
  83.6858140  84.4695400  10.3004170  85.5328340  80.4164330   5.4932910
  85.4224670  79.4738660   5.6182330  85.5296590  80.7779970   6.3795670
  83.6368360  78.5977950  11.7325350  84.0537150  78.3838060  10.8978810
  84.3608180  78.8550740  12.3033970  81.0748620  76.0429650   4.8495400
  80.1477900  75.9767030   5.0783870  81.2273440  76.9809780   4.7350640
  81.0617700  72.3146650   1.8462560  80.1221370  72.4760610   1.9315020
  81.3800960  73.0332330   1.2998550  87.5830460  76.9965170  11.8241590
  86.7549090  77.0658260  11.3491720  88.1780940  77.5819480  11.3557420
  85.1045910  77.6049950   5.3530650  84.4858330  77.2669500   4.7056950
  85.0870360  76.9609710   6.0609840  84.5472470  73.7834490  12.7696460
  84.1343650  74.6088200  13.0236450  83.8148420  73.1979530  12.5772820
  76.6805260  76.5694390   7.6315130  76.2762260  75.8571640   7.1361030
  76.7668380  76.2247630   8.5203170  77.1486960  80.2561950   9.7954340
  76.8515250  79.6507420   9.1162120  78.0986780  80.2939260   9.6843700
  75.3933880  73.3437600  11.4114170  75.9448470  73.4532940  10.6367420
  75.9077390  73.7175200  12.1269400  85.2372570  83.8293820  13.4577440
  84.7603130  84.6366010  13.2650050  84.5534360  83.1772150  13.6103650
  76.2405390  79.9943640  16.4462140  75.3433920  80.2183610  16.6935540
  76.2658260  80.1178580  15.4973540  83.2810610  76.8436760   2.3603400
  83.7203890  76.0059190   2.2141220  83.9939030  77.4766160   2.4467540
  81.3905990  81.7832830   6.3284640  81.8301900  82.5257160   5.9140030
  81.3292880  82.0259400   7.2523600  76.8656960  82.8078660  17.2304660
  76.8372390  83.2121610  16.3633090  76.7021930  81.8789020  17.0676260
  73.3809890  75.4639370   5.1321780  73.2607490  76.1901460   4.5203050
  73.0710780  74.6942280   4.6549690  88.8171780  83.5905760  18.5268830
  89.2931500  84.0688650  19.2057910  89.4378940  83.5223250  17.8014330
  71.0195260  78.6354510  10.9390420  71.0975680  78.7703280   9.9946140
  71.6336940  77.9270400  11.1318540  72.2642890  80.3354700   7.3496600
  71.8570970  80.4769290   6.4950200  73.1555900  80.0514860   7.1467810
  88.2205030  80.7818610  15.6868840  88.3468090  80.5430490  14.7686020
  88.2626410  79.9503150  16.1590920  82.0821770  84.4846610  14.2563650
  82.5966440  84.3954620  15.0586080  81.2390850  84.8306310  14.5491560
  84.0576170  84.7701950   3.6847650  83.8977310  84.4804890   4.5829480
  83.8922880  83.9942080   3.1492880  76.5364550  84.5500480   5.4619270
  76.3607030  83.6336020   5.2487070  75.6820290  84.9087770   5.7017070
  83.7602300  82.2789510   2.2445650  83.0667460  82.2766800   1.5847930
  84.5025160  81.8548830   1.8139820  83.3252230  83.9052220   6.3194140
  83.7809180  83.1241600   6.6332760  83.6644750  84.6159040   6.8635320
  88.0729040  72.8351070  16.6518580  87.4573310  73.3430740  16.1234040
  87.7525460  71.9349400  16.5944520  75.8473550  68.8074440   8.5145450
  75.4041700  69.5883980   8.1829970  76.4058540  69.1304330   9.2216390
  80.1343360  71.6742960  14.1180770  79.6722730  71.8825980  14.9300710
  79.7321470  70.8602310  13.8151440  85.1347870  72.8951910  15.2477430
  84.2841460  72.5957660  15.5686500  84.9749660  73.1393920  14.3361250
  82.2297580  74.3953660  17.3476220  82.5550990  73.5617410  17.0078450
  83.0177910  74.9182180  17.4954550  78.9632370  68.4285140   3.3951280
  78.3386550  68.4245010   4.1204590  78.8762490  67.5616100   2.9987250
  77.8849450  69.3521770  10.3735050  78.1821780  70.2584600  10.2927070
  78.4335010  68.8640550   9.7594620  75.6387770  73.9308010   6.2426700
  75.4128690  73.7145180   7.1473320  74.8580300  74.3636470   5.8972670
  82.8685530  73.9371380   4.8417350  82.2694420  74.6607180   4.6580970
  83.4165140  73.8748160   4.0593800  78.0786980  74.8293590  16.9086970
  77.9830580  73.8888320  16.7587370  78.9218960  75.0508660  16.5135040
  81.4750400  72.5734920   6.8720630  81.8679970  72.8907120   6.0589320
  81.8367250  71.6946800   6.9865150  79.7842570  71.3242230  18.1317490
  79.0940890  71.1314430  18.7663580  80.5274870  71.6076870  18.6641790
  70.5114570  69.1635720   9.0950830  70.2227620  69.7338580   9.8075810
  71.2560330  68.6840170   9.4582060  82.0605540  75.1640670  10.9671410
  81.3286660  75.6727480  11.3161510  81.6629880  74.3470650  10.6660190
  78.4982930  71.8394870   9.3723900  78.5018990  71.3984820   8.5228440
  79.3934050  72.1612200   9.4795720  74.3485310  71.7221360   8.3318110
  74.0085360  72.1996590   9.0885160  73.5862630  71.2686480   7.9719210
  78.5603080  72.8406950   2.3630660  78.6815900  72.7993430   3.3116480
  78.1751590  73.7031100   2.2077390  82.5231450  70.6174350  10.3794350
  82.5404190  71.0683000  11.2236200  82.2747030  69.7179990  10.5927790
  85.9502200  68.0306530  16.2180730  86.2747970  67.2996190  16.7438710
  85.9858710  67.7120170  15.3161720  78.7990900  75.8996650  11.1189310
  79.1661030  75.4255220  11.8650650  78.6095960  76.7738220  11.4597650
  71.6631390  70.6440340   7.2482780  71.3778310  70.2796010   8.0861400
  71.6010250  69.9120800   6.6345920  76.5890270  74.9405290  13.4373520
  76.2847340  75.8197270  13.6623880  77.5436730  75.0005080  13.4730960
  75.1172060  79.1466280   4.0340370  74.3434320  78.6063900   3.8739090
  75.8466690  78.6272890   3.6958130  85.8760040  78.1431640   9.8266760
  86.5959160  78.6386930   9.4362870  85.6741860  77.4649530   9.1820630
  81.3369980  69.5369600   3.9696150  80.5234590  69.0382770   3.8941460
  81.1431930  70.3767850   3.5532500  81.2578840  78.2140700  15.7135760
  81.1916150  77.2936370  15.4593350  80.6283980  78.3116140  16.4280400
  84.0518370  73.9089250   2.2658310  84.9397990  74.2206480   2.0909650
  84.0223460  73.0361500   1.8738890  75.1609460  78.8146660   7.6719180
  75.6788130  78.0114920   7.6176070  74.7093480  78.7525800   8.5136010
  80.0478960  80.0812940   2.9446480  80.3894660  80.8255170   2.4489800
  79.2191670  80.3944060   3.3071310  81.1895570  81.0361270  15.4639560
  81.2040110  80.1042230  15.2458470  80.4820670  81.1221030  16.1029330
  87.4006780  77.6768610  14.8108140  86.6754970  78.2697390  14.6137530
  87.9282240  77.6692150  14.0121510  87.3519890  82.0743350   4.4620300
  86.7096050  81.4198970   4.7364020  86.9650550  82.4798440   3.6860970
  82.9306370  79.4028780   8.3091990  83.2830190  78.8056910   7.6493360
  82.0468700  79.0773010   8.4800240  79.0169650  80.1626470   5.7162400
  79.7040780  80.7095680   6.0969990  78.2302070  80.7067200   5.7512010
  78.3196860  77.1672500   5.3287760  78.7759640  77.9777750   5.5547950
  77.9685070  76.8495640   6.1606250  80.6229470  82.6778840  12.5580060
  81.2671690  82.8838220  13.2353480  80.9858910  81.9167240  12.1050910
  74.2208640  67.5110150   5.8010280  74.0923270  67.5028050   6.7495200
  73.3970660  67.8493240   5.4501290  81.8961550  80.6811190  11.2757510
  82.5383780  79.9804350  11.3889680  82.4210900  81.4609630  11.0954400
  83.6699170  81.4806090  14.4793570  84.0055410  82.0672780  15.1571490
  82.7499510  81.3498800  14.7091360  71.2202570  69.2701270  15.2616980
  70.5061090  69.4698190  15.8669590  71.6397610  68.4940840  15.6331780
  85.3233520  78.8831750   2.6610810  85.0355220  79.3444440   3.4488690
  86.1185690  78.4229520   2.9295030  79.4987750  81.5297420  17.6481630
  79.1784620  80.8106660  18.1927320  78.8246110  82.2052490  17.7217690
  77.5401920  82.3757870   2.5914780  77.5312020  83.1087560   1.9759290
  76.6200280  82.1289450   2.6841740  73.1408560  77.5972760   3.3361540
  72.5336510  78.3371660   3.3456840  73.6157910  77.6872120   2.5099740
  82.7141350  71.7623580  13.0118430  83.0822170  70.9418790  13.3398000
  81.8539550  71.8225470  13.4274080  86.0803380  70.7180520   3.8205990
  85.4516540  70.8226190   3.1064220  85.5855300  70.9377300   4.6099870
  78.0487410  72.9966470   5.2363870  77.3403560  73.4652810   5.6777480
  78.3331890  72.3388480   5.8709060  79.6743340  74.4163170  13.2356400
  80.1728590  74.8908990  13.9008250  79.8166290  73.4926690  13.4426430
  82.0802840  69.7217130   6.6759660  81.9570620  69.7403260   5.7269170
  83.0287400  69.7696070   6.7958060  79.1679630  84.9572430   5.9487640
  79.4221130  84.9193820   5.0267010  78.2192110  84.8305760   5.9415890
  76.2522430  71.3051550   2.6114580  77.1012960  71.7421700   2.5454770
  75.8853700  71.6171810   3.4386640  86.8810200  70.6331130  14.0784790
  86.3783800  71.3736530  14.4178600  87.6966860  71.0215130  13.7621580
  85.1732210  75.8764310   7.5246150  84.2322350  75.8914540   7.6993840
  85.4876280  75.0900270   7.9706450  73.8460610  74.9908980   1.7683000
  73.9264200  74.0436490   1.8800400  74.7380360  75.3215860   1.8743660
  87.1757790  83.0473160   9.2000410  87.3005210  83.8704330   9.6724220
  88.0423350  82.8363890   8.8524560  74.6475320  85.1404370   8.8717540
  75.3837800  84.5919830   9.1426110  75.0316240  86.0060380   8.7323530
  71.5320800  81.2077940   4.7459050  70.6060580  81.4499080   4.7364460
  71.9977230  82.0352200   4.6243800  73.6533600  84.3250440  18.0603120
  74.4546330  84.6462490  18.4738520  73.1385420  83.9646020  18.7823030
  82.4898230  80.4330310  18.0078530  81.8836390  80.4561910  17.2674280
  82.1852340  79.7013350  18.5445780  83.9198600  84.1610600  16.6187940
  84.8720350  84.0768620  16.5688180  83.7726820  84.8252310  17.2921730
  86.8107800  83.5404810   2.1179850  86.5249310  83.1269950   1.3034030
  86.6127350  84.4692520   1.9980370  78.4269350  78.2194890  16.5374690
  77.6615020  78.7879890  16.4529360  78.6085310  77.9271100  15.6442920
  85.5692700  79.9500220  17.0949710  86.3102170  80.2875980  16.5917170
  84.8065380  80.1192280  16.5419480  77.1832880  77.5549040   3.0592750
  77.6049300  77.3888910   3.9024140  77.3083720  76.7449270   2.5647890
  84.2438360  78.0015050  15.6304920  84.6579380  78.1560130  16.4795340
  83.3089360  78.1270270  15.7930700  84.7160530  75.3411210  17.6344070
  85.2981300  74.5863530  17.5464550  84.8922300  75.8718650  16.8575550
  75.8332600  70.5007960  15.9461020  75.7389470  69.8828710  15.2211890
  75.2529990  71.2274250  15.7190930  78.5994040  69.0581200  12.9788410
  78.1511340  69.0805460  12.1333960  77.9659240  68.6600220  13.5758710
  79.0053590  77.9535530  13.6000850  79.4241700  78.7968260  13.4277090
  78.0862220  78.0907570  13.3707630  81.3417490  75.6851710  14.9838690
  81.4613700  75.0892850  15.7233530  82.2011490  75.7221400  14.5639990
  83.6805390  76.2388900  13.5601200  83.1540610  76.7631520  12.9566340
  84.0236730  76.8716290  14.1910930  76.8561010  84.2588540  14.7158580
  76.3182100  84.9834600  14.3967280  77.1094970  83.7818880  13.9255920
  78.1086260  72.2273060  16.2414510  78.6985950  71.9188910  16.9292330
  77.2906500  71.7552810  16.3974410  82.9279690  71.8438870  16.4747530
  82.2395210  71.1820410  16.4097520  83.6485710  71.3977140  16.9195990
  83.5580090  68.4390500   2.5337790  83.8382380  67.5958400   2.8897210
  82.7845820  68.6713610   3.0476540  79.7123220  85.4939750  14.9745230
  79.6381920  86.3974890  15.2817600  78.8102060  85.1751650  14.9467300
  80.2608550  84.6598260   2.5971590  81.1559340  84.9983230   2.6190350
  80.2926180  83.9377670   1.9695870  71.1150510  82.8214340   8.2778850
  71.4453520  81.9535400   8.0457490  71.5441510  83.0272860   9.1083810
  75.7112430  81.1523350   5.9380820  75.4107970  81.0288320   6.8384730
  75.6049920  80.2931940   5.5296550  71.6040720  83.6884930  11.0160480
  71.1671710  83.8685730  11.8484630  72.1718400  84.4459550  10.8742200
  87.2402900  83.1901930  15.3037790  86.6404890  83.2494490  14.5601710
  87.3696800  82.2506910  15.4334640  87.9360810  77.6767230   3.1441700
  88.6979720  78.2463880   3.2501390  87.9515180  77.1094430   3.9150010
  71.4365150  76.2005160   7.3749360  70.7813990  75.9316800   6.7309060
  72.2743100  76.0909640   6.9251340  88.9420780  78.5317330   7.9883630
  89.3129610  77.7484650   7.5819600  89.5822710  79.2206430   7.8100930
  85.9254540  79.9153910  13.4013950  85.1114380  80.3451070  13.6639740
  86.3328740  80.5272320  12.7883000  87.8845320  75.9070590   5.2943650
  87.5088920  75.1398520   4.8624940  87.1548440  76.2893290   5.7818580
  87.2744940  75.0542110  14.9283170  87.0431030  74.8254860  14.0281120
  87.5349490  75.9741660  14.8828060  85.7133010  70.2798540  17.7062870
  86.5903190  70.2881940  18.0896870  85.7253850  69.5429380  17.0955220
  70.6503230  73.4104090   3.3174690  69.7467310  73.6734290   3.1426350
  71.1343850  73.6815260   2.5374650  87.1596280  74.1328080   8.5950890
  87.6833760  73.6390730   7.9641060  87.7455700  74.2678440   9.3398460
  87.3386000  74.2167950  12.1170440  86.3888710  74.1831490  12.2315430
  87.5199010  75.1268060  11.8820210  86.6496250  73.3901430   4.5343300
  87.1455370  73.1572300   5.3192180  86.4512320  72.5513270   4.1180940
  72.5296790  67.7715150  10.1694340  73.1772980  67.2212530   9.7289500
  72.9498630  68.0258300  10.9910150  88.0783410  72.0262380   7.0680980
  87.9682690  71.8718420   8.0063250  88.8391000  71.4983320   6.8256390
  86.4249130  67.9656510  13.5263980  87.0621350  68.5790650  13.8923170
  86.5724020  68.0017170  12.5813210  89.0412170  70.6280960   2.9343830
  88.2463670  70.5626080   3.4636740  89.2455450  71.5631600   2.9229180
  85.9830590  84.6672510   6.9282220  86.5789660  84.3457080   6.2516640
  86.2408740  84.1944330   7.7195490  72.2828790  67.9270820  12.9119660
  71.9343610  68.3834640  13.6777840  71.9516490  67.0327950  12.9942090
  77.5899190  82.6550010  12.6782570  77.3490550  82.9224570  11.7913090
  78.5301830  82.8255740  12.7333430  79.7953610  69.1182700  16.4339080
  79.7342500  69.7104530  17.1834490  80.7353990  69.0108660  16.2889340
  82.4328170  68.7752760  16.0731370  83.0468580  69.0932050  15.4112450
  82.9777730  68.2901350  16.6927230  88.8503350  84.6744390  13.4793210
  88.3561630  85.0713260  12.7620340  88.2416640  84.0493600  13.8730490
  72.9549430  67.4547020  16.1870430  73.5032420  67.2735070  15.4236540
  73.0204740  66.6641130  16.7226740  73.7281190  84.0452670  14.1970630
  73.1341510  83.9137370  14.9360670  73.7205030  83.2090810  13.7312730
  83.1736210  67.3384900  12.4000660  82.2996050  67.6720010  12.1973590
  83.0646960  66.8658080  13.2252530  84.0808190  69.5455770  13.7842380
  83.7521550  68.7307530  13.4044110  85.0290490  69.5025580  13.6608070
  86.5342800  85.3167810  10.7579950  86.0745770  86.0683620  10.3837970
  85.9055260  84.5974280  10.6994750  76.9638520  83.6256050   9.9328080
  77.4803540  83.0143410   9.4076340  77.6135900  84.1284830  10.4239090
  79.7034020  84.5164540  10.7597060  79.9911830  84.2618840   9.8830070
  80.2157240  83.9641900  11.3502630  80.9211030  68.2554740  11.3393570
  80.1382820  68.7300240  11.6190330  80.6273960  67.3509570  11.2306750
  85.4732100  68.9577840   9.3842660  85.9140190  68.9022940   8.5364260
  85.2039690  69.8735850   9.4552840  87.3370670  68.5893080   7.3951480
  87.2759070  67.6454300   7.2482500  88.1162700  68.6973170   7.9404940
  71.6423420  84.7285440   6.3575430  71.4745460  84.0956120   7.0557320
  70.7757930  84.9344840   6.0069620  72.2651440  68.5602220   3.8607290
  73.0230800  68.6731100   3.2871320  71.8028610  69.3971420   3.8150720
  78.8065250  70.6741490   6.8509600  77.9939760  70.2998380   6.5105480
  79.3106890  69.9186570   7.1530790  83.3090230  67.3383940   8.0892670
  83.9119600  67.9104150   8.5641190  82.5683220  67.9023380   7.8666570
  86.4524830  67.7405500   3.3632950  86.6475460  68.6388950   3.6300380
  85.6654700  67.5092580   3.8565900  73.2486120  83.4218670   3.8025570
  72.7233740  83.8026700   3.0987530  73.1730700  84.0469440   4.5235280
  74.6376590  69.0866270   2.4009260  75.1669350  68.2996070   2.2717210
  75.2704910  69.7657460   2.6344790  76.8314430  68.8241410   5.4554650
  76.2017170  68.1228720   5.6224780  76.2919570  69.5845540   5.2387810
  79.7706380  85.4380640  18.1265260  80.6973690  85.2024910  18.1701220
  79.7556810  86.2652640  17.6451290  88.0051440  84.9806210   5.1239510
  88.1803630  84.2943950   4.4800430  87.3073010  85.5053260   4.7316180
  76.9569990  68.1025390  17.8907140  76.6754260  68.6058990  17.1267960
  77.3389690  67.3047140  17.5249270  75.8479090  85.3701050   2.6774820
  76.5797910  85.0860330   2.1298710  76.1072760  85.1314330   3.5674200
  75.0093880  81.4865780   2.6821150  74.3802760  81.9550880   3.2306980
  75.1241710  80.6415000   3.1167340  83.5585450  67.5178970  18.4687610
  83.4450900  67.8373580  19.3639130  84.3755190  67.9191480  18.1724890
  86.3383940  84.6650500  17.9506300  87.1309260  84.1699730  17.7432260
  86.6317090  85.3440640  18.5581910  82.4643600  56.7627950 101.4783290
  82.3837650  55.8482560 101.2075000  82.0508020  57.2595020 100.7723000
  80.5961640  58.5406970 103.3592560  79.8203740  58.0607410 103.6491130
  81.2474570  57.8612620 103.1848720  74.6127470  58.8526780 104.2368320
  73.7812350  58.5975490 104.6364830  75.2208450  58.9237550 104.9726240
  84.6169070  62.9467160 102.1391690  84.1550600  62.1754400 102.4678860
  85.4294620  62.9733230 102.6444140  74.5928730  62.8866870 104.4326340
  74.8956770  61.9964610 104.2536560  75.3372320  63.4437090 104.2048590
  73.0219420  53.8128670  98.0210710  72.1336120  54.1544640  97.9190590
  73.3060610  53.6128990  97.1291540  70.9852430  56.4134320 103.9050410
  71.5568540  55.6456520 103.9054050  70.9853970  56.7123080 102.9957020
  80.8432380  65.2325170 101.7595680  80.2243820  65.6882670 101.1890120
  81.6984160  65.3876630 101.3585380  80.0370630  61.2164160 103.3662720
  79.9678910  60.2754100 103.2051850  80.7990490  61.3065570 103.9385290
  72.2277300  51.8218680 105.6919340  72.0480140  50.9244430 105.9722100
  71.8257380  52.3690550 106.3666290  81.0675800  54.0234540 103.5931650
  81.4440620  53.1506420 103.4805320  80.9695310  54.3593240 102.7022090
  75.1980810  52.3960170  99.0549090  75.3047560  53.2963900  99.3617850
  74.2873170  52.3478140  98.7643740  84.8499920  51.5184980 100.5259990
  85.6709540  51.0281550 100.5685470  84.8834000  52.1082640 101.2791830
  72.8463970  54.3179180 104.3001680  73.5274080  54.5817550 104.9189080
  72.5312020  53.4780050 104.6339690  77.0388540  55.3646540 103.3874270
  77.5466760  55.8627510 104.0279290  77.5701780  54.5881740 103.2113630
  89.1399470  53.5351730 107.0903620  88.4351640  53.9233440 106.5718730
  89.4057390  54.2302020 107.6924550  75.3224640  50.0045100 107.6537690
  75.3243080  50.5217490 106.8483590  74.4928950  49.5275280 107.6307620
  81.7095730  60.1164410  99.1527590  81.0913000  60.5813860  98.5890310
  82.2218980  60.8091890  99.5697100  76.5727490  59.6440280 105.8311190
  76.2396870  60.2709200 106.4732260  76.7494170  60.1702160 105.0512860
  85.0861400  53.4585360 103.2987530  84.3816970  53.7470250 103.8790640
  85.4473560  54.2685470 102.9387090  75.0039970  51.7155060 105.6608140
  75.3456780  52.5597110 105.3662010  74.0655780  51.8638800 105.7773480
  75.7846590  61.6121080 107.6460370  76.4020590  62.2872160 107.3644820
  74.9239710  62.0209060 107.5547870  71.0778930  60.8020940  96.5267220
  70.7006910  61.2908040  95.7952120  71.3352000  61.4746220  97.1573750
  86.7024180  63.0760490 105.5615010  86.0187700  63.7459600 105.5531680
  87.2418470  63.2741140 104.7959870  88.1548320  52.9040150 103.6896740
  87.2073230  52.9379130 103.8212170  88.4798310  53.7179100 104.0746100
  78.6867860  49.2037330 101.9852730  78.9942840  48.6484220 101.2688230
  77.7568560  49.3381790 101.8025720  84.2382920  64.9204620 104.2760190
  84.2510080  64.5166910 103.4082450  83.6858140  65.6951910 104.1721620
  85.5328340  61.6420840  99.3650360  85.4224670  60.6995170  99.4899780
  85.5296590  62.0036480 100.2513120  83.6368360  59.8234460 105.6042800
  84.0537150  59.6094570 104.7696260  84.3608180  60.0807250 106.1751420
  81.0748620  57.2686160  98.7212850  80.1477900  57.2023540  98.9501320
  81.2273440  58.2066290  98.6068090  81.0617700  53.5403160  95.7180010
  80.1221370  53.7017120  95.8032470  81.3800960  54.2588840  95.1716000
  87.5830460  58.2221680 105.6959040  86.7549090  58.2914770 105.2209170
  88.1780940  58.8075990 105.2274870  85.1045910  58.8306460  99.2248100
  84.4858330  58.4926010  98.5774400  85.0870360  58.1866220  99.9327290
  84.5472470  55.0091000 106.6413910  84.1343650  55.8344710 106.8953900
  83.8148420  54.4236040 106.4490270  76.6805260  57.7950900 101.5032580
  76.2762260  57.0828150 101.0078480  76.7668380  57.4504140 102.3920620
  77.1486960  61.4818460 103.6671790  76.8515250  60.8763930 102.9879570
  78.0986780  61.5195770 103.5561150  75.3933880  54.5694110 105.2831620
  75.9448470  54.6789450 104.5084870  75.9077390  54.9431710 105.9986850
  85.2372570  65.0550330 107.3294890  84.7603130  65.8622520 107.1367500
  84.5534360  64.4028660 107.4821100  76.2405390  61.2200150 110.3179590
  75.3433920  61.4440120 110.5652990  76.2658260  61.3435090 109.3690990
  83.2810610  58.0693270  96.2320850  83.7203890  57.2315700  96.0858670
  83.9939030  58.7022670  96.3184990  75.0676610  58.0913470 108.8936960
  74.9284380  58.9636270 109.2624360  74.1857970  57.7486280 108.7484900
  81.3905990  63.0089340 100.2002090  81.8301900  63.7513670  99.7857480
  81.3292880  63.2515910 101.1241050  86.8627750  49.3236080  94.5461890
  86.5500410  49.4162910  95.4460960  87.6240220  49.9017110  94.4959320
  73.3809890  56.6895880  99.0039230  73.2607490  57.4157970  98.3920500
  73.0710780  55.9198790  98.5267140  71.0195260  59.8611020 104.8107870
  71.0975680  59.9959790 103.8663590  71.6336940  59.1526910 105.0035990
  72.2642890  61.5611210 101.2214050  71.8570970  61.7025800 100.3667650
  73.1555900  61.2771370 101.0185260  88.2205030  62.0075120 109.5586290
  88.3468090  61.7687000 108.6403470  88.2626410  61.1759660 110.0308370
  82.0821770  65.7103120 108.1281100  82.5966440  65.6211130 108.9303530
  81.2390850  66.0562820 108.4209010  84.0576170  65.9958460  97.5565100
  83.8977310  65.7061400  98.4546930  83.8922880  65.2198590  97.0210330
  76.5364550  65.7756990  99.3336720  76.3607030  64.8592530  99.1204520
  75.6820290  66.1344280  99.5734520  83.7602300  63.5046020  96.1163100
  83.0667460  63.5023310  95.4565380  84.5025160  63.0805340  95.6857270
  83.3252230  65.1308730 100.1911590  83.7809180  64.3498110 100.5050210
  83.6644750  65.8415550 100.7352770  88.0729040  54.0607580 110.5236030
  87.4573310  54.5687250 109.9951490  87.7525460  53.1605910 110.4661970
  71.0754780  60.9025190 107.3502330  71.2385820  60.4330550 106.5321700
  71.5407230  60.3948750 108.0151170  75.8473550  50.0330950 102.3862900
  75.4041700  50.8140490 102.0547420  76.4058540  50.3560840 103.0933840
  80.1343360  52.8999470 107.9898220  79.6722730  53.1082490 108.8018160
  79.7321470  52.0858820 107.6868890  85.1347870  54.1208420 109.1194880
  84.2841460  53.8214170 109.4403950  84.9749660  54.3650430 108.2078700
  78.9632370  49.6541650  97.2668730  78.3386550  49.6501520  97.9922040
  78.8762490  48.7872610  96.8704700  77.8849450  50.5778280 104.2452500
  78.1821780  51.4841110 104.1644520  78.4335010  50.0897060 103.6312070
  75.6387770  55.1564520 100.1144150  75.4128690  54.9401690 101.0190770
  74.8580300  55.5892980  99.7690120  82.8685530  55.1627890  98.7134800
  82.2694420  55.8863690  98.5298420  83.4165140  55.1004670  97.9311250
  78.0786980  56.0550100 110.7804420  77.9830580  55.1144830 110.6304820
  78.9218960  56.2765170 110.3852490  81.4750400  53.7991430 100.7438080
  81.8679970  54.1163630  99.9306770  81.8367250  52.9203310 100.8582600
  73.2097520  52.4663770 108.9338200  72.8160910  53.3138980 109.1410980
  72.5215920  51.8290140 109.1246840  70.5114570  50.3892230 102.9668280
  70.2227620  50.9595090 103.6793260  71.2560330  49.9096680 103.3299510
  82.0605540  56.3897180 104.8388860  81.3286660  56.8983990 105.1878960
  81.6629880  55.5727160 104.5377640  78.4982930  53.0651380 103.2441350
  78.5018990  52.6241330 102.3945890  79.3934050  53.3868710 103.3513170
  74.3485310  52.9477870 102.2035560  74.0085360  53.4253100 102.9602610
  73.5862630  52.4942990 101.8436660  78.5603080  54.0663460  96.2348110
  78.6815900  54.0249940  97.1833930  78.1751590  54.9287610  96.0794840
  82.5231450  51.8430860 104.2511800  82.5404190  52.2939510 105.0953650
  82.2747030  50.9436500 104.4645240  77.5724580  56.3764600  95.6331410
  77.0041480  55.9282850  95.0067320  78.2813580  56.7357380  95.0996560
  85.9502200  49.2563040 110.0898180  86.2747970  48.5252700 110.6156160
  85.9858710  48.9376680 109.1879170  72.6493760  60.2776620 109.5098140
  72.2648550  59.6370290 110.1081100  72.9605950  60.9812740 110.0792870
  78.7990900  57.1253160 104.9906760  79.1661030  56.6511730 105.7368100
  78.6095960  57.9994730 105.3315100  71.6631390  51.8696850 101.1200230
  71.3778310  51.5052520 101.9578850  71.6010250  51.1377310 100.5063370
  76.5890270  56.1661800 107.3090970  76.2847340  57.0453780 107.5341330
  77.5436730  56.2261590 107.3448410  75.1172060  60.3722790  97.9057820
  74.3434320  59.8320410  97.7456540  75.8466690  59.8529400  97.5675580
  85.8760040  59.3688150 103.6984210  86.5959160  59.8643440 103.3080320
  85.6741860  58.6906040 103.0538080  81.3369980  50.7626110  97.8413600
  80.5234590  50.2639280  97.7658910  81.1431930  51.6024360  97.4249950
  81.2578840  59.4397210 109.5853210  81.1916150  58.5192880 109.3310800
  80.6283980  59.5372650 110.2997850  84.0518370  55.1345760  96.1375760
  84.9397990  55.4462990  95.9627100  84.0223460  54.2618010  95.7456340
  75.1609460  60.0403170 101.5436630  75.6788130  59.2371430 101.4893520
  74.7093480  59.9782310 102.3853460  80.0478960  61.3069450  96.8163930
  80.3894660  62.0511680  96.3207250  79.2191670  61.6200570  97.1788760
  72.6454000  57.0064540 108.4562330  72.2868940  57.6718390 109.0435670
  72.3508560  56.1748090 108.8274950  81.1895570  62.2617780 109.3357010
  81.2040110  61.3298740 109.1175920  80.4820670  62.3477540 109.9746780
  86.3232640  56.4457600  95.6055620  86.2396360  56.8771820  94.7552060
  87.0426830  56.9055950  96.0382440  87.4006780  58.9025120 108.6825590
  86.6754970  59.4953900 108.4854980  87.9282240  58.8948660 107.8838960
  87.3519890  63.2999860  98.3337750  86.7096050  62.6455480  98.6081470
  86.9650550  63.7054950  97.5578420  82.9306370  60.6285290 102.1809440
  83.2830190  60.0313420 101.5210810  82.0468700  60.3029520 102.3517690
  79.0169650  61.3882980  99.5879850  79.7040780  61.9352190  99.9687440
  78.2302070  61.9323710  99.6229460  71.1562050  57.0055800  95.0796930
  72.0256900  57.2880600  95.3632850  70.6652370  57.8191670  94.9645740
  78.3196860  58.3929010  99.2005210  78.7759640  59.2034260  99.4265400
  77.9685070  58.0752150 100.0323700  80.6229470  63.9035350 106.4297510
  81.2671690  64.1094730 107.1070930  80.9858910  63.1423750 105.9768360
  74.2208640  48.7366660  99.6727730  74.0923270  48.7284560 100.6212650
  73.3970660  49.0749750  99.3218740  81.8961550  61.9067700 105.1474960
  82.5383780  61.2060860 105.2607130  82.4210900  62.6866140 104.9671850
  85.7417270  62.1916320  94.8714100  85.5154850  61.4746760  95.4638740
  85.3513470  61.9428760  94.0335850  83.6699170  62.7062600 108.3511020
  84.0055410  63.2929290 109.0288940  82.7499510  62.5755310 108.5808810
  71.5233300  66.2183180  95.6458560  71.8830940  66.8172520  94.9915830
  71.3825640  66.7643070  96.4193590  71.2202570  50.4957780 109.1334430
  70.5061090  50.6954700 109.7387040  71.6397610  49.7197350 109.5049230
  85.3233520  60.1088260  96.5328260  85.0355220  60.5700950  97.3206140
  86.1185690  59.6486030  96.8012480  71.5075160  64.4838040 110.1200960
  71.6166280  63.5432780 109.9796350  70.8555720  64.7492790 109.4714690
  77.5401920  63.6014380  96.4632230  77.5312020  64.3344070  95.8476740
  76.6200280  63.3545960  96.5559190  73.1408560  58.8229270  97.2078990
  72.5336510  59.5628170  97.2174290  73.6157910  58.9128630  96.3817190
  82.7141350  52.9880090 106.8835880  83.0822170  52.1675300 107.2115450
  81.8539550  53.0481980 107.2991530  86.0803380  51.9437030  97.6923440
  85.4516540  52.0482700  96.9781670  85.5855300  52.1633810  98.4817320
  80.5261520  63.6642620  95.1257420  80.6273500  63.4606610  94.1959400
  79.6263260  63.4100900  95.3305200  78.0487410  54.2222980  99.1081320
  77.3403560  54.6909320  99.5494930  78.3331890  53.5644990  99.7426510
  79.6743340  55.6419680 107.1073850  80.1728590  56.1165500 107.7725700
  79.8166290  54.7183200 107.3143880  82.0802840  50.9473640 100.5477110
  81.9570620  50.9659770  99.5986620  83.0287400  50.9952580 100.6675510
  79.1679630  66.1828940  99.8205090  79.4221130  66.1450330  98.8984460
  78.2192110  66.0562270  99.8133340  86.8810200  51.8587640 107.9502240
  86.3783800  52.5993040 108.2896050  87.6966860  52.2471640 107.6339030
  85.1732210  57.1020820 101.3963600  84.2322350  57.1171050 101.5711290
  85.4876280  56.3156780 101.8423900  75.1513850  58.7840420  94.9567560
  75.9177120  58.6721780  95.5192990  75.2288540  58.0878390  94.3044330
  73.8460610  56.2165490  95.6400450  73.9264200  55.2693000  95.7517850
  74.7380360  56.5472370  95.7461110  87.1757790  64.2729670 103.0717860
  87.3005210  65.0960840 103.5441670  88.0423350  64.0620400 102.7242010
  74.6475320  66.3660880 102.7434990  75.3837800  65.8176340 103.0143560
  75.0316240  67.2316890 102.6040980  71.5320800  62.4334450  98.6176500
  70.6060580  62.6755590  98.6081910  71.9977230  63.2608710  98.4961250
  77.7577630  65.5391190  94.5660560  78.5506240  65.8280020  94.1142350
  77.2381980  65.1083360  93.8873040  86.8107800  64.7661320  95.9897300
  86.5249310  64.3526460  95.1751480  86.6127350  65.6949030  95.8697820
  78.2755030  60.7594600  94.4302910  78.1705670  60.1446950  95.1564290
  78.1079250  60.2360490  93.6465920  78.4269350  59.4451400 110.4092140
  77.6615020  60.0136400 110.3246810  78.6085310  59.1527610 109.5160370
  81.5157760  59.8214630  95.0344900  80.9667860  60.2683930  95.6787640
  82.1377020  59.3163880  95.5582570  85.5692700  61.1756730 110.9667160
  86.3102170  61.5132490 110.4634620  84.8065380  61.3448790 110.4136930
  77.1832880  58.7805550  96.9310200  77.6049300  58.6145420  97.7741590
  77.3083720  57.9705780  96.4365340  75.3460300  54.7602100 109.7381180
  74.8156760  54.2693050 109.1104520  76.0148370  55.1886300 109.2039110
  79.6960520  57.8043160  94.1787300  80.2166180  57.0892180  93.8128450
  80.3428920  58.4429030  94.4787810  84.2438360  59.2271560 109.5022370
  84.6579380  59.3816640 110.3512790  83.3089360  59.3526780 109.6648150
  75.8332600  51.7264470 109.8178470  75.7389470  51.1085220 109.0929340
  75.2529990  52.4530760 109.5908380  78.5994040  50.2837710 106.8505860
  78.1511340  50.3061970 106.0051410  77.9659240  49.8856730 107.4476160
  79.0053590  59.1792040 107.4718300  79.4241700  60.0224770 107.2994540
  78.0862220  59.3164080 107.2425080  81.3417490  56.9108220 108.8556140
  81.4613700  56.3149360 109.5950980  82.2011490  56.9477910 108.4357440
  83.6805390  57.4645410 107.4318650  83.1540610  57.9888030 106.8283790
  84.0236730  58.0972800 108.0628380  76.8561010  65.4845050 108.5876030
  76.3182100  66.2091110 108.2684730  77.1094970  65.0075390 107.7973370
  78.1086260  53.4529570 110.1131960  78.6985950  53.1445420 110.8009780
  77.2906500  52.9809320 110.2691860  82.9279690  53.0695380 110.3464980
  82.2395210  52.4076920 110.2814970  83.6485710  52.6233650 110.7913440
  83.5580090  49.6647010  96.4055240  83.8382380  48.8214910  96.7614660
  82.7845820  49.8970120  96.9193990  79.7123220  66.7196260 108.8462680
  79.6381920  67.6231400 109.1535050  78.8102060  66.4008160 108.8184750
  80.2608550  65.8854770  96.4689040  81.1559340  66.2239740  96.4907800
  80.2926180  65.1634180  95.8413320  73.9004710  61.2581820  94.6976040
  74.3379580  61.8011490  95.3533620  74.3852440  60.4328770  94.7072380
  71.1150510  64.0470850 102.1496300  71.4453520  63.1791910 101.9174940
  71.5441510  64.2529370 102.9801260  75.7112430  62.3779860  99.8098270
  75.4107970  62.2544830 100.7102180  75.6049920  61.5188450  99.4014000
  71.6040720  64.9141440 104.8877930  71.1671710  65.0942240 105.7202080
  72.1718400  65.6716060 104.7459650  87.2402900  64.4158440 109.1755240
  86.6404890  64.4751000 108.4319160  87.3696800  63.4763420 109.3052090
  88.4804350  62.1576260  94.5124950  87.6497310  62.2252910  94.9832180
  88.6576180  63.0480380  94.2091810  87.9360810  58.9023740  97.0159150
  88.6979720  59.4720390  97.1218840  87.9515180  58.3350940  97.7867460
  71.4365150  57.4261670 101.2466810  70.7813990  57.1573310 100.6026510
  72.2743100  57.3166150 100.7968790  88.9420780  59.7573840 101.8601080
  89.3129610  58.9741160 101.4537050  89.5822710  60.4462940 101.6818380
  85.9254540  61.1410420 107.2731400  85.1114380  61.5707580 107.5357190
  86.3328740  61.7528830 106.6600450  87.9879980  59.1958110  94.1731670
  88.2628820  60.1036990  94.0450890  87.7990720  59.1320640  95.1093660
  84.3855590  52.2202960  95.4685300  84.8040470  52.0333940  94.6281960
  84.0791650  51.3682010  95.7788230  87.8845320  57.1327100  99.1661100
  87.5088920  56.3655030  98.7342390  87.1548440  57.5149800  99.6536030
  72.4741080  57.8114240 105.7870150  72.8414120  57.7241640 106.6666170
  71.9051900  57.0480790 105.6877010  87.2744940  56.2798620 108.8000620
  87.0431030  56.0511370 107.8998570  87.5349490  57.1998170 108.7545510
  72.0257080  54.7223330 109.6928570  71.1313130  54.6890090 110.0322280
  72.5654630  54.9210120 110.4579820  70.6503230  54.6360600  97.1892140
  69.7467310  54.8990800  97.0143800  71.1343850  54.9071770  96.4092100
  87.1596280  55.3584590 102.4668340  87.6833760  54.8647240 101.8358510
  87.7455700  55.4934950 103.2115910  87.3386000  55.4424460 105.9887890
  86.3888710  55.4088000 106.1032880  87.5199010  56.3524570 105.7537660
  86.6496250  54.6157940  98.4060750  87.1455370  54.3828810  99.1909630
  86.4512320  53.7769780  97.9898390  72.5296790  48.9971660 104.0411790
  73.1772980  48.4469040 103.6006950  72.9498630  49.2514810 104.8627600
  88.0783410  53.2518890 100.9398430  87.9682690  53.0974930 101.8780700
  88.8391000  52.7239830 100.6973840  86.4249130  49.1913020 107.3981430
  87.0621350  49.8047160 107.7640620  86.5724020  49.2273680 106.4530660
  88.9673680  51.0826810  94.1804570  89.8922990  50.9507990  93.9722860
  88.9449470  51.1619630  95.1341020  89.0412170  51.8537470  96.8061280
  88.2463670  51.7882590  97.3354190  89.2455450  52.7888110  96.7946630
  85.9830590  65.8929020 100.7999670  86.5789660  65.5713590 100.1234090
  86.2408740  65.4200840 101.5912940  72.2828790  49.1527330 106.7837110
  71.9343610  49.6091150 107.5495290  71.9516490  48.2584460 106.8659540
  77.5899190  63.8806520 106.5500020  77.3490550  64.1481080 105.6630540
  78.5301830  64.0512250 106.6050880  82.4328170  50.0009270 109.9448820
  83.0468580  50.3188560 109.2829900  82.9777730  49.5157860 110.5644680
  88.8503350  65.9000900 107.3510660  88.3561630  66.2969770 106.6337790
  88.2416640  65.2750110 107.7447940  72.9549430  48.6803530 110.0587880
  73.5032420  48.4991580 109.2953990  73.0204740  47.8897640 110.5944190
  73.7281190  65.2709180 108.0688080  73.1341510  65.1393880 108.8078120
  73.7205030  64.4347320 107.6030180  83.1736210  48.5641410 106.2718110
  82.2996050  48.8976520 106.0691040  83.0646960  48.0914590 107.0969980
  84.0808190  50.7712280 107.6559830  83.7521550  49.9564040 107.2761560
  85.0290490  50.7282090 107.5325520  86.5342800  66.5424320 104.6297400
  86.0745770  67.2940130 104.2555420  85.9055260  65.8230790 104.5712200
  73.3593420  62.6367560 107.0196120  72.6327480  62.0172850 106.9522070
  73.4202570  63.0308170 106.1494200  76.9638520  64.8512560 103.8045530
  77.4803540  64.2399920 103.2793790  77.6135900  65.3541340 104.2956540
  79.7034020  65.7421050 104.6314510  79.9911830  65.4875350 103.7547520
  80.2157240  65.1898410 105.2220080  80.9211030  49.4811250 105.2111020
  80.1382820  49.9556750 105.4907780  80.6273960  48.5766080 105.1024200
  85.4732100  50.1834350 103.2560110  85.9140190  50.1279450 102.4081710
  85.2039690  51.0992360 103.3270290  87.3370670  49.8149590 101.2668930
  87.2759070  48.8710810 101.1199950  88.1162700  49.9229680 101.8122390
  71.6423420  65.9541950 100.2292880  71.4745460  65.3212630 100.9274770
  70.7757930  66.1601350  99.8787070  78.8065250  51.8998000 100.7227050
  77.9939760  51.5254890 100.3822930  79.3106890  51.1443080 101.0248240
  83.3090230  48.5640450 101.9610120  83.9119600  49.1360660 102.4358640
  82.5683220  49.1279890 101.7384020  86.4524830  48.9662010  97.2350400
  86.6475460  49.8645460  97.5017830  85.6654700  48.7349090  97.7283350
  73.2486120  64.6475180  97.6743020  72.7233740  65.0283210  96.9704980
  73.1730700  65.2725950  98.3952730  76.8314430  50.0497920  99.3272100
  76.2017170  49.3485230  99.4942230  76.2919570  50.8102050  99.1105260
  88.0051440  66.2062720  98.9956960  88.1803630  65.5200460  98.3517880
  87.3073010  66.7309770  98.6033630  75.8479090  66.5957560  96.5492270
  76.5797910  66.3116840  96.0016160  76.1072760  66.3570840  97.4391650
  75.0093880  62.7122290  96.5538600  74.3802760  63.1807390  97.1024430
  75.1241710  61.8671510  96.9884790  82.4643600  56.7627950  82.7039800
  82.3837650  55.8482560  82.4331510  82.0508020  57.2595020  81.9979510
  84.6169070  62.9467160  83.3648200  84.1550600  62.1754400  83.6935370
  85.4294620  62.9733230  83.8700650  80.0370630  61.2164160  84.5919230
  79.9678910  60.2754100  84.4308360  80.7990490  61.3065570  85.1641800
  81.0675800  54.0234540  84.8188160  81.4440620  53.1506420  84.7061830
  80.9695310  54.3593240  83.9278600  84.8499920  51.5184980  81.7516500
  85.6709540  51.0281550  81.7941980  84.8834000  52.1082640  82.5048340
  89.1399470  53.5351730  88.3160130  88.4351640  53.9233440  87.7975240
  89.4057390  54.2302020  88.9181060  85.0861400  53.4585360  84.5244040
  84.3816970  53.7470250  85.1047150  85.4473560  54.2685470  84.1643600
  86.7024180  63.0760490  86.7871520  86.0187700  63.7459600  86.7788190
  87.2418470  63.2741140  86.0216380  88.1548320  52.9040150  84.9153250
  87.2073230  52.9379130  85.0468680  88.4798310  53.7179100  85.3002610
  84.2382920  64.9204620  85.5016700  84.2510080  64.5166910  84.6338960
  83.6858140  65.6951910  85.3978130  85.5328340  61.6420840  80.5906870
  85.4224670  60.6995170  80.7156290  85.5296590  62.0036480  81.4769630
  83.6368360  59.8234460  86.8299310  84.0537150  59.6094570  85.9952770
  84.3608180  60.0807250  87.4007930  87.5830460  58.2221680  86.9215550
  86.7549090  58.2914770  86.4465680  88.1780940  58.8075990  86.4531380
  85.1045910  58.8306460  80.4504610  84.4858330  58.4926010  79.8030910
  85.0870360  58.1866220  81.1583800  84.5472470  55.0091000  87.8670420
  84.1343650  55.8344710  88.1210410  83.8148420  54.4236040  87.6746780
  85.2372570  65.0550330  88.5551400  84.7603130  65.8622520  88.3624010
  84.5534360  64.4028660  88.7077610  76.2405390  61.2200150  91.5436100
  75.3433920  61.4440120  91.7909500  76.2658260  61.3435090  90.5947500
  83.2810610  58.0693270  77.4577360  83.7203890  57.2315700  77.3115180
  83.9939030  58.7022670  77.5441500  76.8656960  64.0335170  92.3278620
  76.8372390  64.4378120  91.4607050  76.7021930  63.1045530  92.1650220
  88.8171780  64.8162270  93.6242790  89.2931500  65.2945160  94.3031870
  89.4378940  64.7479760  92.8988290  88.2205030  62.0075120  90.7842800
  88.3468090  61.7687000  89.8659980  88.2626410  61.1759660  91.2564880
  82.0821770  65.7103120  89.3537610  82.5966440  65.6211130  90.1560040
  81.2390850  66.0562820  89.6465520  84.0576170  65.9958460  78.7821610
  83.8977310  65.7061400  79.6803440  83.8922880  65.2198590  78.2466840
  83.7602300  63.5046020  77.3419610  83.0667460  63.5023310  76.6821890
  84.5025160  63.0805340  76.9113780  88.0729040  54.0607580  91.7492540
  87.4573310  54.5687250  91.2208000  87.7525460  53.1605910  91.6918480
  85.1347870  54.1208420  90.3451390  84.2841460  53.8214170  90.6660460
  84.9749660  54.3650430  89.4335210  82.2297580  55.6210170  92.4450180
  82.5550990  54.7873920  92.1052410  83.0177910  56.1438690  92.5928510
  82.8685530  55.1627890  79.9391310  82.2694420  55.8863690  79.7554930
  83.4165140  55.1004670  79.1567760  81.4750400  53.7991430  81.9694590
  81.8679970  54.1163630  81.1563280  81.8367250  52.9203310  82.0839110
  70.5114570  50.3892230  84.1924790  70.2227620  50.9595090  84.9049770
  71.2560330  49.9096680  84.5556020  82.0605540  56.3897180  86.0645370
  81.3286660  56.8983990  86.4135470  81.6629880  55.5727160  85.7634150
  82.5231450  51.8430860  85.4768310  82.5404190  52.2939510  86.3210160
  82.2747030  50.9436500  85.6901750  85.9502200  49.2563040  91.3154690
  86.2747970  48.5252700  91.8412670  85.9858710  48.9376680  90.4135680
  72.6493760  60.2776620  90.7354650  72.2648550  59.6370290  91.3337610
  72.9605950  60.9812740  91.3049380  85.8760040  59.3688150  84.9240720
  86.5959160  59.8643440  84.5336830  85.6741860  58.6906040  84.2794590
  81.2578840  59.4397210  90.8109720  81.1916150  58.5192880  90.5567310
  80.6283980  59.5372650  91.5254360  84.0518370  55.1345760  77.3632270
  84.9397990  55.4462990  77.1883610  84.0223460  54.2618010  76.9712850
  81.1895570  62.2617780  90.5613520  81.2040110  61.3298740  90.3432430
  80.4820670  62.3477540  91.2003290  86.3232640  56.4457600  76.8312130
  86.2396360  56.8771820  75.9808570  87.0426830  56.9055950  77.2638950
  87.4006780  58.9025120  89.9082100  86.6754970  59.4953900  89.7111490
  87.9282240  58.8948660  89.1095470  87.3519890  63.2999860  79.5594260
  86.7096050  62.6455480  79.8337980  86.9650550  63.7054950  78.7834930
  82.9306370  60.6285290  83.4065950  83.2830190  60.0313420  82.7467320
  82.0468700  60.3029520  83.5774200  80.6229470  63.9035350  87.6554020
  81.2671690  64.1094730  88.3327440  80.9858910  63.1423750  87.2024870
  81.8961550  61.9067700  86.3731470  82.5383780  61.2060860  86.4863640
  82.4210900  62.6866140  86.1928360  85.7417270  62.1916320  76.0970610
  85.5154850  61.4746760  76.6895250  85.3513470  61.9428760  75.2592360
  83.6699170  62.7062600  89.5767530  84.0055410  63.2929290  90.2545450
  82.7499510  62.5755310  89.8065320  85.3233520  60.1088260  77.7584770
  85.0355220  60.5700950  78.5462650  86.1185690  59.6486030  78.0268990
  79.4987750  62.7553930  92.7455590  79.1784620  62.0363170  93.2901280
  78.8246110  63.4309000  92.8191650  82.7141350  52.9880090  88.1092390
  83.0822170  52.1675300  88.4371960  81.8539550  53.0481980  88.5248040
  78.0487410  54.2222980  80.3337830  77.3403560  54.6909320  80.7751440
  78.3331890  53.5644990  80.9683020  82.0802840  50.9473640  81.7733620
  81.9570620  50.9659770  80.8243130  83.0287400  50.9952580  81.8932020
  86.8810200  51.8587640  89.1758750  86.3783800  52.5993040  89.5152560
  87.6966860  52.2471640  88.8595540  85.1732210  57.1020820  82.6220110
  84.2322350  57.1171050  82.7967800  85.4876280  56.3156780  83.0680410
  87.1757790  64.2729670  84.2974370  87.3005210  65.0960840  84.7698180
  88.0423350  64.0620400  83.9498520  74.6475320  66.3660880  83.9691500
  75.3837800  65.8176340  84.2400070  75.0316240  67.2316890  83.8297490
  73.6533600  65.5506950  93.1577080  74.4546330  65.8719000  93.5712480
  73.1385420  65.1902530  93.8796990  82.4898230  61.6586820  93.1052490
  81.8836390  61.6818420  92.3648240  82.1852340  60.9269860  93.6419740
  83.9198600  65.3867110  91.7161900  84.8720350  65.3025130  91.6662140
  83.7726820  66.0508820  92.3895690  86.8107800  64.7661320  77.2153810
  86.5249310  64.3526460  76.4007990  86.6127350  65.6949030  77.0954330
  71.3731410  58.0380410  92.1013130  71.8770430  57.4587690  92.6729360
  70.6338830  58.3220640  92.6389500  78.4269350  59.4451400  91.6348650
  77.6615020  60.0136400  91.5503320  78.6085310  59.1527610  90.7416880
  85.5692700  61.1756730  92.1923670  86.3102170  61.5132490  91.6891130
  84.8065380  61.3448790  91.6393440  84.2438360  59.2271560  90.7278880
  84.6579380  59.3816640  91.5769300  83.3089360  59.3526780  90.8904660
  84.7160530  56.5667720  92.7318030  85.2981300  55.8120040  92.6438510
  84.8922300  57.0975160  91.9549510  79.0053590  59.1792040  88.6974810
  79.4241700  60.0224770  88.5251050  78.0862220  59.3164080  88.4681590
  81.3417490  56.9108220  90.0812650  81.4613700  56.3149360  90.8207490
  82.2011490  56.9477910  89.6613950  83.6805390  57.4645410  88.6575160
  83.1540610  57.9888030  88.0540300  84.0236730  58.0972800  89.2884890
  76.8561010  65.4845050  89.8132540  76.3182100  66.2091110  89.4941240
  77.1094970  65.0075390  89.0229880  82.9279690  53.0695380  91.5721490
  82.2395210  52.4076920  91.5071480  83.6485710  52.6233650  92.0169950
  79.7123220  66.7196260  90.0719190  79.6381920  67.6231400  90.3791560
  78.8102060  66.4008160  90.0441260  87.2402900  64.4158440  90.4011750
  86.6404890  64.4751000  89.6575670  87.3696800  63.4763420  90.5308600
  88.4804350  62.1576260  75.7381460  87.6497310  62.2252910  76.2088690
  88.6576180  63.0480380  75.4348320  87.9360810  58.9023740  78.2415660
  88.6979720  59.4720390  78.3475350  87.9515180  58.3350940  79.0123970
  88.9420780  59.7573840  83.0857590  89.3129610  58.9741160  82.6793560
  89.5822710  60.4462940  82.9074890  85.9254540  61.1410420  88.4987910
  85.1114380  61.5707580  88.7613700  86.3328740  61.7528830  87.8856960
  87.9879980  59.1958110  75.3988180  88.2628820  60.1036990  75.2707400
  87.7990720  59.1320640  76.3350170  87.8845320  57.1327100  80.3917610
  87.5088920  56.3655030  79.9598900  87.1548440  57.5149800  80.8792540
  87.2744940  56.2798620  90.0257130  87.0431030  56.0511370  89.1255080
  87.5349490  57.1998170  89.9802020  85.7133010  51.5055050  92.8036830
  86.5903190  51.5138450  93.1870830  85.7253850  50.7685890  92.1929180
  87.1596280  55.3584590  83.6924850  87.6833760  54.8647240  83.0615020
  87.7455700  55.4934950  84.4372420  87.3386000  55.4424460  87.2144400
  86.3888710  55.4088000  87.3289390  87.5199010  56.3524570  86.9794170
  86.6496250  54.6157940  79.6317260  87.1455370  54.3828810  80.4166140
  86.4512320  53.7769780  79.2154900  88.0783410  53.2518890  82.1654940
  87.9682690  53.0974930  83.1037210  88.8391000  52.7239830  81.9230350
  86.4249130  49.1913020  88.6237940  87.0621350  49.8047160  88.9897130
  86.5724020  49.2273680  87.6787170  85.9830590  65.8929020  82.0256180
  86.5789660  65.5713590  81.3490600  86.2408740  65.4200840  82.8169450
  73.8893160  62.3246930  92.1746810  73.8462790  61.9539840  93.0561270
  74.0204170  63.2624500  92.3148630  79.7953610  50.3439210  91.5313040
  79.7342500  50.9361040  92.2808450  80.7353990  50.2365170  91.3863300
  82.4328170  50.0009270  91.1705330  83.0468580  50.3188560  90.5086410
  82.9777730  49.5157860  91.7901190  88.8503350  65.9000900  88.5767170
  88.3561630  66.2969770  87.8594300  88.2416640  65.2750110  88.9704450
  83.1736210  48.5641410  87.4974620  82.2996050  48.8976520  87.2947550
  83.0646960  48.0914590  88.3226490  84.0808190  50.7712280  88.8816340
  83.7521550  49.9564040  88.5018070  85.0290490  50.7282090  88.7582030
  86.5342800  66.5424320  85.8553910  86.0745770  67.2940130  85.4811930
  85.9055260  65.8230790  85.7968710  79.7034020  65.7421050  85.8571020
  79.9911830  65.4875350  84.9804030  80.2157240  65.1898410  86.4476590
  80.9211030  49.4811250  86.4367530  80.1382820  49.9556750  86.7164290
  80.6273960  48.5766080  86.3280710  85.4732100  50.1834350  84.4816620
  85.9140190  50.1279450  83.6338220  85.2039690  51.0992360  84.5526800
  87.3370670  49.8149590  82.4925440  87.2759070  48.8710810  82.3456460
  88.1162700  49.9229680  83.0378900  83.3090230  48.5640450  83.1866630
  83.9119600  49.1360660  83.6615150  82.5683220  49.1279890  82.9640530
  79.7706380  66.6637150  93.2239220  80.6973690  66.4281420  93.2675180
  79.7556810  67.4909150  92.7425250  88.0051440  66.2062720  80.2213470
  88.1803630  65.5200460  79.5774390  87.3073010  66.7309770  79.8290140
  83.5585450  48.7435480  93.5661570  83.4450900  49.0630090  94.4613090
  84.3755190  49.1447990  93.2698850  86.3383940  65.8907010  93.0480260
  87.1309260  65.3956240  92.8406220  86.6317090  66.5697150  93.6555870
  82.4643600  56.7627950  63.9296310  82.3837650  55.8482560  63.6588020
  82.0508020  57.2595020  63.2236020  80.5961640  58.5406970  65.8105580
  79.8203740  58.0607410  66.1004150  81.2474570  57.8612620  65.6361740
  81.0675800  54.0234540  66.0444670  81.4440620  53.1506420  65.9318340
  80.9695310  54.3593240  65.1535110  85.0861400  53.4585360  65.7500550
  84.3816970  53.7470250  66.3303660  85.4473560  54.2685470  65.3900110
  86.7024180  63.0760490  68.0128030  86.0187700  63.7459600  68.0044700
  87.2418470  63.2741140  67.2472890  83.6368360  59.8234460  68.0555820
  84.0537150  59.6094570  67.2209280  84.3608180  60.0807250  68.6264440
  81.0748620  57.2686160  61.1725870  80.1477900  57.2023540  61.4014340
  81.2273440  58.2066290  61.0581110  87.5830460  58.2221680  68.1472060
  86.7549090  58.2914770  67.6722190  88.1780940  58.8075990  67.6787890
  84.5472470  55.0091000  69.0926930  84.1343650  55.8344710  69.3466920
  83.8148420  54.4236040  68.9003290  77.1486960  61.4818460  66.1184810
  76.8515250  60.8763930  65.4392590  78.0986780  61.5195770  66.0074170
  88.8171780  64.8162270  74.8499300  89.2931500  65.2945160  75.5288380
  89.4378940  64.7479760  74.1244800  88.2205030  62.0075120  72.0099310
  88.3468090  61.7687000  71.0916490  88.2626410  61.1759660  72.4821390
  75.8473550  50.0330950  64.8375920  75.4041700  50.8140490  64.5060440
  76.4058540  50.3560840  65.5446860  85.1347870  54.1208420  71.5707900
  84.2841460  53.8214170  71.8916970  84.9749660  54.3650430  70.6591720
  82.2297580  55.6210170  73.6706690  82.5550990  54.7873920  73.3308920
  83.0177910  56.1438690  73.8185020  77.8849450  50.5778280  66.6965520
  78.1821780  51.4841110  66.6157540  78.4335010  50.0897060  66.0825090
  81.4750400  53.7991430  63.1951100  81.8679970  54.1163630  62.3819790
  81.8367250  52.9203310  63.3095620  70.5114570  50.3892230  65.4181300
  70.2227620  50.9595090  66.1306280  71.2560330  49.9096680  65.7812530
  82.0605540  56.3897180  67.2901880  81.3286660  56.8983990  67.6391980
  81.6629880  55.5727160  66.9890660  78.4982930  53.0651380  65.6954370
  78.5018990  52.6241330  64.8458910  79.3934050  53.3868710  65.8026190
  78.7990900  57.1253160  67.4419780  79.1661030  56.6511730  68.1881120
  78.6095960  57.9994730  67.7828120  71.6631390  51.8696850  63.5713250
  71.3778310  51.5052520  64.4091870  71.6010250  51.1377310  62.9576390
  85.8760040  59.3688150  66.1497230  86.5959160  59.8643440  65.7593340
  85.6741860  58.6906040  65.5051100  87.4006780  58.9025120  71.1338610
  86.6754970  59.4953900  70.9368000  87.9282240  58.8948660  70.3351980
  74.2208640  48.7366660  62.1240750  74.0923270  48.7284560  63.0725670
  73.3970660  49.0749750  61.7731760  81.8961550  61.9067700  67.5987980
  82.5383780  61.2060860  67.7120150  82.4210900  62.6866140  67.4184870
  83.6699170  62.7062600  70.8024040  84.0055410  63.2929290  71.4801960
  82.7499510  62.5755310  71.0321830  82.7141350  52.9880090  69.3348900
  83.0822170  52.1675300  69.6628470  81.8539550  53.0481980  69.7504550
  78.0487410  54.2222980  61.5594340  77.3403560  54.6909320  62.0007950
  78.3331890  53.5644990  62.1939530  79.6743340  55.6419680  69.5586870
  80.1728590  56.1165500  70.2238720  79.8166290  54.7183200  69.7656900
  76.2522430  52.5308060  58.9345050  77.1012960  52.9678210  58.8685240
  75.8853700  52.8428320  59.7617110  85.1732210  57.1020820  63.8476620
  84.2322350  57.1171050  64.0224310  85.4876280  56.3156780  64.2936920
  87.1757790  64.2729670  65.5230880  87.3005210  65.0960840  65.9954690
  88.0423350  64.0620400  65.1755030  78.2755030  60.7594600  56.8815930
  78.1705670  60.1446950  57.6077310  78.1079250  60.2360490  56.0978940
  85.5692700  61.1756730  73.4180180  86.3102170  61.5132490  72.9147640
  84.8065380  61.3448790  72.8649950  84.2438360  59.2271560  71.9535390
  84.6579380  59.3816640  72.8025810  83.3089360  59.3526780  72.1161170
  84.7160530  56.5667720  73.9574540  85.2981300  55.8120040  73.8695020
  84.8922300  57.0975160  73.1806020  83.6805390  57.4645410  69.8831670
  83.1540610  57.9888030  69.2796810  84.0236730  58.0972800  70.5141400
  88.9420780  59.7573840  64.3114100  89.3129610  58.9741160  63.9050070
  89.5822710  60.4462940  64.1331400  85.9254540  61.1410420  69.7244420
  85.1114380  61.5707580  69.9870210  86.3328740  61.7528830  69.1113470
  87.2744940  56.2798620  71.2513640  87.0431030  56.0511370  70.3511590
  87.5349490  57.1998170  71.2058530  87.1596280  55.3584590  64.9181360
  87.6833760  54.8647240  64.2871530  87.7455700  55.4934950  65.6628930
  87.3386000  55.4424460  68.4400910  86.3888710  55.4088000  68.5545900
  87.5199010  56.3524570  68.2050680  78.8065250  51.8998000  63.1740070
  77.9939760  51.5254890  62.8335950  79.3106890  51.1443080  63.4761260
  76.8314430  50.0497920  61.7785120  76.2017170  49.3485230  61.9455250
  76.2919570  50.8102050  61.5618280  84.6169070  62.9467160  45.8161220
  84.1550600  62.1754400  46.1448390  85.4294620  62.9733230  46.3213670
  85.0861400  53.4585360  46.9757060  84.3816970  53.7470250  47.5560170
  85.4473560  54.2685470  46.6156620  85.5328340  61.6420840  43.0419890
  85.4224670  60.6995170  43.1669310  85.5296590  62.0036480  43.9282650
  83.6368360  59.8234460  49.2812330  84.0537150  59.6094570  48.4465790
  84.3608180  60.0807250  49.8520950  81.0617700  53.5403160  39.3949540
  80.1221370  53.7017120  39.4802000  81.3800960  54.2588840  38.8485530
  85.1045910  58.8306460  42.9017630  84.4858330  58.4926010  42.2543930
  85.0870360  58.1866220  43.6096820  84.5472470  55.0091000  50.3183440
  84.1343650  55.8344710  50.5723430  83.8148420  54.4236040  50.1259800
  76.2405390  61.2200150  53.9949120  75.3433920  61.4440120  54.2422520
  76.2658260  61.3435090  53.0460520  83.2810610  58.0693270  39.9090380
  83.7203890  57.2315700  39.7628200  83.9939030  58.7022670  39.9954520
  86.8627750  49.3236080  38.2231420  86.5500410  49.4162910  39.1230490
  87.6240220  49.9017110  38.1728850  88.8171780  64.8162270  56.0755810
  89.2931500  65.2945160  56.7544890  89.4378940  64.7479760  55.3501310
  88.2205030  62.0075120  53.2355820  88.3468090  61.7687000  52.3173000
  88.2626410  61.1759660  53.7077900  85.1347870  54.1208420  52.7964410
  84.2841460  53.8214170  53.1173480  84.9749660  54.3650430  51.8848230
  78.9632370  49.6541650  40.9438260  78.3386550  49.6501520  41.6691570
  78.8762490  48.7872610  40.5474230  82.8685530  55.1627890  42.3904330
  82.2694420  55.8863690  42.2067950  83.4165140  55.1004670  41.6080780
  78.5603080  54.0663460  39.9117640  78.6815900  54.0249940  40.8603460
  78.1751590  54.9287610  39.7564370  85.8760040  59.3688150  47.3753740
  86.5959160  59.8643440  46.9849850  85.6741860  58.6906040  46.7307610
  81.3369980  50.7626110  41.5183130  80.5234590  50.2639280  41.4428440
  81.1431930  51.6024360  41.1019480  84.0518370  55.1345760  39.8145290
  84.9397990  55.4462990  39.6396630  84.0223460  54.2618010  39.4225870
  86.3232640  56.4457600  39.2825150  86.2396360  56.8771820  38.4321590
  87.0426830  56.9055950  39.7151970  87.3519890  63.2999860  42.0107280
  86.7096050  62.6455480  42.2851000  86.9650550  63.7054950  41.2347950
  81.8961550  61.9067700  48.8244490  82.5383780  61.2060860  48.9376660
  82.4210900  62.6866140  48.6441380  85.7417270  62.1916320  38.5483630
  85.5154850  61.4746760  39.1408270  85.3513470  61.9428760  37.7105380
  85.3233520  60.1088260  40.2097790  85.0355220  60.5700950  40.9975670
  86.1185690  59.6486030  40.4782010  82.7141350  52.9880090  50.5605410
  83.0822170  52.1675300  50.8884980  81.8539550  53.0481980  50.9761060
  85.1732210  57.1020820  45.0733130  84.2322350  57.1171050  45.2480820
  85.4876280  56.3156780  45.5193430  87.1757790  64.2729670  46.7487390
  87.3005210  65.0960840  47.2211200  88.0423350  64.0620400  46.4011540
  86.8107800  64.7661320  39.6666830  86.5249310  64.3526460  38.8521010
  86.6127350  65.6949030  39.5467350  77.1832880  58.7805550  40.6079730
  77.6049300  58.6145420  41.4511120  77.3083720  57.9705780  40.1134870
  79.6960520  57.8043160  37.8556830  80.2166180  57.0892180  37.4897980
  80.3428920  58.4429030  38.1557340  83.6805390  57.4645410  51.1088180
  83.1540610  57.9888030  50.5053320  84.0236730  58.0972800  51.7397910
  83.5580090  49.6647010  40.0824770  83.8382380  48.8214910  40.4384190
  82.7845820  49.8970120  40.5963520  78.0959510  50.8974020  38.5271970
  77.7481510  50.2198010  37.9474420  78.2972280  50.4363530  39.3415360
  88.4804350  62.1576260  38.1894480  87.6497310  62.2252910  38.6601710
  88.6576180  63.0480380  37.8861340  87.9360810  58.9023740  40.6928680
  88.6979720  59.4720390  40.7988370  87.9515180  58.3350940  41.4636990
  85.9254540  61.1410420  50.9500930  85.1114380  61.5707580  51.2126720
  86.3328740  61.7528830  50.3369980  87.9879980  59.1958110  37.8501200
  88.2628820  60.1036990  37.7220420  87.7990720  59.1320640  38.7863190
  84.3855590  52.2202960  39.1454830  84.8040470  52.0333940  38.3051490
  84.0791650  51.3682010  39.4557760  87.8845320  57.1327100  42.8430630
  87.5088920  56.3655030  42.4111920  87.1548440  57.5149800  43.3305560
  86.6496250  54.6157940  42.0830280  87.1455370  54.3828810  42.8679160
  86.4512320  53.7769780  41.6667920  88.0783410  53.2518890  44.6167960
  87.9682690  53.0974930  45.5550230  88.8391000  52.7239830  44.3743370
  88.9673680  51.0826810  37.8574100  89.8922990  50.9507990  37.6492390
  88.9449470  51.1619630  38.8110550  89.0412170  51.8537470  40.4830810
  88.2463670  51.7882590  41.0123720  89.2455450  52.7888110  40.4716160
  85.9830590  65.8929020  44.4769200  86.5789660  65.5713590  43.8003620
  86.2408740  65.4200840  45.2682470  88.8503350  65.9000900  51.0280190
  88.3561630  66.2969770  50.3107320  88.2416640  65.2750110  51.4217470
  84.0808190  50.7712280  51.3329360  83.7521550  49.9564040  50.9531090
  85.0290490  50.7282090  51.2095050  86.4524830  48.9662010  40.9119930
  86.6475460  49.8645460  41.1787360  85.6654700  48.7349090  41.4052880
  88.0051440  66.2062720  42.6726490  88.1803630  65.5200460  42.0287410
  87.3073010  66.7309770  42.2803160  86.3383940  65.8907010  55.4993280
  87.1309260  65.3956240  55.2919240  86.6317090  66.5697150  56.1068890
  82.4643600  56.7627950  26.3809330  82.3837650  55.8482560  26.1101040
  82.0508020  57.2595020  25.6749040  80.5961640  58.5406970  28.2618600
  79.8203740  58.0607410  28.5517170  81.2474570  57.8612620  28.0874760
  74.6127470  58.8526780  29.1394360  73.7812350  58.5975490  29.5390870
  75.2208450  58.9237550  29.8752280  84.6169070  62.9467160  27.0417730
  84.1550600  62.1754400  27.3704900  85.4294620  62.9733230  27.5470180
  74.5928730  62.8866870  29.3352380  74.8956770  61.9964610  29.1562600
  75.3372320  63.4437090  29.1074630  73.0219420  53.8128670  22.9236750
  72.1336120  54.1544640  22.8216630  73.3060610  53.6128990  22.0317580
  70.9852430  56.4134320  28.8076450  71.5568540  55.6456520  28.8080090
  70.9853970  56.7123080  27.8983060  80.8432380  65.2325170  26.6621720
  80.2243820  65.6882670  26.0916160  81.6984160  65.3876630  26.2611420
  80.0370630  61.2164160  28.2688760  79.9678910  60.2754100  28.1077890
  80.7990490  61.3065570  28.8411330  72.2277300  51.8218680  30.5945380
  72.0480140  50.9244430  30.8748140  71.8257380  52.3690550  31.2692330
  81.0675800  54.0234540  28.4957690  81.4440620  53.1506420  28.3831360
  80.9695310  54.3593240  27.6048130  75.1980810  52.3960170  23.9575130
  75.3047560  53.2963900  24.2643890  74.2873170  52.3478140  23.6669780
  84.8499920  51.5184980  25.4286030  85.6709540  51.0281550  25.4711510
  84.8834000  52.1082640  26.1817870  72.8463970  54.3179180  29.2027720
  73.5274080  54.5817550  29.8215120  72.5312020  53.4780050  29.5365730
  77.0388540  55.3646540  28.2900310  77.5466760  55.8627510  28.9305330
  77.5701780  54.5881740  28.1139670  89.1399470  53.5351730  31.9929660
  88.4351640  53.9233440  31.4744770  89.4057390  54.2302020  32.5950590
  75.3224640  50.0045100  32.5563730  75.3243080  50.5217490  31.7509630
  74.4928950  49.5275280  32.5333660  81.7095730  60.1164410  24.0553630
  81.0913000  60.5813860  23.4916350  82.2218980  60.8091890  24.4723140
  76.5727490  59.6440280  30.7337230  76.2396870  60.2709200  31.3758300
  76.7494170  60.1702160  29.9538900  85.0861400  53.4585360  28.2013570
  84.3816970  53.7470250  28.7816680  85.4473560  54.2685470  27.8413130
  75.0039970  51.7155060  30.5634180  75.3456780  52.5597110  30.2688050
  74.0655780  51.8638800  30.6799520  75.7846590  61.6121080  32.5486410
  76.4020590  62.2872160  32.2670860  74.9239710  62.0209060  32.4573910
  71.0778930  60.8020940  21.4293260  70.7006910  61.2908040  20.6978160
  71.3352000  61.4746220  22.0599790  86.7024180  63.0760490  30.4641050
  86.0187700  63.7459600  30.4557720  87.2418470  63.2741140  29.6985910
  88.1548320  52.9040150  28.5922780  87.2073230  52.9379130  28.7238210
  88.4798310  53.7179100  28.9772140  78.6867860  49.2037330  26.8878770
  78.9942840  48.6484220  26.1714270  77.7568560  49.3381790  26.7051760
  84.2382920  64.9204620  29.1786230  84.2510080  64.5166910  28.3108490
  83.6858140  65.6951910  29.0747660  85.5328340  61.6420840  24.2676400
  85.4224670  60.6995170  24.3925820  85.5296590  62.0036480  25.1539160
  83.6368360  59.8234460  30.5068840  84.0537150  59.6094570  29.6722300
  84.3608180  60.0807250  31.0777460  81.0748620  57.2686160  23.6238890
  80.1477900  57.2023540  23.8527360  81.2273440  58.2066290  23.5094130
  81.0617700  53.5403160  20.6206050  80.1221370  53.7017120  20.7058510
  81.3800960  54.2588840  20.0742040  87.5830460  58.2221680  30.5985080
  86.7549090  58.2914770  30.1235210  88.1780940  58.8075990  30.1300910
  85.1045910  58.8306460  24.1274140  84.4858330  58.4926010  23.4800440
  85.0870360  58.1866220  24.8353330  84.5472470  55.0091000  31.5439950
  84.1343650  55.8344710  31.7979940  83.8148420  54.4236040  31.3516310
  76.6805260  57.7950900  26.4058620  76.2762260  57.0828150  25.9104520
  76.7668380  57.4504140  27.2946660  77.1486960  61.4818460  28.5697830
  76.8515250  60.8763930  27.8905610  78.0986780  61.5195770  28.4587190
  75.3933880  54.5694110  30.1857660  75.9448470  54.6789450  29.4110910
  75.9077390  54.9431710  30.9012890  85.2372570  65.0550330  32.2320930
  84.7603130  65.8622520  32.0393540  84.5534360  64.4028660  32.3847140
  76.2405390  61.2200150  35.2205630  75.3433920  61.4440120  35.4679030
  76.2658260  61.3435090  34.2717030  83.2810610  58.0693270  21.1346890
  83.7203890  57.2315700  20.9884710  83.9939030  58.7022670  21.2211030
  81.3905990  63.0089340  25.1028130  81.8301900  63.7513670  24.6883520
  81.3292880  63.2515910  26.0267090  86.8627750  49.3236080  19.4487930
  86.5500410  49.4162910  20.3487000  87.6240220  49.9017110  19.3985360
  73.3809890  56.6895880  23.9065270  73.2607490  57.4157970  23.2946540
  73.0710780  55.9198790  23.4293180  88.8171780  64.8162270  37.3012320
  89.2931500  65.2945160  37.9801400  89.4378940  64.7479760  36.5757820
  71.0195260  59.8611020  29.7133910  71.0975680  59.9959790  28.7689630
  71.6336940  59.1526910  29.9062030  72.2642890  61.5611210  26.1240090
  71.8570970  61.7025800  25.2693690  73.1555900  61.2771370  25.9211300
  88.2205030  62.0075120  34.4612330  88.3468090  61.7687000  33.5429510
  88.2626410  61.1759660  34.9334410  84.0576170  65.9958460  22.4591140
  83.8977310  65.7061400  23.3572970  83.8922880  65.2198590  21.9236370
  76.5364550  65.7756990  24.2362760  76.3607030  64.8592530  24.0230560
  75.6820290  66.1344280  24.4760560  83.7602300  63.5046020  21.0189140
  83.0667460  63.5023310  20.3591420  84.5025160  63.0805340  20.5883310
  83.3252230  65.1308730  25.0937630  83.7809180  64.3498110  25.4076250
  83.6644750  65.8415550  25.6378810  88.0729040  54.0607580  35.4262070
  87.4573310  54.5687250  34.8977530  87.7525460  53.1605910  35.3688010
  75.8473550  50.0330950  27.2888940  75.4041700  50.8140490  26.9573460
  76.4058540  50.3560840  27.9959880  80.1343360  52.8999470  32.8924260
  79.6722730  53.1082490  33.7044200  79.7321470  52.0858820  32.5894930
  85.1347870  54.1208420  34.0220920  84.2841460  53.8214170  34.3429990
  84.9749660  54.3650430  33.1104740  82.2297580  55.6210170  36.1219710
  82.5550990  54.7873920  35.7821940  83.0177910  56.1438690  36.2698040
  78.9632370  49.6541650  22.1694770  78.3386550  49.6501520  22.8948080
  78.8762490  48.7872610  21.7730740  77.8849450  50.5778280  29.1478540
  78.1821780  51.4841110  29.0670560  78.4335010  50.0897060  28.5338110
  75.6387770  55.1564520  25.0170190  75.4128690  54.9401690  25.9216810
  74.8580300  55.5892980  24.6716160  82.8685530  55.1627890  23.6160840
  82.2694420  55.8863690  23.4324460  83.4165140  55.1004670  22.8337290
  78.0786980  56.0550100  35.6830460  77.9830580  55.1144830  35.5330860
  78.9218960  56.2765170  35.2878530  81.4750400  53.7991430  25.6464120
  81.8679970  54.1163630  24.8332810  81.8367250  52.9203310  25.7608640
  73.2097520  52.4663770  33.8364240  72.8160910  53.3138980  34.0437020
  72.5215920  51.8290140  34.0272880  79.7842570  52.5498740  36.9060980
  79.0940890  52.3570940  37.5407070  80.5274870  52.8333380  37.4385280
  70.5114570  50.3892230  27.8694320  70.2227620  50.9595090  28.5819300
  71.2560330  49.9096680  28.2325550  70.6984800  54.3312350  19.0797040
  70.6159470  55.2743110  19.2212030  70.3467860  54.1887260  18.2009390
  82.0605540  56.3897180  29.7414900  81.3286660  56.8983990  30.0905000
  81.6629880  55.5727160  29.4403680  78.4982930  53.0651380  28.1467390
  78.5018990  52.6241330  27.2971930  79.3934050  53.3868710  28.2539210
  74.3485310  52.9477870  27.1061600  74.0085360  53.4253100  27.8628650
  73.5862630  52.4942990  26.7462700  78.5603080  54.0663460  21.1374150
  78.6815900  54.0249940  22.0859970  78.1751590  54.9287610  20.9820880
  82.5231450  51.8430860  29.1537840  82.5404190  52.2939510  29.9979690
  82.2747030  50.9436500  29.3671280  77.5724580  56.3764600  20.5357450
  77.0041480  55.9282850  19.9093360  78.2813580  56.7357380  20.0022600
  85.9502200  49.2563040  34.9924220  86.2747970  48.5252700  35.5182200
  85.9858710  48.9376680  34.0905210  78.7990900  57.1253160  29.8932800
  79.1661030  56.6511730  30.6394140  78.6095960  57.9994730  30.2341140
  71.6631390  51.8696850  26.0226270  71.3778310  51.5052520  26.8604890
  71.6010250  51.1377310  25.4089410  76.5890270  56.1661800  32.2117010
  76.2847340  57.0453780  32.4367370  77.5436730  56.2261590  32.2474450
  75.1172060  60.3722790  22.8083860  74.3434320  59.8320410  22.6482580
  75.8466690  59.8529400  22.4701620  85.8760040  59.3688150  28.6010250
  86.5959160  59.8643440  28.2106360  85.6741860  58.6906040  27.9564120
  81.3369980  50.7626110  22.7439640  80.5234590  50.2639280  22.6684950
  81.1431930  51.6024360  22.3275990  81.2578840  59.4397210  34.4879250
  81.1916150  58.5192880  34.2336840  80.6283980  59.5372650  35.2023890
  84.0518370  55.1345760  21.0401800  84.9397990  55.4462990  20.8653140
  84.0223460  54.2618010  20.6482380  75.1609460  60.0403170  26.4462670
  75.6788130  59.2371430  26.3919560  74.7093480  59.9782310  27.2879500
  80.0478960  61.3069450  21.7189970  80.3894660  62.0511680  21.2233290
  79.2191670  61.6200570  22.0814800  86.3232640  56.4457600  20.5081660
  86.2396360  56.8771820  19.6578100  87.0426830  56.9055950  20.9408480
  87.4006780  58.9025120  33.5851630  86.6754970  59.4953900  33.3881020
  87.9282240  58.8948660  32.7865000  87.3519890  63.2999860  23.2363790
  86.7096050  62.6455480  23.5107510  86.9650550  63.7054950  22.4604460
  82.9306370  60.6285290  27.0835480  83.2830190  60.0313420  26.4236850
  82.0468700  60.3029520  27.2543730  79.0169650  61.3882980  24.4905890
  79.7040780  61.9352190  24.8713480  78.2302070  61.9323710  24.5255500
  71.1562050  57.0055800  19.9822970  72.0256900  57.2880600  20.2658890
  70.6652370  57.8191670  19.8671780  78.3196860  58.3929010  24.1031250
  78.7759640  59.2034260  24.3291440  77.9685070  58.0752150  24.9349740
  74.2208640  48.7366660  24.5753770  74.0923270  48.7284560  25.5238690
  73.3970660  49.0749750  24.2244780  81.8961550  61.9067700  30.0501000
  82.5383780  61.2060860  30.1633170  82.4210900  62.6866140  29.8697890
  85.7417270  62.1916320  19.7740140  85.5154850  61.4746760  20.3664780
  85.3513470  61.9428760  18.9361890  71.5233300  66.2183180  20.5484600
  71.8830940  66.8172520  19.8941870  71.3825640  66.7643070  21.3219630
  71.2202570  50.4957780  34.0360470  70.5061090  50.6954700  34.6413080
  71.6397610  49.7197350  34.4075270  85.3233520  60.1088260  21.4354300
  85.0355220  60.5700950  22.2232180  86.1185690  59.6486030  21.7038520
  77.5401920  63.6014380  21.3658270  77.5312020  64.3344070  20.7502780
  76.6200280  63.3545960  21.4585230  73.1408560  58.8229270  22.1105030
  72.5336510  59.5628170  22.1200330  73.6157910  58.9128630  21.2843230
  82.7141350  52.9880090  31.7861920  83.0822170  52.1675300  32.1141490
  81.8539550  53.0481980  32.2017570  86.0803380  51.9437030  22.5949480
  85.4516540  52.0482700  21.8807710  85.5855300  52.1633810  23.3843360
  80.5261520  63.6642620  20.0283460  80.6273500  63.4606610  19.0985440
  79.6263260  63.4100900  20.2331240  78.0487410  54.2222980  24.0107360
  77.3403560  54.6909320  24.4520970  78.3331890  53.5644990  24.6452550
  79.6743340  55.6419680  32.0099890  80.1728590  56.1165500  32.6751740
  79.8166290  54.7183200  32.2169920  82.0802840  50.9473640  25.4503150
  81.9570620  50.9659770  24.5012660  83.0287400  50.9952580  25.5701550
  79.1679630  66.1828940  24.7231130  79.4221130  66.1450330  23.8010500
  78.2192110  66.0562270  24.7159380  76.2522430  52.5308060  21.3858070
  77.1012960  52.9678210  21.3198260  75.8853700  52.8428320  22.2130130
  86.8810200  51.8587640  32.8528280  86.3783800  52.5993040  33.1922090
  87.6966860  52.2471640  32.5365070  85.1732210  57.1020820  26.2989640
  84.2322350  57.1171050  26.4737330  85.4876280  56.3156780  26.7449940
  75.1513850  58.7840420  19.8593600  75.9177120  58.6721780  20.4219030
  75.2288540  58.0878390  19.2070370  73.8460610  56.2165490  20.5426490
  73.9264200  55.2693000  20.6543890  74.7380360  56.5472370  20.6487150
  87.1757790  64.2729670  27.9743900  87.3005210  65.0960840  28.4467710
  88.0423350  64.0620400  27.6268050  74.6475320  66.3660880  27.6461030
  75.3837800  65.8176340  27.9169600  75.0316240  67.2316890  27.5067020
  71.5320800  62.4334450  23.5202540  70.6060580  62.6755590  23.5107950
  71.9977230  63.2608710  23.3987290  77.7577630  65.5391190  19.4686600
  78.5506240  65.8280020  19.0168390  77.2381980  65.1083360  18.7899080
  86.8107800  64.7661320  20.8923340  86.5249310  64.3526460  20.0777520
  86.6127350  65.6949030  20.7723860  78.2755030  60.7594600  19.3328950
  78.1705670  60.1446950  20.0590330  78.1079250  60.2360490  18.5491960
  78.4269350  59.4451400  35.3118180  77.6615020  60.0136400  35.2272850
  78.6085310  59.1527610  34.4186410  81.5157760  59.8214630  19.9370940
  80.9667860  60.2683930  20.5813680  82.1377020  59.3163880  20.4608610
  85.5692700  61.1756730  35.8693200  86.3102170  61.5132490  35.3660660
  84.8065380  61.3448790  35.3162970  77.1832880  58.7805550  21.8336240
  77.6049300  58.6145420  22.6767630  77.3083720  57.9705780  21.3391380
  75.3460300  54.7602100  34.6407220  74.8156760  54.2693050  34.0130560
  76.0148370  55.1886300  34.1065150  79.6960520  57.8043160  19.0813340
  80.2166180  57.0892180  18.7154490  80.3428920  58.4429030  19.3813850
  84.2438360  59.2271560  34.4048410  84.6579380  59.3816640  35.2538830
  83.3089360  59.3526780  34.5674190  84.7160530  56.5667720  36.4087560
  85.2981300  55.8120040  36.3208040  84.8922300  57.0975160  35.6319040
  75.8332600  51.7264470  34.7204510  75.7389470  51.1085220  33.9955380
  75.2529990  52.4530760  34.4934420  78.5994040  50.2837710  31.7531900
  78.1511340  50.3061970  30.9077450  77.9659240  49.8856730  32.3502200
  79.0053590  59.1792040  32.3744340  79.4241700  60.0224770  32.2020580
  78.0862220  59.3164080  32.1451120  81.3417490  56.9108220  33.7582180
  81.4613700  56.3149360  34.4977020  82.2011490  56.9477910  33.3383480
  83.6805390  57.4645410  32.3344690  83.1540610  57.9888030  31.7309830
  84.0236730  58.0972800  32.9654420  76.0791780  54.8538780  18.7794400
  75.8780840  53.9906140  19.1407740  75.9083830  54.7672140  17.8416000
  78.1086260  53.4529570  35.0158000  78.6985950  53.1445420  35.7035820
  77.2906500  52.9809320  35.1717900  82.9279690  53.0695380  35.2491020
  82.2395210  52.4076920  35.1841010  83.6485710  52.6233650  35.6939480
  83.5580090  49.6647010  21.3081280  83.8382380  48.8214910  21.6640700
  82.7845820  49.8970120  21.8220030  74.8774580  51.9539400  18.7672280
  75.1800480  51.9606830  17.8591430  75.6169170  51.6037260  19.2639940
  78.0959510  50.8974020  19.7528480  77.7481510  50.2198010  19.1730930
  78.2972280  50.4363530  20.5671870  80.2608550  65.8854770  21.3715080
  81.1559340  66.2239740  21.3933840  80.2926180  65.1634180  20.7439360
  73.9004710  61.2581820  19.6002080  74.3379580  61.8011490  20.2559660
  74.3852440  60.4328770  19.6098420  71.1150510  64.0470850  27.0522340
  71.4453520  63.1791910  26.8200980  71.5441510  64.2529370  27.8827300
  75.7112430  62.3779860  24.7124310  75.4107970  62.2544830  25.6128220
  75.6049920  61.5188450  24.3040040  71.6040720  64.9141440  29.7903970
  71.1671710  65.0942240  30.6228120  72.1718400  65.6716060  29.6485690
  87.2402900  64.4158440  34.0781280  86.6404890  64.4751000  33.3345200
  87.3696800  63.4763420  34.2078130  88.4804350  62.1576260  19.4150990
  87.6497310  62.2252910  19.8858220  88.6576180  63.0480380  19.1117850
  87.9360810  58.9023740  21.9185190  88.6979720  59.4720390  22.0244880
  87.9515180  58.3350940  22.6893500  71.4365150  57.4261670  26.1492850
  70.7813990  57.1573310  25.5052550  72.2743100  57.3166150  25.6994830
  88.9420780  59.7573840  26.7627120  89.3129610  58.9741160  26.3563090
  89.5822710  60.4462940  26.5844420  85.9254540  61.1410420  32.1757440
  85.1114380  61.5707580  32.4383230  86.3328740  61.7528830  31.5626490
  87.9879980  59.1958110  19.0757710  88.2628820  60.1036990  18.9476930
  87.7990720  59.1320640  20.0119700  84.3855590  52.2202960  20.3711340
  84.8040470  52.0333940  19.5308000  84.0791650  51.3682010  20.6814270
  87.8845320  57.1327100  24.0687140  87.5088920  56.3655030  23.6368430
  87.1548440  57.5149800  24.5562070  72.4741080  57.8114240  30.6896190
  72.8414120  57.7241640  31.5692210  71.9051900  57.0480790  30.5903050
  87.2744940  56.2798620  33.7026660  87.0431030  56.0511370  32.8024610
  87.5349490  57.1998170  33.6571550  72.0257080  54.7223330  34.5954610
  71.1313130  54.6890090  34.9348320  72.5654630  54.9210120  35.3605860
  85.7133010  51.5055050  36.4806360  86.5903190  51.5138450  36.8640360
  85.7253850  50.7685890  35.8698710  70.6503230  54.6360600  22.0918180
  69.7467310  54.8990800  21.9169840  71.1343850  54.9071770  21.3118140
  87.1596280  55.3584590  27.3694380  87.6833760  54.8647240  26.7384550
  87.7455700  55.4934950  28.1141950  87.3386000  55.4424460  30.8913930
  86.3888710  55.4088000  31.0058920  87.5199010  56.3524570  30.6563700
  73.1930440  53.6926140  20.0012560  73.9022140  53.2709360  19.5159840
  72.4770380  53.7601370  19.3695910  72.8404600  49.7465470  19.0415210
  73.5632730  50.2874410  19.3596430  73.1129120  49.4728890  18.1656750
  86.6496250  54.6157940  23.3086790  87.1455370  54.3828810  24.0935670
  86.4512320  53.7769780  22.8924430  72.5296790  48.9971660  28.9437830
  73.1772980  48.4469040  28.5032990  72.9498630  49.2514810  29.7653640
  88.0783410  53.2518890  25.8424470  87.9682690  53.0974930  26.7806740
  88.8391000  52.7239830  25.5999880  86.4249130  49.1913020  32.3007470
  87.0621350  49.8047160  32.6666660  86.5724020  49.2273680  31.3556700
  88.9673680  51.0826810  19.0830610  89.8922990  50.9507990  18.8748900
  88.9449470  51.1619630  20.0367060  89.0412170  51.8537470  21.7087320
  88.2463670  51.7882590  22.2380230  89.2455450  52.7888110  21.6972670
  85.9830590  65.8929020  25.7025710  86.5789660  65.5713590  25.0260130
  86.2408740  65.4200840  26.4938980  72.2828790  49.1527330  31.6863150
  71.9343610  49.6091150  32.4521330  71.9516490  48.2584460  31.7685580
  77.5899190  63.8806520  31.4526060  77.3490550  64.1481080  30.5656580
  78.5301830  64.0512250  31.5076920  79.7953610  50.3439210  35.2082570
  79.7342500  50.9361040  35.9577980  80.7353990  50.2365170  35.0632830
  82.4328170  50.0009270  34.8474860  83.0468580  50.3188560  34.1855940
  82.9777730  49.5157860  35.4670720  88.8503350  65.9000900  32.2536700
  88.3561630  66.2969770  31.5363830  88.2416640  65.2750110  32.6473980
  72.9549430  48.6803530  34.9613920  73.5032420  48.4991580  34.1980030
  73.0204740  47.8897640  35.4970230  73.7281190  65.2709180  32.9714120
  73.1341510  65.1393880  33.7104160  73.7205030  64.4347320  32.5056220
  83.1736210  48.5641410  31.1744150  82.2996050  48.8976520  30.9717080
  83.0646960  48.0914590  31.9996020  84.0808190  50.7712280  32.5585870
  83.7521550  49.9564040  32.1787600  85.0290490  50.7282090  32.4351560
  86.5342800  66.5424320  29.5323440  86.0745770  67.2940130  29.1581460
  85.9055260  65.8230790  29.4738240  73.3593420  62.6367560  31.9222160
  72.6327480  62.0172850  31.8548110  73.4202570  63.0308170  31.0520240
  76.9638520  64.8512560  28.7071570  77.4803540  64.2399920  28.1819830
  77.6135900  65.3541340  29.1982580  79.7034020  65.7421050  29.5340550
  79.9911830  65.4875350  28.6573560  80.2157240  65.1898410  30.1246120
  80.9211030  49.4811250  30.1137060  80.1382820  49.9556750  30.3933820
  80.6273960  48.5766080  30.0050240  85.4732100  50.1834350  28.1586150
  85.9140190  50.1279450  27.3107750  85.2039690  51.0992360  28.2296330
  87.3370670  49.8149590  26.1694970  87.2759070  48.8710810  26.0225990
  88.1162700  49.9229680  26.7148430  71.6423420  65.9541950  25.1318920
  71.4745460  65.3212630  25.8300810  70.7757930  66.1601350  24.7813110
  72.2651440  49.7858730  22.6350780  73.0230800  49.8987610  22.0614810
  71.8028610  50.6227930  22.5894210  78.8065250  51.8998000  25.6253090
  77.9939760  51.5254890  25.2848970  79.3106890  51.1443080  25.9274280
  83.3090230  48.5640450  26.8636160  83.9119600  49.1360660  27.3384680
  82.5683220  49.1279890  26.6410060  86.4524830  48.9662010  22.1376440
  86.6475460  49.8645460  22.4043870  85.6654700  48.7349090  22.6309390
  73.2486120  64.6475180  22.5769060  72.7233740  65.0283210  21.8731020
  73.1730700  65.2725950  23.2978770  74.6376590  50.3122780  21.1752750
  75.1669350  49.5252580  21.0460700  75.2704910  50.9913970  21.4088280
  76.8314430  50.0497920  24.2298140  76.2017170  49.3485230  24.3968270
  76.2919570  50.8102050  24.0131300  88.0051440  66.2062720  23.8983000
  88.1803630  65.5200460  23.2543920  87.3073010  66.7309770  23.5059670
  76.9569990  49.3281900  36.6650630  76.6754260  49.8315500  35.9011450
  77.3389690  48.5303650  36.2992760  75.8479090  66.5957560  21.4518310
  76.5797910  66.3116840  20.9042200  76.1072760  66.3570840  22.3417690
  75.0093880  62.7122290  21.4564640  74.3802760  63.1807390  22.0050470
  75.1241710  61.8671510  21.8910830  83.5585450  48.7435480  37.2431100
  83.4450900  49.0630090  38.1382620  84.3755190  49.1447990  36.9468380
  86.3383940  65.8907010  36.7249790  87.1309260  65.3956240  36.5175750
  86.6317090  66.5697150  37.3325400  82.4643600  56.7627950   7.6065840
  82.3837650  55.8482560   7.3357550  82.0508020  57.2595020   6.9005550
  80.5961640  58.5406970   9.4875110  79.8203740  58.0607410   9.7773680
  81.2474570  57.8612620   9.3131270  74.6127470  58.8526780  10.3650870
  73.7812350  58.5975490  10.7647380  75.2208450  58.9237550  11.1008790
  84.6169070  62.9467160   8.2674240  84.1550600  62.1754400   8.5961410
  85.4294620  62.9733230   8.7726690  74.5928730  62.8866870  10.5608890
  74.8956770  61.9964610  10.3819110  75.3372320  63.4437090  10.3331140
  73.0219420  53.8128670   4.1493260  72.1336120  54.1544640   4.0473140
  73.3060610  53.6128990   3.2574090  70.9852430  56.4134320  10.0332960
  71.5568540  55.6456520  10.0336600  70.9853970  56.7123080   9.1239570
  80.8432380  65.2325170   7.8878230  80.2243820  65.6882670   7.3172670
  81.6984160  65.3876630   7.4867930  80.0370630  61.2164160   9.4945270
  79.9678910  60.2754100   9.3334400  80.7990490  61.3065570  10.0667840
  72.2277300  51.8218680  11.8201890  72.0480140  50.9244430  12.1004650
  71.8257380  52.3690550  12.4948840  81.0675800  54.0234540   9.7214200
  81.4440620  53.1506420   9.6087870  80.9695310  54.3593240   8.8304640
  75.1980810  52.3960170   5.1831640  75.3047560  53.2963900   5.4900400
  74.2873170  52.3478140   4.8926290  84.8499920  51.5184980   6.6542540
  85.6709540  51.0281550   6.6968020  84.8834000  52.1082640   7.4074380
  72.8463970  54.3179180  10.4284230  73.5274080  54.5817550  11.0471630
  72.5312020  53.4780050  10.7622240  77.0388540  55.3646540   9.5156820
  77.5466760  55.8627510  10.1561840  77.5701780  54.5881740   9.3396180
  89.1399470  53.5351730  13.2186170  88.4351640  53.9233440  12.7001280
  89.4057390  54.2302020  13.8207100  75.3224640  50.0045100  13.7820240
  75.3243080  50.5217490  12.9766140  74.4928950  49.5275280  13.7590170
  81.7095730  60.1164410   5.2810140  81.0913000  60.5813860   4.7172860
  82.2218980  60.8091890   5.6979650  76.5727490  59.6440280  11.9593740
  76.2396870  60.2709200  12.6014810  76.7494170  60.1702160  11.1795410
  85.0861400  53.4585360   9.4270080  84.3816970  53.7470250  10.0073190
  85.4473560  54.2685470   9.0669640  75.0039970  51.7155060  11.7890690
  75.3456780  52.5597110  11.4944560  74.0655780  51.8638800  11.9056030
  75.7846590  61.6121080  13.7742920  76.4020590  62.2872160  13.4927370
  74.9239710  62.0209060  13.6830420  71.0778930  60.8020940   2.6549770
  70.7006910  61.2908040   1.9234670  71.3352000  61.4746220   3.2856300
  86.7024180  63.0760490  11.6897560  86.0187700  63.7459600  11.6814230
  87.2418470  63.2741140  10.9242420  88.1548320  52.9040150   9.8179290
  87.2073230  52.9379130   9.9494720  88.4798310  53.7179100  10.2028650
  78.6867860  49.2037330   8.1135280  78.9942840  48.6484220   7.3970780
  77.7568560  49.3381790   7.9308270  84.2382920  64.9204620  10.4042740
  84.2510080  64.5166910   9.5365000  83.6858140  65.6951910  10.3004170
  85.5328340  61.6420840   5.4932910  85.4224670  60.6995170   5.6182330
  85.5296590  62.0036480   6.3795670  83.6368360  59.8234460  11.7325350
  84.0537150  59.6094570  10.8978810  84.3608180  60.0807250  12.3033970
  81.0748620  57.2686160   4.8495400  80.1477900  57.2023540   5.0783870
  81.2273440  58.2066290   4.7350640  81.0617700  53.5403160   1.8462560
  80.1221370  53.7017120   1.9315020  81.3800960  54.2588840   1.2998550
  87.5830460  58.2221680  11.8241590  86.7549090  58.2914770  11.3491720
  88.1780940  58.8075990  11.3557420  85.1045910  58.8306460   5.3530650
  84.4858330  58.4926010   4.7056950  85.0870360  58.1866220   6.0609840
  84.5472470  55.0091000  12.7696460  84.1343650  55.8344710  13.0236450
  83.8148420  54.4236040  12.5772820  76.6805260  57.7950900   7.6315130
  76.2762260  57.0828150   7.1361030  76.7668380  57.4504140   8.5203170
  77.1486960  61.4818460   9.7954340  76.8515250  60.8763930   9.1162120
  78.0986780  61.5195770   9.6843700  75.3933880  54.5694110  11.4114170
  75.9448470  54.6789450  10.6367420  75.9077390  54.9431710  12.1269400
  85.2372570  65.0550330  13.4577440  84.7603130  65.8622520  13.2650050
  84.5534360  64.4028660  13.6103650  76.2405390  61.2200150  16.4462140
  75.3433920  61.4440120  16.6935540  76.2658260  61.3435090  15.4973540
  83.2810610  58.0693270   2.3603400  83.7203890  57.2315700   2.2141220
  83.9939030  58.7022670   2.4467540  75.0676610  58.0913470  15.0219510
  74.9284380  58.9636270  15.3906910  74.1857970  57.7486280  14.8767450
  81.3905990  63.0089340   6.3284640  81.8301900  63.7513670   5.9140030
  81.3292880  63.2515910   7.2523600  76.8656960  64.0335170  17.2304660
  76.8372390  64.4378120  16.3633090  76.7021930  63.1045530  17.0676260
  73.3809890  56.6895880   5.1321780  73.2607490  57.4157970   4.5203050
  73.0710780  55.9198790   4.6549690  88.8171780  64.8162270  18.5268830
  89.2931500  65.2945160  19.2057910  89.4378940  64.7479760  17.8014330
  71.0195260  59.8611020  10.9390420  71.0975680  59.9959790   9.9946140
  71.6336940  59.1526910  11.1318540  72.2642890  61.5611210   7.3496600
  71.8570970  61.7025800   6.4950200  73.1555900  61.2771370   7.1467810
  88.2205030  62.0075120  15.6868840  88.3468090  61.7687000  14.7686020
  88.2626410  61.1759660  16.1590920  82.0821770  65.7103120  14.2563650
  82.5966440  65.6211130  15.0586080  81.2390850  66.0562820  14.5491560
  84.0576170  65.9958460   3.6847650  83.8977310  65.7061400   4.5829480
  83.8922880  65.2198590   3.1492880  76.5364550  65.7756990   5.4619270
  76.3607030  64.8592530   5.2487070  75.6820290  66.1344280   5.7017070
  83.7602300  63.5046020   2.2445650  83.0667460  63.5023310   1.5847930
  84.5025160  63.0805340   1.8139820  83.3252230  65.1308730   6.3194140
  83.7809180  64.3498110   6.6332760  83.6644750  65.8415550   6.8635320
  88.0729040  54.0607580  16.6518580  87.4573310  54.5687250  16.1234040
  87.7525460  53.1605910  16.5944520  71.0754780  60.9025190  13.4784880
  71.2385820  60.4330550  12.6604250  71.5407230  60.3948750  14.1433720
  75.8473550  50.0330950   8.5145450  75.4041700  50.8140490   8.1829970
  76.4058540  50.3560840   9.2216390  80.1343360  52.8999470  14.1180770
  79.6722730  53.1082490  14.9300710  79.7321470  52.0858820  13.8151440
  85.1347870  54.1208420  15.2477430  84.2841460  53.8214170  15.5686500
  84.9749660  54.3650430  14.3361250  82.2297580  55.6210170  17.3476220
  82.5550990  54.7873920  17.0078450  83.0177910  56.1438690  17.4954550
  78.9632370  49.6541650   3.3951280  78.3386550  49.6501520   4.1204590
  78.8762490  48.7872610   2.9987250  77.8849450  50.5778280  10.3735050
  78.1821780  51.4841110  10.2927070  78.4335010  50.0897060   9.7594620
  75.6387770  55.1564520   6.2426700  75.4128690  54.9401690   7.1473320
  74.8580300  55.5892980   5.8972670  82.8685530  55.1627890   4.8417350
  82.2694420  55.8863690   4.6580970  83.4165140  55.1004670   4.0593800
  78.0786980  56.0550100  16.9086970  77.9830580  55.1144830  16.7587370
  78.9218960  56.2765170  16.5135040  81.4750400  53.7991430   6.8720630
  81.8679970  54.1163630   6.0589320  81.8367250  52.9203310   6.9865150
  73.2097520  52.4663770  15.0620750  72.8160910  53.3138980  15.2693530
  72.5215920  51.8290140  15.2529390  79.7842570  52.5498740  18.1317490
  79.0940890  52.3570940  18.7663580  80.5274870  52.8333380  18.6641790
  70.5114570  50.3892230   9.0950830  70.2227620  50.9595090   9.8075810
  71.2560330  49.9096680   9.4582060  82.0605540  56.3897180  10.9671410
  81.3286660  56.8983990  11.3161510  81.6629880  55.5727160  10.6660190
  78.4982930  53.0651380   9.3723900  78.5018990  52.6241330   8.5228440
  79.3934050  53.3868710   9.4795720  74.3485310  52.9477870   8.3318110
  74.0085360  53.4253100   9.0885160  73.5862630  52.4942990   7.9719210
  78.5603080  54.0663460   2.3630660  78.6815900  54.0249940   3.3116480
  78.1751590  54.9287610   2.2077390  82.5231450  51.8430860  10.3794350
  82.5404190  52.2939510  11.2236200  82.2747030  50.9436500  10.5927790
  85.9502200  49.2563040  16.2180730  86.2747970  48.5252700  16.7438710
  85.9858710  48.9376680  15.3161720  72.6493760  60.2776620  15.6380690
  72.2648550  59.6370290  16.2363650  72.9605950  60.9812740  16.2075420
  78.7990900  57.1253160  11.1189310  79.1661030  56.6511730  11.8650650
  78.6095960  57.9994730  11.4597650  71.6631390  51.8696850   7.2482780
  71.3778310  51.5052520   8.0861400  71.6010250  51.1377310   6.6345920
  76.5890270  56.1661800  13.4373520  76.2847340  57.0453780  13.6623880
  77.5436730  56.2261590  13.4730960  75.1172060  60.3722790   4.0340370
  74.3434320  59.8320410   3.8739090  75.8466690  59.8529400   3.6958130
  85.8760040  59.3688150   9.8266760  86.5959160  59.8643440   9.4362870
  85.6741860  58.6906040   9.1820630  81.3369980  50.7626110   3.9696150
  80.5234590  50.2639280   3.8941460  81.1431930  51.6024360   3.5532500
  81.2578840  59.4397210  15.7135760  81.1916150  58.5192880  15.4593350
  80.6283980  59.5372650  16.4280400  84.0518370  55.1345760   2.2658310
  84.9397990  55.4462990   2.0909650  84.0223460  54.2618010   1.8738890
  75.1609460  60.0403170   7.6719180  75.6788130  59.2371430   7.6176070
  74.7093480  59.9782310   8.5136010  80.0478960  61.3069450   2.9446480
  80.3894660  62.0511680   2.4489800  79.2191670  61.6200570   3.3071310
  72.6454000  57.0064540  14.5844880  72.2868940  57.6718390  15.1718220
  72.3508560  56.1748090  14.9557500  75.8467120  57.4648780  17.4684430
  75.5467260  57.6105960  16.5712250  76.6178360  56.9054070  17.3757820
  81.1895570  62.2617780  15.4639560  81.2040110  61.3298740  15.2458470
  80.4820670  62.3477540  16.1029330  87.4006780  58.9025120  14.8108140
  86.6754970  59.4953900  14.6137530  87.9282240  58.8948660  14.0121510
  87.3519890  63.2999860   4.4620300  86.7096050  62.6455480   4.7364020
  86.9650550  63.7054950   3.6860970  82.9306370  60.6285290   8.3091990
  83.2830190  60.0313420   7.6493360  82.0468700  60.3029520   8.4800240
  79.0169650  61.3882980   5.7162400  79.7040780  61.9352190   6.0969990
  78.2302070  61.9323710   5.7512010  78.3196860  58.3929010   5.3287760
  78.7759640  59.2034260   5.5547950  77.9685070  58.0752150   6.1606250
  80.6229470  63.9035350  12.5580060  81.2671690  64.1094730  13.2353480
  80.9858910  63.1423750  12.1050910  74.2208640  48.7366660   5.8010280
  74.0923270  48.7284560   6.7495200  73.3970660  49.0749750   5.4501290
  81.8961550  61.9067700  11.2757510  82.5383780  61.2060860  11.3889680
  82.4210900  62.6866140  11.0954400  83.6699170  62.7062600  14.4793570
  84.0055410  63.2929290  15.1571490  82.7499510  62.5755310  14.7091360
  71.2202570  50.4957780  15.2616980  70.5061090  50.6954700  15.8669590
  71.6397610  49.7197350  15.6331780  85.3233520  60.1088260   2.6610810
  85.0355220  60.5700950   3.4488690  86.1185690  59.6486030   2.9295030
  71.5075160  64.4838040  16.2483510  71.6166280  63.5432780  16.1078900
  70.8555720  64.7492790  15.5997240  79.4987750  62.7553930  17.6481630
  79.1784620  62.0363170  18.1927320  78.8246110  63.4309000  17.7217690
  77.5401920  63.6014380   2.5914780  77.5312020  64.3344070   1.9759290
  76.6200280  63.3545960   2.6841740  73.1408560  58.8229270   3.3361540
  72.5336510  59.5628170   3.3456840  73.6157910  58.9128630   2.5099740
  82.7141350  52.9880090  13.0118430  83.0822170  52.1675300  13.3398000
  81.8539550  53.0481980  13.4274080  86.0803380  51.9437030   3.8205990
  85.4516540  52.0482700   3.1064220  85.5855300  52.1633810   4.6099870
  78.0487410  54.2222980   5.2363870  77.3403560  54.6909320   5.6777480
  78.3331890  53.5644990   5.8709060  79.6743340  55.6419680  13.2356400
  80.1728590  56.1165500  13.9008250  79.8166290  54.7183200  13.4426430
  82.0802840  50.9473640   6.6759660  81.9570620  50.9659770   5.7269170
  83.0287400  50.9952580   6.7958060  79.1679630  66.1828940   5.9487640
  79.4221130  66.1450330   5.0267010  78.2192110  66.0562270   5.9415890
  76.2522430  52.5308060   2.6114580  77.1012960  52.9678210   2.5454770
  75.8853700  52.8428320   3.4386640  86.8810200  51.8587640  14.0784790
  86.3783800  52.5993040  14.4178600  87.6966860  52.2471640  13.7621580
  85.1732210  57.1020820   7.5246150  84.2322350  57.1171050   7.6993840
  85.4876280  56.3156780   7.9706450  73.8460610  56.2165490   1.7683000
  73.9264200  55.2693000   1.8800400  74.7380360  56.5472370   1.8743660
  87.1757790  64.2729670   9.2000410  87.3005210  65.0960840   9.6724220
  88.0423350  64.0620400   8.8524560  74.6475320  66.3660880   8.8717540
  75.3837800  65.8176340   9.1426110  75.0316240  67.2316890   8.7323530
  71.5320800  62.4334450   4.7459050  70.6060580  62.6755590   4.7364460
  71.9977230  63.2608710   4.6243800  73.6533600  65.5506950  18.0603120
  74.4546330  65.8719000  18.4738520  73.1385420  65.1902530  18.7823030
  82.4898230  61.6586820  18.0078530  81.8836390  61.6818420  17.2674280
  82.1852340  60.9269860  18.5445780  83.9198600  65.3867110  16.6187940
  84.8720350  65.3025130  16.5688180  83.7726820  66.0508820  17.2921730
  86.8107800  64.7661320   2.1179850  86.5249310  64.3526460   1.3034030
  86.6127350  65.6949030   1.9980370  71.3731410  58.0380410  17.0039170
  71.8770430  57.4587690  17.5755400  70.6338830  58.3220640  17.5415540
  78.4269350  59.4451400  16.5374690  77.6615020  60.0136400  16.4529360
  78.6085310  59.1527610  15.6442920  85.5692700  61.1756730  17.0949710
  86.3102170  61.5132490  16.5917170  84.8065380  61.3448790  16.5419480
  73.4054490  56.1810000  17.8989240  73.4459830  55.8823870  18.8074470
  74.2599990  56.5817610  17.7396760  77.1832880  58.7805550   3.0592750
  77.6049300  58.6145420   3.9024140  77.3083720  57.9705780   2.5647890
  75.3460300  54.7602100  15.8663730  74.8156760  54.2693050  15.2387070
  76.0148370  55.1886300  15.3321660  84.2438360  59.2271560  15.6304920
  84.6579380  59.3816640  16.4795340  83.3089360  59.3526780  15.7930700
  84.7160530  56.5667720  17.6344070  85.2981300  55.8120040  17.5464550
  84.8922300  57.0975160  16.8575550  75.8332600  51.7264470  15.9461020
  75.7389470  51.1085220  15.2211890  75.2529990  52.4530760  15.7190930
  78.5994040  50.2837710  12.9788410  78.1511340  50.3061970  12.1333960
  77.9659240  49.8856730  13.5758710  79.0053590  59.1792040  13.6000850
  79.4241700  60.0224770  13.4277090  78.0862220  59.3164080  13.3707630
  81.3417490  56.9108220  14.9838690  81.4613700  56.3149360  15.7233530
  82.2011490  56.9477910  14.5639990  83.6805390  57.4645410  13.5601200
  83.1540610  57.9888030  12.9566340  84.0236730  58.0972800  14.1910930
  76.8561010  65.4845050  14.7158580  76.3182100  66.2091110  14.3967280
  77.1094970  65.0075390  13.9255920  78.1086260  53.4529570  16.2414510
  78.6985950  53.1445420  16.9292330  77.2906500  52.9809320  16.3974410
  82.9279690  53.0695380  16.4747530  82.2395210  52.4076920  16.4097520
  83.6485710  52.6233650  16.9195990  83.5580090  49.6647010   2.5337790
  83.8382380  48.8214910   2.8897210  82.7845820  49.8970120   3.0476540
  79.7123220  66.7196260  14.9745230  79.6381920  67.6231400  15.2817600
  78.8102060  66.4008160  14.9467300  80.2608550  65.8854770   2.5971590
  81.1559340  66.2239740   2.6190350  80.2926180  65.1634180   1.9695870
  71.1150510  64.0470850   8.2778850  71.4453520  63.1791910   8.0457490
  71.5441510  64.2529370   9.1083810  75.7112430  62.3779860   5.9380820
  75.4107970  62.2544830   6.8384730  75.6049920  61.5188450   5.5296550
  71.6040720  64.9141440  11.0160480  71.1671710  65.0942240  11.8484630
  72.1718400  65.6716060  10.8742200  87.2402900  64.4158440  15.3037790
  86.6404890  64.4751000  14.5601710  87.3696800  63.4763420  15.4334640
  87.9360810  58.9023740   3.1441700  88.6979720  59.4720390   3.2501390
  87.9515180  58.3350940   3.9150010  71.4365150  57.4261670   7.3749360
  70.7813990  57.1573310   6.7309060  72.2743100  57.3166150   6.9251340
  88.9420780  59.7573840   7.9883630  89.3129610  58.9741160   7.5819600
  89.5822710  60.4462940   7.8100930  85.9254540  61.1410420  13.4013950
  85.1114380  61.5707580  13.6639740  86.3328740  61.7528830  12.7883000
  87.8845320  57.1327100   5.2943650  87.5088920  56.3655030   4.8624940
  87.1548440  57.5149800   5.7818580  72.4741080  57.8114240  11.9152700
  72.8414120  57.7241640  12.7948720  71.9051900  57.0480790  11.8159560
  87.2744940  56.2798620  14.9283170  87.0431030  56.0511370  14.0281120
  87.5349490  57.1998170  14.8828060  72.0257080  54.7223330  15.8211120
  71.1313130  54.6890090  16.1604830  72.5654630  54.9210120  16.5862370
  85.7133010  51.5055050  17.7062870  86.5903190  51.5138450  18.0896870
  85.7253850  50.7685890  17.0955220  70.6503230  54.6360600   3.3174690
  69.7467310  54.8990800   3.1426350  71.1343850  54.9071770   2.5374650
  87.1596280  55.3584590   8.5950890  87.6833760  54.8647240   7.9641060
  87.7455700  55.4934950   9.3398460  87.3386000  55.4424460  12.1170440
  86.3888710  55.4088000  12.2315430  87.5199010  56.3524570  11.8820210
  86.6496250  54.6157940   4.5343300  87.1455370  54.3828810   5.3192180
  86.4512320  53.7769780   4.1180940  72.5296790  48.9971660  10.1694340
  73.1772980  48.4469040   9.7289500  72.9498630  49.2514810  10.9910150
  88.0783410  53.2518890   7.0680980  87.9682690  53.0974930   8.0063250
  88.8391000  52.7239830   6.8256390  86.4249130  49.1913020  13.5263980
  87.0621350  49.8047160  13.8923170  86.5724020  49.2273680  12.5813210
  89.0412170  51.8537470   2.9343830  88.2463670  51.7882590   3.4636740
  89.2455450  52.7888110   2.9229180  85.9830590  65.8929020   6.9282220
  86.5789660  65.5713590   6.2516640  86.2408740  65.4200840   7.7195490
  72.2828790  49.1527330  12.9119660  71.9343610  49.6091150  13.6777840
  71.9516490  48.2584460  12.9942090  73.8893160  62.3246930  17.0772850
  73.8462790  61.9539840  17.9587310  74.0204170  63.2624500  17.2174670
  77.5899190  63.8806520  12.6782570  77.3490550  64.1481080  11.7913090
  78.5301830  64.0512250  12.7333430  79.7953610  50.3439210  16.4339080
  79.7342500  50.9361040  17.1834490  80.7353990  50.2365170  16.2889340
  82.4328170  50.0009270  16.0731370  83.0468580  50.3188560  15.4112450
  82.9777730  49.5157860  16.6927230  88.8503350  65.9000900  13.4793210
  88.3561630  66.2969770  12.7620340  88.2416640  65.2750110  13.8730490
  72.9549430  48.6803530  16.1870430  73.5032420  48.4991580  15.4236540
  73.0204740  47.8897640  16.7226740  73.7281190  65.2709180  14.1970630
  73.1341510  65.1393880  14.9360670  73.7205030  64.4347320  13.7312730
  83.1736210  48.5641410  12.4000660  82.2996050  48.8976520  12.1973590
  83.0646960  48.0914590  13.2252530  84.0808190  50.7712280  13.7842380
  83.7521550  49.9564040  13.4044110  85.0290490  50.7282090  13.6608070
  86.5342800  66.5424320  10.7579950  86.0745770  67.2940130  10.3837970
  85.9055260  65.8230790  10.6994750  73.3593420  62.6367560  13.1478670
  72.6327480  62.0172850  13.0804620  73.4202570  63.0308170  12.2776750
  76.9638520  64.8512560   9.9328080  77.4803540  64.2399920   9.4076340
  77.6135900  65.3541340  10.4239090  79.7034020  65.7421050  10.7597060
  79.9911830  65.4875350   9.8830070  80.2157240  65.1898410  11.3502630
  80.9211030  49.4811250  11.3393570  80.1382820  49.9556750  11.6190330
  80.6273960  48.5766080  11.2306750  85.4732100  50.1834350   9.3842660
  85.9140190  50.1279450   8.5364260  85.2039690  51.0992360   9.4552840
  87.3370670  49.8149590   7.3951480  87.2759070  48.8710810   7.2482500
  88.1162700  49.9229680   7.9404940  71.6423420  65.9541950   6.3575430
  71.4745460  65.3212630   7.0557320  70.7757930  66.1601350   6.0069620
  72.2651440  49.7858730   3.8607290  73.0230800  49.8987610   3.2871320
  71.8028610  50.6227930   3.8150720  78.8065250  51.8998000   6.8509600
  77.9939760  51.5254890   6.5105480  79.3106890  51.1443080   7.1530790
  83.3090230  48.5640450   8.0892670  83.9119600  49.1360660   8.5641190
  82.5683220  49.1279890   7.8666570  86.4524830  48.9662010   3.3632950
  86.6475460  49.8645460   3.6300380  85.6654700  48.7349090   3.8565900
  73.2486120  64.6475180   3.8025570  72.7233740  65.0283210   3.0987530
  73.1730700  65.2725950   4.5235280  74.6376590  50.3122780   2.4009260
  75.1669350  49.5252580   2.2717210  75.2704910  50.9913970   2.6344790
  76.8314430  50.0497920   5.4554650  76.2017170  49.3485230   5.6224780
  76.2919570  50.8102050   5.2387810  79.7706380  66.6637150  18.1265260
  80.6973690  66.4281420  18.1701220  79.7556810  67.4909150  17.6451290
  88.0051440  66.2062720   5.1239510  88.1803630  65.5200460   4.4800430
  87.3073010  66.7309770   4.7316180  76.9569990  49.3281900  17.8907140
  76.6754260  49.8315500  17.1267960  77.3389690  48.5303650  17.5249270
  75.8479090  66.5957560   2.6774820  76.5797910  66.3116840   2.1298710
  76.1072760  66.3570840   3.5674200  75.0093880  62.7122290   2.6821150
  74.3802760  63.1807390   3.2306980  75.1241710  61.8671510   3.1167340
  83.5585450  48.7435480  18.4687610  83.4450900  49.0630090  19.3639130
  84.3755190  49.1447990  18.1724890  86.3383940  65.8907010  17.9506300
  87.1309260  65.3956240  17.7432260  86.6317090  66.5697150  18.5581910
  82.4643600  37.9884460 101.4783290  82.3837650  37.0739070 101.2075000
  82.0508020  38.4851530 100.7723000  80.5961640  39.7663480 103.3592560
  79.8203740  39.2863920 103.6491130  81.2474570  39.0869130 103.1848720
  74.6127470  40.0783290 104.2368320  73.7812350  39.8232000 104.6364830
  75.2208450  40.1494060 104.9726240  84.6169070  44.1723670 102.1391690
  84.1550600  43.4010910 102.4678860  85.4294620  44.1989740 102.6444140
  74.5928730  44.1123380 104.4326340  74.8956770  43.2221120 104.2536560
  75.3372320  44.6693600 104.2048590  73.0219420  35.0385180  98.0210710
  72.1336120  35.3801150  97.9190590  73.3060610  34.8385500  97.1291540
  70.9852430  37.6390830 103.9050410  71.5568540  36.8713030 103.9054050
  70.9853970  37.9379590 102.9957020  80.8432380  46.4581680 101.7595680
  80.2243820  46.9139180 101.1890120  81.6984160  46.6133140 101.3585380
  80.0370630  42.4420670 103.3662720  79.9678910  41.5010610 103.2051850
  80.7990490  42.5322080 103.9385290  72.2277300  33.0475190 105.6919340
  72.0480140  32.1500940 105.9722100  71.8257380  33.5947060 106.3666290
  81.0675800  35.2491050 103.5931650  81.4440620  34.3762930 103.4805320
  80.9695310  35.5849750 102.7022090  75.1980810  33.6216680  99.0549090
  75.3047560  34.5220410  99.3617850  74.2873170  33.5734650  98.7643740
  84.8499920  32.7441490 100.5259990  85.6709540  32.2538060 100.5685470
  84.8834000  33.3339150 101.2791830  72.8463970  35.5435690 104.3001680
  73.5274080  35.8074060 104.9189080  72.5312020  34.7036560 104.6339690
  77.0388540  36.5903050 103.3874270  77.5466760  37.0884020 104.0279290
  77.5701780  35.8138250 103.2113630  89.1399470  34.7608240 107.0903620
  88.4351640  35.1489950 106.5718730  89.4057390  35.4558530 107.6924550
  75.3224640  31.2301610 107.6537690  75.3243080  31.7474000 106.8483590
  74.4928950  30.7531790 107.6307620  81.7095730  41.3420920  99.1527590
  81.0913000  41.8070370  98.5890310  82.2218980  42.0348400  99.5697100
  76.5727490  40.8696790 105.8311190  76.2396870  41.4965710 106.4732260
  76.7494170  41.3958670 105.0512860  85.0861400  34.6841870 103.2987530
  84.3816970  34.9726760 103.8790640  85.4473560  35.4941980 102.9387090
  75.0039970  32.9411570 105.6608140  75.3456780  33.7853620 105.3662010
  74.0655780  33.0895310 105.7773480  75.7846590  42.8377590 107.6460370
  76.4020590  43.5128670 107.3644820  74.9239710  43.2465570 107.5547870
  71.0778930  42.0277450  96.5267220  70.7006910  42.5164550  95.7952120
  71.3352000  42.7002730  97.1573750  86.7024180  44.3017000 105.5615010
  86.0187700  44.9716110 105.5531680  87.2418470  44.4997650 104.7959870
  88.1548320  34.1296660 103.6896740  87.2073230  34.1635640 103.8212170
  88.4798310  34.9435610 104.0746100  78.6867860  30.4293840 101.9852730
  78.9942840  29.8740730 101.2688230  77.7568560  30.5638300 101.8025720
  84.2382920  46.1461130 104.2760190  84.2510080  45.7423420 103.4082450
  83.6858140  46.9208420 104.1721620  85.5328340  42.8677350  99.3650360
  85.4224670  41.9251680  99.4899780  85.5296590  43.2292990 100.2513120
  83.6368360  41.0490970 105.6042800  84.0537150  40.8351080 104.7696260
  84.3608180  41.3063760 106.1751420  81.0748620  38.4942670  98.7212850
  80.1477900  38.4280050  98.9501320  81.2273440  39.4322800  98.6068090
  81.0617700  34.7659670  95.7180010  80.1221370  34.9273630  95.8032470
  81.3800960  35.4845350  95.1716000  87.5830460  39.4478190 105.6959040
  86.7549090  39.5171280 105.2209170  88.1780940  40.0332500 105.2274870
  85.1045910  40.0562970  99.2248100  84.4858330  39.7182520  98.5774400
  85.0870360  39.4122730  99.9327290  84.5472470  36.2347510 106.6413910
  84.1343650  37.0601220 106.8953900  83.8148420  35.6492550 106.4490270
  76.6805260  39.0207410 101.5032580  76.2762260  38.3084660 101.0078480
  76.7668380  38.6760650 102.3920620  77.1486960  42.7074970 103.6671790
  76.8515250  42.1020440 102.9879570  78.0986780  42.7452280 103.5561150
  75.3933880  35.7950620 105.2831620  75.9448470  35.9045960 104.5084870
  75.9077390  36.1688220 105.9986850  85.2372570  46.2806840 107.3294890
  84.7603130  47.0879030 107.1367500  84.5534360  45.6285170 107.4821100
  76.2405390  42.4456660 110.3179590  75.3433920  42.6696630 110.5652990
  76.2658260  42.5691600 109.3690990  83.2810610  39.2949780  96.2320850
  83.7203890  38.4572210  96.0858670  83.9939030  39.9279180  96.3184990
  75.0676610  39.3169980 108.8936960  74.9284380  40.1892780 109.2624360
  74.1857970  38.9742790 108.7484900  81.3905990  44.2345850 100.2002090
  81.8301900  44.9770180  99.7857480  81.3292880  44.4772420 101.1241050
  86.8627750  30.5492590  94.5461890  86.5500410  30.6419420  95.4460960
  87.6240220  31.1273620  94.4959320  73.3809890  37.9152390  99.0039230
  73.2607490  38.6414480  98.3920500  73.0710780  37.1455300  98.5267140
  71.0195260  41.0867530 104.8107870  71.0975680  41.2216300 103.8663590
  71.6336940  40.3783420 105.0035990  72.2642890  42.7867720 101.2214050
  71.8570970  42.9282310 100.3667650  73.1555900  42.5027880 101.0185260
  88.2205030  43.2331630 109.5586290  88.3468090  42.9943510 108.6403470
  88.2626410  42.4016170 110.0308370  82.0821770  46.9359630 108.1281100
  82.5966440  46.8467640 108.9303530  81.2390850  47.2819330 108.4209010
  84.0576170  47.2214970  97.5565100  83.8977310  46.9317910  98.4546930
  83.8922880  46.4455100  97.0210330  76.5364550  47.0013500  99.3336720
  76.3607030  46.0849040  99.1204520  75.6820290  47.3600790  99.5734520
  83.7602300  44.7302530  96.1163100  83.0667460  44.7279820  95.4565380
  84.5025160  44.3061850  95.6857270  83.3252230  46.3565240 100.1911590
  83.7809180  45.5754620 100.5050210  83.6644750  47.0672060 100.7352770
  88.0729040  35.2864090 110.5236030  87.4573310  35.7943760 109.9951490
  87.7525460  34.3862420 110.4661970  71.0754780  42.1281700 107.3502330
  71.2385820  41.6587060 106.5321700  71.5407230  41.6205260 108.0151170
  75.8473550  31.2587460 102.3862900  75.4041700  32.0397000 102.0547420
  76.4058540  31.5817350 103.0933840  80.1343360  34.1255980 107.9898220
  79.6722730  34.3339000 108.8018160  79.7321470  33.3115330 107.6868890
  85.1347870  35.3464930 109.1194880  84.2841460  35.0470680 109.4403950
  84.9749660  35.5906940 108.2078700  78.9632370  30.8798160  97.2668730
  78.3386550  30.8758030  97.9922040  78.8762490  30.0129120  96.8704700
  77.8849450  31.8034790 104.2452500  78.1821780  32.7097620 104.1644520
  78.4335010  31.3153570 103.6312070  75.6387770  36.3821030 100.1144150
  75.4128690  36.1658200 101.0190770  74.8580300  36.8149490  99.7690120
  82.8685530  36.3884400  98.7134800  82.2694420  37.1120200  98.5298420
  83.4165140  36.3261180  97.9311250  78.0786980  37.2806610 110.7804420
  77.9830580  36.3401340 110.6304820  78.9218960  37.5021680 110.3852490
  81.4750400  35.0247940 100.7438080  81.8679970  35.3420140  99.9306770
  81.8367250  34.1459820 100.8582600  73.2097520  33.6920280 108.9338200
  72.8160910  34.5395490 109.1410980  72.5215920  33.0546650 109.1246840
  70.5114570  31.6148740 102.9668280  70.2227620  32.1851600 103.6793260
  71.2560330  31.1353190 103.3299510  70.6984800  35.5568860  94.1771000
  70.6159470  36.4999620  94.3185990  70.3467860  35.4143770  93.2983350
  82.0605540  37.6153690 104.8388860  81.3286660  38.1240500 105.1878960
  81.6629880  36.7983670 104.5377640  78.4982930  34.2907890 103.2441350
  78.5018990  33.8497840 102.3945890  79.3934050  34.6125220 103.3513170
  74.3485310  34.1734380 102.2035560  74.0085360  34.6509610 102.9602610
  73.5862630  33.7199500 101.8436660  78.5603080  35.2919970  96.2348110
  78.6815900  35.2506450  97.1833930  78.1751590  36.1544120  96.0794840
  82.5231450  33.0687370 104.2511800  82.5404190  33.5196020 105.0953650
  82.2747030  32.1693010 104.4645240  77.5724580  37.6021110  95.6331410
  77.0041480  37.1539360  95.0067320  78.2813580  37.9613890  95.0996560
  85.9502200  30.4819550 110.0898180  86.2747970  29.7509210 110.6156160
  85.9858710  30.1633190 109.1879170  72.6493760  41.5033130 109.5098140
  72.2648550  40.8626800 110.1081100  72.9605950  42.2069250 110.0792870
  78.7990900  38.3509670 104.9906760  79.1661030  37.8768240 105.7368100
  78.6095960  39.2251240 105.3315100  71.6631390  33.0953360 101.1200230
  71.3778310  32.7309030 101.9578850  71.6010250  32.3633820 100.5063370
  76.5890270  37.3918310 107.3090970  76.2847340  38.2710290 107.5341330
  77.5436730  37.4518100 107.3448410  75.1172060  41.5979300  97.9057820
  74.3434320  41.0576920  97.7456540  75.8466690  41.0785910  97.5675580
  85.8760040  40.5944660 103.6984210  86.5959160  41.0899950 103.3080320
  85.6741860  39.9162550 103.0538080  81.3369980  31.9882620  97.8413600
  80.5234590  31.4895790  97.7658910  81.1431930  32.8280870  97.4249950
  81.2578840  40.6653720 109.5853210  81.1916150  39.7449390 109.3310800
  80.6283980  40.7629160 110.2997850  84.0518370  36.3602270  96.1375760
  84.9397990  36.6719500  95.9627100  84.0223460  35.4874520  95.7456340
  75.1609460  41.2659680 101.5436630  75.6788130  40.4627940 101.4893520
  74.7093480  41.2038820 102.3853460  80.0478960  42.5325960  96.8163930
  80.3894660  43.2768190  96.3207250  79.2191670  42.8457080  97.1788760
  72.6454000  38.2321050 108.4562330  72.2868940  38.8974900 109.0435670
  72.3508560  37.4004600 108.8274950  81.1895570  43.4874290 109.3357010
  81.2040110  42.5555250 109.1175920  80.4820670  43.5734050 109.9746780
  86.3232640  37.6714110  95.6055620  86.2396360  38.1028330  94.7552060
  87.0426830  38.1312460  96.0382440  87.4006780  40.1281630 108.6825590
  86.6754970  40.7210410 108.4854980  87.9282240  40.1205170 107.8838960
  87.3519890  44.5256370  98.3337750  86.7096050  43.8711990  98.6081470
  86.9650550  44.9311460  97.5578420  82.9306370  41.8541800 102.1809440
  83.2830190  41.2569930 101.5210810  82.0468700  41.5286030 102.3517690
  79.0169650  42.6139490  99.5879850  79.7040780  43.1608700  99.9687440
  78.2302070  43.1580220  99.6229460  71.1562050  38.2312310  95.0796930
  72.0256900  38.5137110  95.3632850  70.6652370  39.0448180  94.9645740
  78.3196860  39.6185520  99.2005210  78.7759640  40.4290770  99.4265400
  77.9685070  39.3008660 100.0323700  80.6229470  45.1291860 106.4297510
  81.2671690  45.3351240 107.1070930  80.9858910  44.3680260 105.9768360
  74.2208640  29.9623170  99.6727730  74.0923270  29.9541070 100.6212650
  73.3970660  30.3006260  99.3218740  81.8961550  43.1324210 105.1474960
  82.5383780  42.4317370 105.2607130  82.4210900  43.9122650 104.9671850
  85.7417270  43.4172830  94.8714100  85.5154850  42.7003270  95.4638740
  85.3513470  43.1685270  94.0335850  83.6699170  43.9319110 108.3511020
  84.0055410  44.5185800 109.0288940  82.7499510  43.8011820 108.5808810
  71.2202570  31.7214290 109.1334430  70.5061090  31.9211210 109.7387040
  71.6397610  30.9453860 109.5049230  85.3233520  41.3344770  96.5328260
  85.0355220  41.7957460  97.3206140  86.1185690  40.8742540  96.8012480
  71.5075160  45.7094550 110.1200960  71.6166280  44.7689290 109.9796350
  70.8555720  45.9749300 109.4714690  77.5401920  44.8270890  96.4632230
  77.5312020  45.5600580  95.8476740  76.6200280  44.5802470  96.5559190
  73.1408560  40.0485780  97.2078990  72.5336510  40.7884680  97.2174290
  73.6157910  40.1385140  96.3817190  82.7141350  34.2136600 106.8835880
  83.0822170  33.3931810 107.2115450  81.8539550  34.2738490 107.2991530
  86.0803380  33.1693540  97.6923440  85.4516540  33.2739210  96.9781670
  85.5855300  33.3890320  98.4817320  80.5261520  44.8899130  95.1257420
  80.6273500  44.6863120  94.1959400  79.6263260  44.6357410  95.3305200
  78.0487410  35.4479490  99.1081320  77.3403560  35.9165830  99.5494930
  78.3331890  34.7901500  99.7426510  79.6743340  36.8676190 107.1073850
  80.1728590  37.3422010 107.7725700  79.8166290  35.9439710 107.3143880
  82.0802840  32.1730150 100.5477110  81.9570620  32.1916280  99.5986620
  83.0287400  32.2209090 100.6675510  79.1679630  47.4085450  99.8205090
  79.4221130  47.3706840  98.8984460  78.2192110  47.2818780  99.8133340
  76.2522430  33.7564570  96.4832030  77.1012960  34.1934720  96.4172220
  75.8853700  34.0684830  97.3104090  86.8810200  33.0844150 107.9502240
  86.3783800  33.8249550 108.2896050  87.6966860  33.4728150 107.6339030
  85.1732210  38.3277330 101.3963600  84.2322350  38.3427560 101.5711290
  85.4876280  37.5413290 101.8423900  75.1513850  40.0096930  94.9567560
  75.9177120  39.8978290  95.5192990  75.2288540  39.3134900  94.3044330
  73.8460610  37.4422000  95.6400450  73.9264200  36.4949510  95.7517850
  74.7380360  37.7728880  95.7461110  87.1757790  45.4986180 103.0717860
  87.3005210  46.3217350 103.5441670  88.0423350  45.2876910 102.7242010
  74.6475320  47.5917390 102.7434990  75.3837800  47.0432850 103.0143560
  75.0316240  48.4573400 102.6040980  71.5320800  43.6590960  98.6176500
  70.6060580  43.9012100  98.6081910  71.9977230  44.4865220  98.4961250
  86.8107800  45.9917830  95.9897300  86.5249310  45.5782970  95.1751480
  86.6127350  46.9205540  95.8697820  78.2755030  41.9851110  94.4302910
  78.1705670  41.3703460  95.1564290  78.1079250  41.4617000  93.6465920
  78.4269350  40.6707910 110.4092140  77.6615020  41.2392910 110.3246810
  78.6085310  40.3784120 109.5160370  81.5157760  41.0471140  95.0344900
  80.9667860  41.4940440  95.6787640  82.1377020  40.5420390  95.5582570
  85.5692700  42.4013240 110.9667160  86.3102170  42.7389000 110.4634620
  84.8065380  42.5705300 110.4136930  77.1832880  40.0062060  96.9310200
  77.6049300  39.8401930  97.7741590  77.3083720  39.1962290  96.4365340
  75.3460300  35.9858610 109.7381180  74.8156760  35.4949560 109.1104520
  76.0148370  36.4142810 109.2039110  79.6960520  39.0299670  94.1787300
  80.2166180  38.3148690  93.8128450  80.3428920  39.6685540  94.4787810
  84.2438360  40.4528070 109.5022370  84.6579380  40.6073150 110.3512790
  83.3089360  40.5783290 109.6648150  75.8332600  32.9520980 109.8178470
  75.7389470  32.3341730 109.0929340  75.2529990  33.6787270 109.5908380
  78.5994040  31.5094220 106.8505860  78.1511340  31.5318480 106.0051410
  77.9659240  31.1113240 107.4476160  79.0053590  40.4048550 107.4718300
  79.4241700  41.2481280 107.2994540  78.0862220  40.5420590 107.2425080
  81.3417490  38.1364730 108.8556140  81.4613700  37.5405870 109.5950980
  82.2011490  38.1734420 108.4357440  83.6805390  38.6901920 107.4318650
  83.1540610  39.2144540 106.8283790  84.0236730  39.3229310 108.0628380
  76.0791780  36.0795290  93.8768360  75.8780840  35.2162650  94.2381700
  75.9083830  35.9928650  92.9389960  76.8561010  46.7101560 108.5876030
  76.3182100  47.4347620 108.2684730  77.1094970  46.2331900 107.7973370
  78.1086260  34.6786080 110.1131960  78.6985950  34.3701930 110.8009780
  77.2906500  34.2065830 110.2691860  82.9279690  34.2951890 110.3464980
  82.2395210  33.6333430 110.2814970  83.6485710  33.8490160 110.7913440
  83.5580090  30.8903520  96.4055240  83.8382380  30.0471420  96.7614660
  82.7845820  31.1226630  96.9193990  74.8774580  33.1795910  93.8646240
  75.1800480  33.1863340  92.9565390  75.6169170  32.8293770  94.3613900
  79.7123220  47.9452770 108.8462680  79.6381920  48.8487910 109.1535050
  78.8102060  47.6264670 108.8184750  78.0959510  32.1230530  94.8502440
  77.7481510  31.4454520  94.2704890  78.2972280  31.6620040  95.6645830
  80.2608550  47.1111280  96.4689040  81.1559340  47.4496250  96.4907800
  80.2926180  46.3890690  95.8413320  73.9004710  42.4838330  94.6976040
  74.3379580  43.0268000  95.3533620  74.3852440  41.6585280  94.7072380
  71.1150510  45.2727360 102.1496300  71.4453520  44.4048420 101.9174940
  71.5441510  45.4785880 102.9801260  75.7112430  43.6036370  99.8098270
  75.4107970  43.4801340 100.7102180  75.6049920  42.7444960  99.4014000
  71.6040720  46.1397950 104.8877930  71.1671710  46.3198750 105.7202080
  72.1718400  46.8972570 104.7459650  87.2402900  45.6414950 109.1755240
  86.6404890  45.7007510 108.4319160  87.3696800  44.7019930 109.3052090
  88.4804350  43.3832770  94.5124950  87.6497310  43.4509420  94.9832180
  88.6576180  44.2736890  94.2091810  87.9360810  40.1280250  97.0159150
  88.6979720  40.6976900  97.1218840  87.9515180  39.5607450  97.7867460
  71.4365150  38.6518180 101.2466810  70.7813990  38.3829820 100.6026510
  72.2743100  38.5422660 100.7968790  88.9420780  40.9830350 101.8601080
  89.3129610  40.1997670 101.4537050  89.5822710  41.6719450 101.6818380
  85.9254540  42.3666930 107.2731400  85.1114380  42.7964090 107.5357190
  86.3328740  42.9785340 106.6600450  87.9879980  40.4214620  94.1731670
  88.2628820  41.3293500  94.0450890  87.7990720  40.3577150  95.1093660
  84.3855590  33.4459470  95.4685300  84.8040470  33.2590450  94.6281960
  84.0791650  32.5938520  95.7788230  87.8845320  38.3583610  99.1661100
  87.5088920  37.5911540  98.7342390  87.1548440  38.7406310  99.6536030
  72.4741080  39.0370750 105.7870150  72.8414120  38.9498150 106.6666170
  71.9051900  38.2737300 105.6877010  87.2744940  37.5055130 108.8000620
  87.0431030  37.2767880 107.8998570  87.5349490  38.4254680 108.7545510
  72.0257080  35.9479840 109.6928570  71.1313130  35.9146600 110.0322280
  72.5654630  36.1466630 110.4579820  70.6503230  35.8617110  97.1892140
  69.7467310  36.1247310  97.0143800  71.1343850  36.1328280  96.4092100
  87.1596280  36.5841100 102.4668340  87.6833760  36.0903750 101.8358510
  87.7455700  36.7191460 103.2115910  87.3386000  36.6680970 105.9887890
  86.3888710  36.6344510 106.1032880  87.5199010  37.5781080 105.7537660
  73.1930440  34.9182650  95.0986520  73.9022140  34.4965870  94.6133800
  72.4770380  34.9857880  94.4669870  72.8404600  30.9721980  94.1389170
  73.5632730  31.5130920  94.4570390  73.1129120  30.6985400  93.2630710
  86.6496250  35.8414450  98.4060750  87.1455370  35.6085320  99.1909630
  86.4512320  35.0026290  97.9898390  72.5296790  30.2228170 104.0411790
  73.1772980  29.6725550 103.6006950  72.9498630  30.4771320 104.8627600
  88.0783410  34.4775400 100.9398430  87.9682690  34.3231440 101.8780700
  88.8391000  33.9496340 100.6973840  86.4249130  30.4169530 107.3981430
  87.0621350  31.0303670 107.7640620  86.5724020  30.4530190 106.4530660
  88.9673680  32.3083320  94.1804570  89.8922990  32.1764500  93.9722860
  88.9449470  32.3876140  95.1341020  89.0412170  33.0793980  96.8061280
  88.2463670  33.0139100  97.3354190  89.2455450  34.0144620  96.7946630
  85.9830590  47.1185530 100.7999670  86.5789660  46.7970100 100.1234090
  86.2408740  46.6457350 101.5912940  72.2828790  30.3783840 106.7837110
  71.9343610  30.8347660 107.5495290  71.9516490  29.4840970 106.8659540
  77.5899190  45.1063030 106.5500020  77.3490550  45.3737590 105.6630540
  78.5301830  45.2768760 106.6050880  82.4328170  31.2265780 109.9448820
  83.0468580  31.5445070 109.2829900  82.9777730  30.7414370 110.5644680
  88.8503350  47.1257410 107.3510660  88.3561630  47.5226280 106.6337790
  88.2416640  46.5006620 107.7447940  72.9549430  29.9060040 110.0587880
  73.5032420  29.7248090 109.2953990  73.0204740  29.1154150 110.5944190
  73.7281190  46.4965690 108.0688080  73.1341510  46.3650390 108.8078120
  73.7205030  45.6603830 107.6030180  83.1736210  29.7897920 106.2718110
  82.2996050  30.1233030 106.0691040  83.0646960  29.3171100 107.0969980
  84.0808190  31.9968790 107.6559830  83.7521550  31.1820550 107.2761560
  85.0290490  31.9538600 107.5325520  86.5342800  47.7680830 104.6297400
  86.0745770  48.5196640 104.2555420  85.9055260  47.0487300 104.5712200
  73.3593420  43.8624070 107.0196120  72.6327480  43.2429360 106.9522070
  73.4202570  44.2564680 106.1494200  76.9638520  46.0769070 103.8045530
  77.4803540  45.4656430 103.2793790  77.6135900  46.5797850 104.2956540
  79.7034020  46.9677560 104.6314510  79.9911830  46.7131860 103.7547520
  80.2157240  46.4154920 105.2220080  80.9211030  30.7067760 105.2111020
  80.1382820  31.1813260 105.4907780  80.6273960  29.8022590 105.1024200
  85.4732100  31.4090860 103.2560110  85.9140190  31.3535960 102.4081710
  85.2039690  32.3248870 103.3270290  87.3370670  31.0406100 101.2668930
  87.2759070  30.0967320 101.1199950  88.1162700  31.1486190 101.8122390
  71.6423420  47.1798460 100.2292880  71.4745460  46.5469140 100.9274770
  70.7757930  47.3857860  99.8787070  72.2651440  31.0115240  97.7324740
  73.0230800  31.1244120  97.1588770  71.8028610  31.8484440  97.6868170
  78.8065250  33.1254510 100.7227050  77.9939760  32.7511400 100.3822930
  79.3106890  32.3699590 101.0248240  83.3090230  29.7896960 101.9610120
  83.9119600  30.3617170 102.4358640  82.5683220  30.3536400 101.7384020
  86.4524830  30.1918520  97.2350400  86.6475460  31.0901970  97.5017830
  85.6654700  29.9605600  97.7283350  73.2486120  45.8731690  97.6743020
  72.7233740  46.2539720  96.9704980  73.1730700  46.4982460  98.3952730
  74.6376590  31.5379290  96.2726710  75.1669350  30.7509090  96.1434660
  75.2704910  32.2170480  96.5062240  76.8314430  31.2754430  99.3272100
  76.2017170  30.5741740  99.4942230  76.2919570  32.0358560  99.1105260
  88.0051440  47.4319230  98.9956960  88.1803630  46.7456970  98.3517880
  87.3073010  47.9566280  98.6033630  75.0093880  43.9378800  96.5538600
  74.3802760  44.4063900  97.1024430  75.1241710  43.0928020  96.9884790
  82.4643600  37.9884460  82.7039800  82.3837650  37.0739070  82.4331510
  82.0508020  38.4851530  81.9979510  80.5961640  39.7663480  84.5849070
  79.8203740  39.2863920  84.8747640  81.2474570  39.0869130  84.4105230
  84.6169070  44.1723670  83.3648200  84.1550600  43.4010910  83.6935370
  85.4294620  44.1989740  83.8700650  70.9852430  37.6390830  85.1306920
  71.5568540  36.8713030  85.1310560  70.9853970  37.9379590  84.2213530
  80.8432380  46.4581680  82.9852190  80.2243820  46.9139180  82.4146630
  81.6984160  46.6133140  82.5841890  72.2277300  33.0475190  86.9175850
  72.0480140  32.1500940  87.1978610  71.8257380  33.5947060  87.5922800
  81.0675800  35.2491050  84.8188160  81.4440620  34.3762930  84.7061830
  80.9695310  35.5849750  83.9278600  75.1980810  33.6216680  80.2805600
  75.3047560  34.5220410  80.5874360  74.2873170  33.5734650  79.9900250
  84.8499920  32.7441490  81.7516500  85.6709540  32.2538060  81.7941980
  84.8834000  33.3339150  82.5048340  72.8463970  35.5435690  85.5258190
  73.5274080  35.8074060  86.1445590  72.5312020  34.7036560  85.8596200
  77.0388540  36.5903050  84.6130780  77.5466760  37.0884020  85.2535800
  77.5701780  35.8138250  84.4370140  89.1399470  34.7608240  88.3160130
  88.4351640  35.1489950  87.7975240  89.4057390  35.4558530  88.9181060
  75.3224640  31.2301610  88.8794200  75.3243080  31.7474000  88.0740100
  74.4928950  30.7531790  88.8564130  85.0861400  34.6841870  84.5244040
  84.3816970  34.9726760  85.1047150  85.4473560  35.4941980  84.1643600
  75.0039970  32.9411570  86.8864650  75.3456780  33.7853620  86.5918520
  74.0655780  33.0895310  87.0029990  86.7024180  44.3017000  86.7871520
  86.0187700  44.9716110  86.7788190  87.2418470  44.4997650  86.0216380
  88.1548320  34.1296660  84.9153250  87.2073230  34.1635640  85.0468680
  88.4798310  34.9435610  85.3002610  78.6867860  30.4293840  83.2109240
  78.9942840  29.8740730  82.4944740  77.7568560  30.5638300  83.0282230
  84.2382920  46.1461130  85.5016700  84.2510080  45.7423420  84.6338960
  83.6858140  46.9208420  85.3978130  85.5328340  42.8677350  80.5906870
  85.4224670  41.9251680  80.7156290  85.5296590  43.2292990  81.4769630
  83.6368360  41.0490970  86.8299310  84.0537150  40.8351080  85.9952770
  84.3608180  41.3063760  87.4007930  81.0617700  34.7659670  76.9436520
  80.1221370  34.9273630  77.0288980  81.3800960  35.4845350  76.3972510
  87.5830460  39.4478190  86.9215550  86.7549090  39.5171280  86.4465680
  88.1780940  40.0332500  86.4531380  84.5472470  36.2347510  87.8670420
  84.1343650  37.0601220  88.1210410  83.8148420  35.6492550  87.6746780
  75.3933880  35.7950620  86.5088130  75.9448470  35.9045960  85.7341380
  75.9077390  36.1688220  87.2243360  85.2372570  46.2806840  88.5551400
  84.7603130  47.0879030  88.3624010  84.5534360  45.6285170  88.7077610
  75.0676610  39.3169980  90.1193470  74.9284380  40.1892780  90.4880870
  74.1857970  38.9742790  89.9741410  86.8627750  30.5492590  75.7718400
  86.5500410  30.6419420  76.6717470  87.6240220  31.1273620  75.7215830
  73.3809890  37.9152390  80.2295740  73.2607490  38.6414480  79.6177010
  73.0710780  37.1455300  79.7523650  88.8171780  46.0418780  93.6242790
  89.2931500  46.5201670  94.3031870  89.4378940  45.9736270  92.8988290
  88.2205030  43.2331630  90.7842800  88.3468090  42.9943510  89.8659980
  88.2626410  42.4016170  91.2564880  82.0821770  46.9359630  89.3537610
  82.5966440  46.8467640  90.1560040  81.2390850  47.2819330  89.6465520
  84.0576170  47.2214970  78.7821610  83.8977310  46.9317910  79.6803440
  83.8922880  46.4455100  78.2466840  83.3252230  46.3565240  81.4168100
  83.7809180  45.5754620  81.7306720  83.6644750  47.0672060  81.9609280
  88.0729040  35.2864090  91.7492540  87.4573310  35.7943760  91.2208000
  87.7525460  34.3862420  91.6918480  71.0754780  42.1281700  88.5758840
  71.2385820  41.6587060  87.7578210  71.5407230  41.6205260  89.2407680
  75.8473550  31.2587460  83.6119410  75.4041700  32.0397000  83.2803930
  76.4058540  31.5817350  84.3190350  80.1343360  34.1255980  89.2154730
  79.6722730  34.3339000  90.0274670  79.7321470  33.3115330  88.9125400
  85.1347870  35.3464930  90.3451390  84.2841460  35.0470680  90.6660460
  84.9749660  35.5906940  89.4335210  82.2297580  36.8466680  92.4450180
  82.5550990  36.0130430  92.1052410  83.0177910  37.3695200  92.5928510
  78.9632370  30.8798160  78.4925240  78.3386550  30.8758030  79.2178550
  78.8762490  30.0129120  78.0961210  77.8849450  31.8034790  85.4709010
  78.1821780  32.7097620  85.3901030  78.4335010  31.3153570  84.8568580
  75.6387770  36.3821030  81.3400660  75.4128690  36.1658200  82.2447280
  74.8580300  36.8149490  80.9946630  82.8685530  36.3884400  79.9391310
  82.2694420  37.1120200  79.7554930  83.4165140  36.3261180  79.1567760
  78.0786980  37.2806610  92.0060930  77.9830580  36.3401340  91.8561330
  78.9218960  37.5021680  91.6109000  81.4750400  35.0247940  81.9694590
  81.8679970  35.3420140  81.1563280  81.8367250  34.1459820  82.0839110
  73.2097520  33.6920280  90.1594710  72.8160910  34.5395490  90.3667490
  72.5215920  33.0546650  90.3503350  79.7842570  33.7755250  93.2291450
  79.0940890  33.5827450  93.8637540  80.5274870  34.0589890  93.7615750
  82.0605540  37.6153690  86.0645370  81.3286660  38.1240500  86.4135470
  81.6629880  36.7983670  85.7634150  78.4982930  34.2907890  84.4697860
  78.5018990  33.8497840  83.6202400  79.3934050  34.6125220  84.5769680
  78.5603080  35.2919970  77.4604620  78.6815900  35.2506450  78.4090440
  78.1751590  36.1544120  77.3051350  82.5231450  33.0687370  85.4768310
  82.5404190  33.5196020  86.3210160  82.2747030  32.1693010  85.6901750
  85.9502200  30.4819550  91.3154690  86.2747970  29.7509210  91.8412670
  85.9858710  30.1633190  90.4135680  72.6493760  41.5033130  90.7354650
  72.2648550  40.8626800  91.3337610  72.9605950  42.2069250  91.3049380
  78.7990900  38.3509670  86.2163270  79.1661030  37.8768240  86.9624610
  78.6095960  39.2251240  86.5571610  76.5890270  37.3918310  88.5347480
  76.2847340  38.2710290  88.7597840  77.5436730  37.4518100  88.5704920
  85.8760040  40.5944660  84.9240720  86.5959160  41.0899950  84.5336830
  85.6741860  39.9162550  84.2794590  81.3369980  31.9882620  79.0670110
  80.5234590  31.4895790  78.9915420  81.1431930  32.8280870  78.6506460
  81.2578840  40.6653720  90.8109720  81.1916150  39.7449390  90.5567310
  80.6283980  40.7629160  91.5254360  72.6454000  38.2321050  89.6818840
  72.2868940  38.8974900  90.2692180  72.3508560  37.4004600  90.0531460
  75.8467120  38.6905290  92.5658390  75.5467260  38.8362470  91.6686210
  76.6178360  38.1310580  92.4731780  81.1895570  43.4874290  90.5613520
  81.2040110  42.5555250  90.3432430  80.4820670  43.5734050  91.2003290
  87.4006780  40.1281630  89.9082100  86.6754970  40.7210410  89.7111490
  87.9282240  40.1205170  89.1095470  82.9306370  41.8541800  83.4065950
  83.2830190  41.2569930  82.7467320  82.0468700  41.5286030  83.5774200
  74.2208640  29.9623170  80.8984240  74.0923270  29.9541070  81.8469160
  73.3970660  30.3006260  80.5475250  85.7417270  43.4172830  76.0970610
  85.5154850  42.7003270  76.6895250  85.3513470  43.1685270  75.2592360
  83.6699170  43.9319110  89.5767530  84.0055410  44.5185800  90.2545450
  82.7499510  43.8011820  89.8065320  71.2202570  31.7214290  90.3590940
  70.5061090  31.9211210  90.9643550  71.6397610  30.9453860  90.7305740
  71.5075160  45.7094550  91.3457470  71.6166280  44.7689290  91.2052860
  70.8555720  45.9749300  90.6971200  79.4987750  43.9810440  92.7455590
  79.1784620  43.2619680  93.2901280  78.8246110  44.6565510  92.8191650
  82.7141350  34.2136600  88.1092390  83.0822170  33.3931810  88.4371960
  81.8539550  34.2738490  88.5248040  86.0803380  33.1693540  78.9179950
  85.4516540  33.2739210  78.2038180  85.5855300  33.3890320  79.7073830
  78.0487410  35.4479490  80.3337830  77.3403560  35.9165830  80.7751440
  78.3331890  34.7901500  80.9683020  79.6743340  36.8676190  88.3330360
  80.1728590  37.3422010  88.9982210  79.8166290  35.9439710  88.5400390
  82.0802840  32.1730150  81.7733620  81.9570620  32.1916280  80.8243130
  83.0287400  32.2209090  81.8932020  76.2522430  33.7564570  77.7088540
  77.1012960  34.1934720  77.6428730  75.8853700  34.0684830  78.5360600
  86.8810200  33.0844150  89.1758750  86.3783800  33.8249550  89.5152560
  87.6966860  33.4728150  88.8595540  85.1732210  38.3277330  82.6220110
  84.2322350  38.3427560  82.7967800  85.4876280  37.5413290  83.0680410
  87.1757790  45.4986180  84.2974370  87.3005210  46.3217350  84.7698180
  88.0423350  45.2876910  83.9498520  82.4898230  42.8843330  93.1052490
  81.8836390  42.9074930  92.3648240  82.1852340  42.1526370  93.6419740
  83.9198600  46.6123620  91.7161900  84.8720350  46.5281640  91.6662140
  83.7726820  47.2765330  92.3895690  71.3731410  39.2636920  92.1013130
  71.8770430  38.6844200  92.6729360  70.6338830  39.5477150  92.6389500
  78.4269350  40.6707910  91.6348650  77.6615020  41.2392910  91.5503320
  78.6085310  40.3784120  90.7416880  85.5692700  42.4013240  92.1923670
  86.3102170  42.7389000  91.6891130  84.8065380  42.5705300  91.6393440
  73.4054490  37.4066510  92.9963200  73.4459830  37.1080380  93.9048430
  74.2599990  37.8074120  92.8370720  75.3460300  35.9858610  90.9637690
  74.8156760  35.4949560  90.3361030  76.0148370  36.4142810  90.4295620
  84.2438360  40.4528070  90.7278880  84.6579380  40.6073150  91.5769300
  83.3089360  40.5783290  90.8904660  84.7160530  37.7924230  92.7318030
  85.2981300  37.0376550  92.6438510  84.8922300  38.3231670  91.9549510
  75.8332600  32.9520980  91.0434980  75.7389470  32.3341730  90.3185850
  75.2529990  33.6787270  90.8164890  78.5994040  31.5094220  88.0762370
  78.1511340  31.5318480  87.2307920  77.9659240  31.1113240  88.6732670
  79.0053590  40.4048550  88.6974810  79.4241700  41.2481280  88.5251050
  78.0862220  40.5420590  88.4681590  81.3417490  38.1364730  90.0812650
  81.4613700  37.5405870  90.8207490  82.2011490  38.1734420  89.6613950
  83.6805390  38.6901920  88.6575160  83.1540610  39.2144540  88.0540300
  84.0236730  39.3229310  89.2884890  76.0791780  36.0795290  75.1024870
  75.8780840  35.2162650  75.4638210  75.9083830  35.9928650  74.1646470
  78.1086260  34.6786080  91.3388470  78.6985950  34.3701930  92.0266290
  77.2906500  34.2065830  91.4948370  82.9279690  34.2951890  91.5721490
  82.2395210  33.6333430  91.5071480  83.6485710  33.8490160  92.0169950
  83.5580090  30.8903520  77.6311750  83.8382380  30.0471420  77.9871170
  82.7845820  31.1226630  78.1450500  74.8774580  33.1795910  75.0902750
  75.1800480  33.1863340  74.1821900  75.6169170  32.8293770  75.5870410
  78.0959510  32.1230530  76.0758950  77.7481510  31.4454520  75.4961400
  78.2972280  31.6620040  76.8902340  87.2402900  45.6414950  90.4011750
  86.6404890  45.7007510  89.6575670  87.3696800  44.7019930  90.5308600
  88.4804350  43.3832770  75.7381460  87.6497310  43.4509420  76.2088690
  88.6576180  44.2736890  75.4348320  87.9360810  40.1280250  78.2415660
  88.6979720  40.6976900  78.3475350  87.9515180  39.5607450  79.0123970
  88.9420780  40.9830350  83.0857590  89.3129610  40.1997670  82.6793560
  89.5822710  41.6719450  82.9074890  85.9254540  42.3666930  88.4987910
  85.1114380  42.7964090  88.7613700  86.3328740  42.9785340  87.8856960
  87.9879980  40.4214620  75.3988180  88.2628820  41.3293500  75.2707400
  87.7990720  40.3577150  76.3350170  84.3855590  33.4459470  76.6941810
  84.8040470  33.2590450  75.8538470  84.0791650  32.5938520  77.0044740
  87.8845320  38.3583610  80.3917610  87.5088920  37.5911540  79.9598900
  87.1548440  38.7406310  80.8792540  87.2744940  37.5055130  90.0257130
  87.0431030  37.2767880  89.1255080  87.5349490  38.4254680  89.9802020
  72.0257080  35.9479840  90.9185080  71.1313130  35.9146600  91.2578790
  72.5654630  36.1466630  91.6836330  85.7133010  32.7311560  92.8036830
  86.5903190  32.7394960  93.1870830  85.7253850  31.9942400  92.1929180
  87.1596280  36.5841100  83.6924850  87.6833760  36.0903750  83.0615020
  87.7455700  36.7191460  84.4372420  87.3386000  36.6680970  87.2144400
  86.3888710  36.6344510  87.3289390  87.5199010  37.5781080  86.9794170
  73.1930440  34.9182650  76.3243030  73.9022140  34.4965870  75.8390310
  72.4770380  34.9857880  75.6926380  72.8404600  30.9721980  75.3645680
  73.5632730  31.5130920  75.6826900  73.1129120  30.6985400  74.4887220
  86.6496250  35.8414450  79.6317260  87.1455370  35.6085320  80.4166140
  86.4512320  35.0026290  79.2154900  88.0783410  34.4775400  82.1654940
  87.9682690  34.3231440  83.1037210  88.8391000  33.9496340  81.9230350
  86.4249130  30.4169530  88.6237940  87.0621350  31.0303670  88.9897130
  86.5724020  30.4530190  87.6787170  88.9673680  32.3083320  75.4061080
  89.8922990  32.1764500  75.1979370  88.9449470  32.3876140  76.3597530
  89.0412170  33.0793980  78.0317790  88.2463670  33.0139100  78.5610700
  89.2455450  34.0144620  78.0203140  85.9830590  47.1185530  82.0256180
  86.5789660  46.7970100  81.3490600  86.2408740  46.6457350  82.8169450
  72.2828790  30.3783840  88.0093620  71.9343610  30.8347660  88.7751800
  71.9516490  29.4840970  88.0916050  79.7953610  31.5695720  91.5313040
  79.7342500  32.1617550  92.2808450  80.7353990  31.4621680  91.3863300
  82.4328170  31.2265780  91.1705330  83.0468580  31.5445070  90.5086410
  82.9777730  30.7414370  91.7901190  88.8503350  47.1257410  88.5767170
  88.3561630  47.5226280  87.8594300  88.2416640  46.5006620  88.9704450
  72.9549430  29.9060040  91.2844390  73.5032420  29.7248090  90.5210500
  73.0204740  29.1154150  91.8200700  83.1736210  29.7897920  87.4974620
  82.2996050  30.1233030  87.2947550  83.0646960  29.3171100  88.3226490
  84.0808190  31.9968790  88.8816340  83.7521550  31.1820550  88.5018070
  85.0290490  31.9538600  88.7582030  86.5342800  47.7680830  85.8553910
  86.0745770  48.5196640  85.4811930  85.9055260  47.0487300  85.7968710
  80.9211030  30.7067760  86.4367530  80.1382820  31.1813260  86.7164290
  80.6273960  29.8022590  86.3280710  85.4732100  31.4090860  84.4816620
  85.9140190  31.3535960  83.6338220  85.2039690  32.3248870  84.5526800
  87.3370670  31.0406100  82.4925440  87.2759070  30.0967320  82.3456460
  88.1162700  31.1486190  83.0378900  72.2651440  31.0115240  78.9581250
  73.0230800  31.1244120  78.3845280  71.8028610  31.8484440  78.9124680
  78.8065250  33.1254510  81.9483560  77.9939760  32.7511400  81.6079440
  79.3106890  32.3699590  82.2504750  83.3090230  29.7896960  83.1866630
  83.9119600  30.3617170  83.6615150  82.5683220  30.3536400  82.9640530
  86.4524830  30.1918520  78.4606910  86.6475460  31.0901970  78.7274340
  85.6654700  29.9605600  78.9539860  74.6376590  31.5379290  77.4983220
  75.1669350  30.7509090  77.3691170  75.2704910  32.2170480  77.7318750
  76.8314430  31.2754430  80.5528610  76.2017170  30.5741740  80.7198740
  76.2919570  32.0358560  80.3361770  79.7706380  47.8893660  93.2239220
  80.6973690  47.6537930  93.2675180  79.7556810  48.7165660  92.7425250
  88.0051440  47.4319230  80.2213470  88.1803630  46.7456970  79.5774390
  87.3073010  47.9566280  79.8290140  76.9569990  30.5538410  92.9881100
  76.6754260  31.0572010  92.2241920  77.3389690  29.7560160  92.6223230
  75.8479090  47.8214070  77.7748780  76.5797910  47.5373350  77.2272670
  76.1072760  47.5827350  78.6648160  83.5585450  29.9691990  93.5661570
  83.4450900  30.2886600  94.4613090  84.3755190  30.3704500  93.2698850
  86.3383940  47.1163520  93.0480260  87.1309260  46.6212750  92.8406220
  86.6317090  47.7953660  93.6555870  74.6127470  40.0783290  66.6881340
  73.7812350  39.8232000  67.0877850  75.2208450  40.1494060  67.4239260
  72.2277300  33.0475190  68.1432360  72.0480140  32.1500940  68.4235120
  71.8257380  33.5947060  68.8179310  75.1980810  33.6216680  61.5062110
  75.3047560  34.5220410  61.8130870  74.2873170  33.5734650  61.2156760
  84.8499920  32.7441490  62.9773010  85.6709540  32.2538060  63.0198490
  84.8834000  33.3339150  63.7304850  72.8463970  35.5435690  66.7514700
  73.5274080  35.8074060  67.3702100  72.5312020  34.7036560  67.0852710
  77.0388540  36.5903050  65.8387290  77.5466760  37.0884020  66.4792310
  77.5701780  35.8138250  65.6626650  89.1399470  34.7608240  69.5416640
  88.4351640  35.1489950  69.0231750  89.4057390  35.4558530  70.1437570
  75.3224640  31.2301610  70.1050710  75.3243080  31.7474000  69.2996610
  74.4928950  30.7531790  70.0820640  75.0039970  32.9411570  68.1121160
  75.3456780  33.7853620  67.8175030  74.0655780  33.0895310  68.2286500
  88.1548320  34.1296660  66.1409760  87.2073230  34.1635640  66.2725190
  88.4798310  34.9435610  66.5259120  78.6867860  30.4293840  64.4365750
  78.9942840  29.8740730  63.7201250  77.7568560  30.5638300  64.2538740
  76.6805260  39.0207410  63.9545600  76.2762260  38.3084660  63.4591500
  76.7668380  38.6760650  64.8433640  75.3933880  35.7950620  67.7344640
  75.9448470  35.9045960  66.9597890  75.9077390  36.1688220  68.4499870
  73.3809890  37.9152390  61.4552250  73.2607490  38.6414480  60.8433520
  73.0710780  37.1455300  60.9780160  72.2642890  42.7867720  63.6727070
  71.8570970  42.9282310  62.8180670  73.1555900  42.5027880  63.4698280
  75.8473550  31.2587460  64.8375920  75.4041700  32.0397000  64.5060440
  76.4058540  31.5817350  65.5446860  78.9632370  30.8798160  59.7181750
  78.3386550  30.8758030  60.4435060  78.8762490  30.0129120  59.3217720
  77.8849450  31.8034790  66.6965520  78.1821780  32.7097620  66.6157540
  78.4335010  31.3153570  66.0825090  75.6387770  36.3821030  62.5657170
  75.4128690  36.1658200  63.4703790  74.8580300  36.8149490  62.2203140
  73.2097520  33.6920280  71.3851220  72.8160910  34.5395490  71.5924000
  72.5215920  33.0546650  71.5759860  79.7842570  33.7755250  74.4547960
  79.0940890  33.5827450  75.0894050  80.5274870  34.0589890  74.9872260
  70.5114570  31.6148740  65.4181300  70.2227620  32.1851600  66.1306280
  71.2560330  31.1353190  65.7812530  78.4982930  34.2907890  65.6954370
  78.5018990  33.8497840  64.8458910  79.3934050  34.6125220  65.8026190
  74.3485310  34.1734380  64.6548580  74.0085360  34.6509610  65.4115630
  73.5862630  33.7199500  64.2949680  82.5231450  33.0687370  66.7024820
  82.5404190  33.5196020  67.5466670  82.2747030  32.1693010  66.9158260
  85.9502200  30.4819550  72.5411200  86.2747970  29.7509210  73.0669180
  85.9858710  30.1633190  71.6392190  78.7990900  38.3509670  67.4419780
  79.1661030  37.8768240  68.1881120  78.6095960  39.2251240  67.7828120
  71.6631390  33.0953360  63.5713250  71.3778310  32.7309030  64.4091870
  71.6010250  32.3633820  62.9576390  76.5890270  37.3918310  69.7603990
  76.2847340  38.2710290  69.9854350  77.5436730  37.4518100  69.7961430
  81.3369980  31.9882620  60.2926620  80.5234590  31.4895790  60.2171930
  81.1431930  32.8280870  59.8762970  75.1609460  41.2659680  63.9949650
  75.6788130  40.4627940  63.9406540  74.7093480  41.2038820  64.8366480
  74.2208640  29.9623170  62.1240750  74.0923270  29.9541070  63.0725670
  73.3970660  30.3006260  61.7731760  78.0487410  35.4479490  61.5594340
  77.3403560  35.9165830  62.0007950  78.3331890  34.7901500  62.1939530
  82.0802840  32.1730150  62.9990130  81.9570620  32.1916280  62.0499640
  83.0287400  32.2209090  63.1188530  86.8810200  33.0844150  70.4015260
  86.3783800  33.8249550  70.7409070  87.6966860  33.4728150  70.0852050
  75.3460300  35.9858610  72.1894200  74.8156760  35.4949560  71.5617540
  76.0148370  36.4142810  71.6552130  75.8332600  32.9520980  72.2691490
  75.7389470  32.3341730  71.5442360  75.2529990  33.6787270  72.0421400
  78.5994040  31.5094220  69.3018880  78.1511340  31.5318480  68.4564430
  77.9659240  31.1113240  69.8989180  78.1086260  34.6786080  72.5644980
  78.6985950  34.3701930  73.2522800  77.2906500  34.2065830  72.7204880
  87.8845320  38.3583610  61.6174120  87.5088920  37.5911540  61.1855410
  87.1548440  38.7406310  62.1049050  72.4741080  39.0370750  68.2383170
  72.8414120  38.9498150  69.1179190  71.9051900  38.2737300  68.1390030
  85.7133010  32.7311560  74.0293340  86.5903190  32.7394960  74.4127340
  85.7253850  31.9942400  73.4185690  86.6496250  35.8414450  60.8573770
  87.1455370  35.6085320  61.6422650  86.4512320  35.0026290  60.4411410
  72.5296790  30.2228170  66.4924810  73.1772980  29.6725550  66.0519970
  72.9498630  30.4771320  67.3140620  88.0783410  34.4775400  63.3911450
  87.9682690  34.3231440  64.3293720  88.8391000  33.9496340  63.1486860
  86.4249130  30.4169530  69.8494450  87.0621350  31.0303670  70.2153640
  86.5724020  30.4530190  68.9043680  72.2828790  30.3783840  69.2350130
  71.9343610  30.8347660  70.0008310  71.9516490  29.4840970  69.3172560
  79.7953610  31.5695720  72.7569550  79.7342500  32.1617550  73.5064960
  80.7353990  31.4621680  72.6119810  82.4328170  31.2265780  72.3961840
  83.0468580  31.5445070  71.7342920  82.9777730  30.7414370  73.0157700
  72.9549430  29.9060040  72.5100900  73.5032420  29.7248090  71.7467010
  73.0204740  29.1154150  73.0457210  83.1736210  29.7897920  68.7231130
  82.2996050  30.1233030  68.5204060  83.0646960  29.3171100  69.5483000
  84.0808190  31.9968790  70.1072850  83.7521550  31.1820550  69.7274580
  85.0290490  31.9538600  69.9838540  80.9211030  30.7067760  67.6624040
  80.1382820  31.1813260  67.9420800  80.6273960  29.8022590  67.5537220
  85.4732100  31.4090860  65.7073130  85.9140190  31.3535960  64.8594730
  85.2039690  32.3248870  65.7783310  87.3370670  31.0406100  63.7181950
  87.2759070  30.0967320  63.5712970  88.1162700  31.1486190  64.2635410
  71.6423420  47.1798460  62.6805900  71.4745460  46.5469140  63.3787790
  70.7757930  47.3857860  62.3300090  72.2651440  31.0115240  60.1837760
  73.0230800  31.1244120  59.6101790  71.8028610  31.8484440  60.1381190
  78.8065250  33.1254510  63.1740070  77.9939760  32.7511400  62.8335950
  79.3106890  32.3699590  63.4761260  83.3090230  29.7896960  64.4123140
  83.9119600  30.3617170  64.8871660  82.5683220  30.3536400  64.1897040
  76.8314430  31.2754430  61.7785120  76.2017170  30.5741740  61.9455250
  76.2919570  32.0358560  61.5618280  76.9569990  30.5538410  74.2137610
  76.6754260  31.0572010  73.4498430  77.3389690  29.7560160  73.8479740
  83.5585450  29.9691990  74.7918080  83.4450900  30.2886600  75.6869600
  84.3755190  30.3704500  74.4955360  82.4643600  37.9884460  45.1552820
  82.3837650  37.0739070  44.8844530  82.0508020  38.4851530  44.4492530
  84.6169070  44.1723670  45.8161220  84.1550600  43.4010910  46.1448390
  85.4294620  44.1989740  46.3213670  84.8499920  32.7441490  44.2029520
  85.6709540  32.2538060  44.2455000  84.8834000  33.3339150  44.9561360
  81.7095730  41.3420920  42.8297120  81.0913000  41.8070370  42.2659840
  82.2218980  42.0348400  43.2466630  86.7024180  44.3017000  49.2384540
  86.0187700  44.9716110  49.2301210  87.2418470  44.4997650  48.4729400
  88.1548320  34.1296660  47.3666270  87.2073230  34.1635640  47.4981700
  88.4798310  34.9435610  47.7515630  85.5328340  42.8677350  43.0419890
  85.4224670  41.9251680  43.1669310  85.5296590  43.2292990  43.9282650
  81.0748620  38.4942670  42.3982380  80.1477900  38.4280050  42.6270850
  81.2273440  39.4322800  42.2837620  81.0617700  34.7659670  39.3949540
  80.1221370  34.9273630  39.4802000  81.3800960  35.4845350  38.8485530
  85.1045910  40.0562970  42.9017630  84.4858330  39.7182520  42.2543930
  85.0870360  39.4122730  43.6096820  85.2372570  46.2806840  51.0064420
  84.7603130  47.0879030  50.8137030  84.5534360  45.6285170  51.1590630
  83.2810610  39.2949780  39.9090380  83.7203890  38.4572210  39.7628200
  83.9939030  39.9279180  39.9954520  81.3905990  44.2345850  43.8771620
  81.8301900  44.9770180  43.4627010  81.3292880  44.4772420  44.8010580
  86.8627750  30.5492590  38.2231420  86.5500410  30.6419420  39.1230490
  87.6240220  31.1273620  38.1728850  84.0576170  47.2214970  41.2334630
  83.8977310  46.9317910  42.1316460  83.8922880  46.4455100  40.6979860
  83.7602300  44.7302530  39.7932630  83.0667460  44.7279820  39.1334910
  84.5025160  44.3061850  39.3626800  83.3252230  46.3565240  43.8681120
  83.7809180  45.5754620  44.1819740  83.6644750  47.0672060  44.4122300
  78.9632370  30.8798160  40.9438260  78.3386550  30.8758030  41.6691570
  78.8762490  30.0129120  40.5474230  82.8685530  36.3884400  42.3904330
  82.2694420  37.1120200  42.2067950  83.4165140  36.3261180  41.6080780
  78.5603080  35.2919970  39.9117640  78.6815900  35.2506450  40.8603460
  78.1751590  36.1544120  39.7564370  77.5724580  37.6021110  39.3100940
  77.0041480  37.1539360  38.6836850  78.2813580  37.9613890  38.7766090
  85.8760040  40.5944660  47.3753740  86.5959160  41.0899950  46.9849850
  85.6741860  39.9162550  46.7307610  81.3369980  31.9882620  41.5183130
  80.5234590  31.4895790  41.4428440  81.1431930  32.8280870  41.1019480
  84.0518370  36.3602270  39.8145290  84.9397990  36.6719500  39.6396630
  84.0223460  35.4874520  39.4225870  80.0478960  42.5325960  40.4933460
  80.3894660  43.2768190  39.9976780  79.2191670  42.8457080  40.8558290
  86.3232640  37.6714110  39.2825150  86.2396360  38.1028330  38.4321590
  87.0426830  38.1312460  39.7151970  87.3519890  44.5256370  42.0107280
  86.7096050  43.8711990  42.2851000  86.9650550  44.9311460  41.2347950
  82.9306370  41.8541800  45.8578970  83.2830190  41.2569930  45.1980340
  82.0468700  41.5286030  46.0287220  79.0169650  42.6139490  43.2649380
  79.7040780  43.1608700  43.6456970  78.2302070  43.1580220  43.2998990
  85.7417270  43.4172830  38.5483630  85.5154850  42.7003270  39.1408270
  85.3513470  43.1685270  37.7105380  71.5233300  47.4439690  39.3228090
  71.8830940  48.0429030  38.6685360  71.3825640  47.9899580  40.0963120
  85.3233520  41.3344770  40.2097790  85.0355220  41.7957460  40.9975670
  86.1185690  40.8742540  40.4782010  77.5401920  44.8270890  40.1401760
  77.5312020  45.5600580  39.5246270  76.6200280  44.5802470  40.2328720
  86.0803380  33.1693540  41.3692970  85.4516540  33.2739210  40.6551200
  85.5855300  33.3890320  42.1586850  80.5261520  44.8899130  38.8026950
  80.6273500  44.6863120  37.8728930  79.6263260  44.6357410  39.0074730
  82.0802840  32.1730150  44.2246640  81.9570620  32.1916280  43.2756150
  83.0287400  32.2209090  44.3445040  86.8810200  33.0844150  51.6271770
  86.3783800  33.8249550  51.9665580  87.6966860  33.4728150  51.3108560
  85.1732210  38.3277330  45.0733130  84.2322350  38.3427560  45.2480820
  85.4876280  37.5413290  45.5193430  75.1513850  40.0096930  38.6337090
  75.9177120  39.8978290  39.1962520  75.2288540  39.3134900  37.9813860
  73.8460610  37.4422000  39.3169980  73.9264200  36.4949510  39.4287380
  74.7380360  37.7728880  39.4230640  87.1757790  45.4986180  46.7487390
  87.3005210  46.3217350  47.2211200  88.0423350  45.2876910  46.4011540
  77.7577630  46.7647700  38.2430090  78.5506240  47.0536530  37.7911880
  77.2381980  46.3339870  37.5642570  86.8107800  45.9917830  39.6666830
  86.5249310  45.5782970  38.8521010  86.6127350  46.9205540  39.5467350
  78.2755030  41.9851110  38.1072440  78.1705670  41.3703460  38.8333820
  78.1079250  41.4617000  37.3235450  81.5157760  41.0471140  38.7114430
  80.9667860  41.4940440  39.3557170  82.1377020  40.5420390  39.2352100
  77.1832880  40.0062060  40.6079730  77.6049300  39.8401930  41.4511120
  77.3083720  39.1962290  40.1134870  79.6960520  39.0299670  37.8556830
  80.2166180  38.3148690  37.4897980  80.3428920  39.6685540  38.1557340
  76.0791780  36.0795290  37.5537890  75.8780840  35.2162650  37.9151230
  75.9083830  35.9928650  36.6159490  83.5580090  30.8903520  40.0824770
  83.8382380  30.0471420  40.4384190  82.7845820  31.1226630  40.5963520
  74.8774580  33.1795910  37.5415770  75.1800480  33.1863340  36.6334920
  75.6169170  32.8293770  38.0383430  78.0959510  32.1230530  38.5271970
  77.7481510  31.4454520  37.9474420  78.2972280  31.6620040  39.3415360
  80.2608550  47.1111280  40.1458570  81.1559340  47.4496250  40.1677330
  80.2926180  46.3890690  39.5182850  73.9004710  42.4838330  38.3745570
  74.3379580  43.0268000  39.0303150  74.3852440  41.6585280  38.3841910
  88.4804350  43.3832770  38.1894480  87.6497310  43.4509420  38.6601710
  88.6576180  44.2736890  37.8861340  87.9360810  40.1280250  40.6928680
  88.6979720  40.6976900  40.7988370  87.9515180  39.5607450  41.4636990
  88.9420780  40.9830350  45.5370610  89.3129610  40.1997670  45.1306580
  89.5822710  41.6719450  45.3587910  87.9879980  40.4214620  37.8501200
  88.2628820  41.3293500  37.7220420  87.7990720  40.3577150  38.7863190
  84.3855590  33.4459470  39.1454830  84.8040470  33.2590450  38.3051490
  84.0791650  32.5938520  39.4557760  87.8845320  38.3583610  42.8430630
  87.5088920  37.5911540  42.4111920  87.1548440  38.7406310  43.3305560
  87.1596280  36.5841100  46.1437870  87.6833760  36.0903750  45.5128040
  87.7455700  36.7191460  46.8885440  73.1930440  34.9182650  38.7756050
  73.9022140  34.4965870  38.2903330  72.4770380  34.9857880  38.1439400
  72.8404600  30.9721980  37.8158700  73.5632730  31.5130920  38.1339920
  73.1129120  30.6985400  36.9400240  86.6496250  35.8414450  42.0830280
  87.1455370  35.6085320  42.8679160  86.4512320  35.0026290  41.6667920
  88.0783410  34.4775400  44.6167960  87.9682690  34.3231440  45.5550230
  88.8391000  33.9496340  44.3743370  86.4249130  30.4169530  51.0750960
  87.0621350  31.0303670  51.4410150  86.5724020  30.4530190  50.1300190
  88.9673680  32.3083320  37.8574100  89.8922990  32.1764500  37.6492390
  88.9449470  32.3876140  38.8110550  89.0412170  33.0793980  40.4830810
  88.2463670  33.0139100  41.0123720  89.2455450  34.0144620  40.4716160
  85.9830590  47.1185530  44.4769200  86.5789660  46.7970100  43.8003620
  86.2408740  46.6457350  45.2682470  83.1736210  29.7897920  49.9487640
  82.2996050  30.1233030  49.7460570  83.0646960  29.3171100  50.7739510
  86.5342800  47.7680830  48.3066930  86.0745770  48.5196640  47.9324950
  85.9055260  47.0487300  48.2481730  85.4732100  31.4090860  46.9329640
  85.9140190  31.3535960  46.0851240  85.2039690  32.3248870  47.0039820
  87.3370670  31.0406100  44.9438460  87.2759070  30.0967320  44.7969480
  88.1162700  31.1486190  45.4891920  83.3090230  29.7896960  45.6379650
  83.9119600  30.3617170  46.1128170  82.5683220  30.3536400  45.4153550
  86.4524830  30.1918520  40.9119930  86.6475460  31.0901970  41.1787360
  85.6654700  29.9605600  41.4052880  88.0051440  47.4319230  42.6726490
  88.1803630  46.7456970  42.0287410  87.3073010  47.9566280  42.2803160
  75.8479090  47.8214070  40.2261800  76.5797910  47.5373350  39.6785690
  76.1072760  47.5827350  41.1161180  82.4643600  37.9884460  26.3809330
  82.3837650  37.0739070  26.1101040  82.0508020  38.4851530  25.6749040
  80.5961640  39.7663480  28.2618600  79.8203740  39.2863920  28.5517170
  81.2474570  39.0869130  28.0874760  74.6127470  40.0783290  29.1394360
  73.7812350  39.8232000  29.5390870  75.2208450  40.1494060  29.8752280
  84.6169070  44.1723670  27.0417730  84.1550600  43.4010910  27.3704900
  85.4294620  44.1989740  27.5470180  74.5928730  44.1123380  29.3352380
  74.8956770  43.2221120  29.1562600  75.3372320  44.6693600  29.1074630
  73.0219420  35.0385180  22.9236750  72.1336120  35.3801150  22.8216630
  73.3060610  34.8385500  22.0317580  70.9852430  37.6390830  28.8076450
  71.5568540  36.8713030  28.8080090  70.9853970  37.9379590  27.8983060
  80.8432380  46.4581680  26.6621720  80.2243820  46.9139180  26.0916160
  81.6984160  46.6133140  26.2611420  80.0370630  42.4420670  28.2688760
  79.9678910  41.5010610  28.1077890  80.7990490  42.5322080  28.8411330
  72.2277300  33.0475190  30.5945380  72.0480140  32.1500940  30.8748140
  71.8257380  33.5947060  31.2692330  81.0675800  35.2491050  28.4957690
  81.4440620  34.3762930  28.3831360  80.9695310  35.5849750  27.6048130
  75.1980810  33.6216680  23.9575130  75.3047560  34.5220410  24.2643890
  74.2873170  33.5734650  23.6669780  84.8499920  32.7441490  25.4286030
  85.6709540  32.2538060  25.4711510  84.8834000  33.3339150  26.1817870
  72.8463970  35.5435690  29.2027720  73.5274080  35.8074060  29.8215120
  72.5312020  34.7036560  29.5365730  77.0388540  36.5903050  28.2900310
  77.5466760  37.0884020  28.9305330  77.5701780  35.8138250  28.1139670
  89.1399470  34.7608240  31.9929660  88.4351640  35.1489950  31.4744770
  89.4057390  35.4558530  32.5950590  75.3224640  31.2301610  32.5563730
  75.3243080  31.7474000  31.7509630  74.4928950  30.7531790  32.5333660
  81.7095730  41.3420920  24.0553630  81.0913000  41.8070370  23.4916350
  82.2218980  42.0348400  24.4723140  76.5727490  40.8696790  30.7337230
  76.2396870  41.4965710  31.3758300  76.7494170  41.3958670  29.9538900
  85.0861400  34.6841870  28.2013570  84.3816970  34.9726760  28.7816680
  85.4473560  35.4941980  27.8413130  75.0039970  32.9411570  30.5634180
  75.3456780  33.7853620  30.2688050  74.0655780  33.0895310  30.6799520
  75.7846590  42.8377590  32.5486410  76.4020590  43.5128670  32.2670860
  74.9239710  43.2465570  32.4573910  71.0778930  42.0277450  21.4293260
  70.7006910  42.5164550  20.6978160  71.3352000  42.7002730  22.0599790
  86.7024180  44.3017000  30.4641050  86.0187700  44.9716110  30.4557720
  87.2418470  44.4997650  29.6985910  88.1548320  34.1296660  28.5922780
  87.2073230  34.1635640  28.7238210  88.4798310  34.9435610  28.9772140
  78.6867860  30.4293840  26.8878770  78.9942840  29.8740730  26.1714270
  77.7568560  30.5638300  26.7051760  84.2382920  46.1461130  29.1786230
  84.2510080  45.7423420  28.3108490  83.6858140  46.9208420  29.0747660
  85.5328340  42.8677350  24.2676400  85.4224670  41.9251680  24.3925820
  85.5296590  43.2292990  25.1539160  83.6368360  41.0490970  30.5068840
  84.0537150  40.8351080  29.6722300  84.3608180  41.3063760  31.0777460
  81.0748620  38.4942670  23.6238890  80.1477900  38.4280050  23.8527360
  81.2273440  39.4322800  23.5094130  81.0617700  34.7659670  20.6206050
  80.1221370  34.9273630  20.7058510  81.3800960  35.4845350  20.0742040
  87.5830460  39.4478190  30.5985080  86.7549090  39.5171280  30.1235210
  88.1780940  40.0332500  30.1300910  85.1045910  40.0562970  24.1274140
  84.4858330  39.7182520  23.4800440  85.0870360  39.4122730  24.8353330
  84.5472470  36.2347510  31.5439950  84.1343650  37.0601220  31.7979940
  83.8148420  35.6492550  31.3516310  76.6805260  39.0207410  26.4058620
  76.2762260  38.3084660  25.9104520  76.7668380  38.6760650  27.2946660
  77.1486960  42.7074970  28.5697830  76.8515250  42.1020440  27.8905610
  78.0986780  42.7452280  28.4587190  75.3933880  35.7950620  30.1857660
  75.9448470  35.9045960  29.4110910  75.9077390  36.1688220  30.9012890
  85.2372570  46.2806840  32.2320930  84.7603130  47.0879030  32.0393540
  84.5534360  45.6285170  32.3847140  76.2405390  42.4456660  35.2205630
  75.3433920  42.6696630  35.4679030  76.2658260  42.5691600  34.2717030
  83.2810610  39.2949780  21.1346890  83.7203890  38.4572210  20.9884710
  83.9939030  39.9279180  21.2211030  75.0676610  39.3169980  33.7963000
  74.9284380  40.1892780  34.1650400  74.1857970  38.9742790  33.6510940
  81.3905990  44.2345850  25.1028130  81.8301900  44.9770180  24.6883520
  81.3292880  44.4772420  26.0267090  76.8656960  45.2591680  36.0048150
  76.8372390  45.6634630  35.1376580  76.7021930  44.3302040  35.8419750
  86.8627750  30.5492590  19.4487930  86.5500410  30.6419420  20.3487000
  87.6240220  31.1273620  19.3985360  73.3809890  37.9152390  23.9065270
  73.2607490  38.6414480  23.2946540  73.0710780  37.1455300  23.4293180
  88.8171780  46.0418780  37.3012320  89.2931500  46.5201670  37.9801400
  89.4378940  45.9736270  36.5757820  71.0195260  41.0867530  29.7133910
  71.0975680  41.2216300  28.7689630  71.6336940  40.3783420  29.9062030
  72.2642890  42.7867720  26.1240090  71.8570970  42.9282310  25.2693690
  73.1555900  42.5027880  25.9211300  88.2205030  43.2331630  34.4612330
  88.3468090  42.9943510  33.5429510  88.2626410  42.4016170  34.9334410
  82.0821770  46.9359630  33.0307140  82.5966440  46.8467640  33.8329570
  81.2390850  47.2819330  33.3235050  84.0576170  47.2214970  22.4591140
  83.8977310  46.9317910  23.3572970  83.8922880  46.4455100  21.9236370
  76.5364550  47.0013500  24.2362760  76.3607030  46.0849040  24.0230560
  75.6820290  47.3600790  24.4760560  83.7602300  44.7302530  21.0189140
  83.0667460  44.7279820  20.3591420  84.5025160  44.3061850  20.5883310
  83.3252230  46.3565240  25.0937630  83.7809180  45.5754620  25.4076250
  83.6644750  47.0672060  25.6378810  88.0729040  35.2864090  35.4262070
  87.4573310  35.7943760  34.8977530  87.7525460  34.3862420  35.3688010
  71.0754780  42.1281700  32.2528370  71.2385820  41.6587060  31.4347740
  71.5407230  41.6205260  32.9177210  75.8473550  31.2587460  27.2888940
  75.4041700  32.0397000  26.9573460  76.4058540  31.5817350  27.9959880
  80.1343360  34.1255980  32.8924260  79.6722730  34.3339000  33.7044200
  79.7321470  33.3115330  32.5894930  85.1347870  35.3464930  34.0220920
  84.2841460  35.0470680  34.3429990  84.9749660  35.5906940  33.1104740
  82.2297580  36.8466680  36.1219710  82.5550990  36.0130430  35.7821940
  83.0177910  37.3695200  36.2698040  78.9632370  30.8798160  22.1694770
  78.3386550  30.8758030  22.8948080  78.8762490  30.0129120  21.7730740
  77.8849450  31.8034790  29.1478540  78.1821780  32.7097620  29.0670560
  78.4335010  31.3153570  28.5338110  75.6387770  36.3821030  25.0170190
  75.4128690  36.1658200  25.9216810  74.8580300  36.8149490  24.6716160
  82.8685530  36.3884400  23.6160840  82.2694420  37.1120200  23.4324460
  83.4165140  36.3261180  22.8337290  78.0786980  37.2806610  35.6830460
  77.9830580  36.3401340  35.5330860  78.9218960  37.5021680  35.2878530
  81.4750400  35.0247940  25.6464120  81.8679970  35.3420140  24.8332810
  81.8367250  34.1459820  25.7608640  73.2097520  33.6920280  33.8364240
  72.8160910  34.5395490  34.0437020  72.5215920  33.0546650  34.0272880
  79.7842570  33.7755250  36.9060980  79.0940890  33.5827450  37.5407070
  80.5274870  34.0589890  37.4385280  70.5114570  31.6148740  27.8694320
  70.2227620  32.1851600  28.5819300  71.2560330  31.1353190  28.2325550
  70.6984800  35.5568860  19.0797040  70.6159470  36.4999620  19.2212030
  70.3467860  35.4143770  18.2009390  82.0605540  37.6153690  29.7414900
  81.3286660  38.1240500  30.0905000  81.6629880  36.7983670  29.4403680
  78.4982930  34.2907890  28.1467390  78.5018990  33.8497840  27.2971930
  79.3934050  34.6125220  28.2539210  74.3485310  34.1734380  27.1061600
  74.0085360  34.6509610  27.8628650  73.5862630  33.7199500  26.7462700
  78.5603080  35.2919970  21.1374150  78.6815900  35.2506450  22.0859970
  78.1751590  36.1544120  20.9820880  82.5231450  33.0687370  29.1537840
  82.5404190  33.5196020  29.9979690  82.2747030  32.1693010  29.3671280
  77.5724580  37.6021110  20.5357450  77.0041480  37.1539360  19.9093360
  78.2813580  37.9613890  20.0022600  85.9502200  30.4819550  34.9924220
  86.2747970  29.7509210  35.5182200  85.9858710  30.1633190  34.0905210
  72.6493760  41.5033130  34.4124180  72.2648550  40.8626800  35.0107140
  72.9605950  42.2069250  34.9818910  78.7990900  38.3509670  29.8932800
  79.1661030  37.8768240  30.6394140  78.6095960  39.2251240  30.2341140
  71.6631390  33.0953360  26.0226270  71.3778310  32.7309030  26.8604890
  71.6010250  32.3633820  25.4089410  76.5890270  37.3918310  32.2117010
  76.2847340  38.2710290  32.4367370  77.5436730  37.4518100  32.2474450
  75.1172060  41.5979300  22.8083860  74.3434320  41.0576920  22.6482580
  75.8466690  41.0785910  22.4701620  85.8760040  40.5944660  28.6010250
  86.5959160  41.0899950  28.2106360  85.6741860  39.9162550  27.9564120
  81.3369980  31.9882620  22.7439640  80.5234590  31.4895790  22.6684950
  81.1431930  32.8280870  22.3275990  81.2578840  40.6653720  34.4879250
  81.1916150  39.7449390  34.2336840  80.6283980  40.7629160  35.2023890
  84.0518370  36.3602270  21.0401800  84.9397990  36.6719500  20.8653140
  84.0223460  35.4874520  20.6482380  75.1609460  41.2659680  26.4462670
  75.6788130  40.4627940  26.3919560  74.7093480  41.2038820  27.2879500
  80.0478960  42.5325960  21.7189970  80.3894660  43.2768190  21.2233290
  79.2191670  42.8457080  22.0814800  72.6454000  38.2321050  33.3588370
  72.2868940  38.8974900  33.9461710  72.3508560  37.4004600  33.7300990
  75.8467120  38.6905290  36.2427920  75.5467260  38.8362470  35.3455740
  76.6178360  38.1310580  36.1501310  81.1895570  43.4874290  34.2383050
  81.2040110  42.5555250  34.0201960  80.4820670  43.5734050  34.8772820
  86.3232640  37.6714110  20.5081660  86.2396360  38.1028330  19.6578100
  87.0426830  38.1312460  20.9408480  87.4006780  40.1281630  33.5851630
  86.6754970  40.7210410  33.3881020  87.9282240  40.1205170  32.7865000
  87.3519890  44.5256370  23.2363790  86.7096050  43.8711990  23.5107510
  86.9650550  44.9311460  22.4604460  82.9306370  41.8541800  27.0835480
  83.2830190  41.2569930  26.4236850  82.0468700  41.5286030  27.2543730
  79.0169650  42.6139490  24.4905890  79.7040780  43.1608700  24.8713480
  78.2302070  43.1580220  24.5255500  71.1562050  38.2312310  19.9822970
  72.0256900  38.5137110  20.2658890  70.6652370  39.0448180  19.8671780
  78.3196860  39.6185520  24.1031250  78.7759640  40.4290770  24.3291440
  77.9685070  39.3008660  24.9349740  80.6229470  45.1291860  31.3323550
  81.2671690  45.3351240  32.0096970  80.9858910  44.3680260  30.8794400
  74.2208640  29.9623170  24.5753770  74.0923270  29.9541070  25.5238690
  73.3970660  30.3006260  24.2244780  81.8961550  43.1324210  30.0501000
  82.5383780  42.4317370  30.1633170  82.4210900  43.9122650  29.8697890
  85.7417270  43.4172830  19.7740140  85.5154850  42.7003270  20.3664780
  85.3513470  43.1685270  18.9361890  83.6699170  43.9319110  33.2537060
  84.0055410  44.5185800  33.9314980  82.7499510  43.8011820  33.4834850
  71.5233300  47.4439690  20.5484600  71.8830940  48.0429030  19.8941870
  71.3825640  47.9899580  21.3219630  71.2202570  31.7214290  34.0360470
  70.5061090  31.9211210  34.6413080  71.6397610  30.9453860  34.4075270
  85.3233520  41.3344770  21.4354300  85.0355220  41.7957460  22.2232180
  86.1185690  40.8742540  21.7038520  71.5075160  45.7094550  35.0227000
  71.6166280  44.7689290  34.8822390  70.8555720  45.9749300  34.3740730
  79.4987750  43.9810440  36.4225120  79.1784620  43.2619680  36.9670810
  78.8246110  44.6565510  36.4961180  77.5401920  44.8270890  21.3658270
  77.5312020  45.5600580  20.7502780  76.6200280  44.5802470  21.4585230
  73.1408560  40.0485780  22.1105030  72.5336510  40.7884680  22.1200330
  73.6157910  40.1385140  21.2843230  82.7141350  34.2136600  31.7861920
  83.0822170  33.3931810  32.1141490  81.8539550  34.2738490  32.2017570
  86.0803380  33.1693540  22.5949480  85.4516540  33.2739210  21.8807710
  85.5855300  33.3890320  23.3843360  80.5261520  44.8899130  20.0283460
  80.6273500  44.6863120  19.0985440  79.6263260  44.6357410  20.2331240
  78.0487410  35.4479490  24.0107360  77.3403560  35.9165830  24.4520970
  78.3331890  34.7901500  24.6452550  79.6743340  36.8676190  32.0099890
  80.1728590  37.3422010  32.6751740  79.8166290  35.9439710  32.2169920
  82.0802840  32.1730150  25.4503150  81.9570620  32.1916280  24.5012660
  83.0287400  32.2209090  25.5701550  79.1679630  47.4085450  24.7231130
  79.4221130  47.3706840  23.8010500  78.2192110  47.2818780  24.7159380
  76.2522430  33.7564570  21.3858070  77.1012960  34.1934720  21.3198260
  75.8853700  34.0684830  22.2130130  86.8810200  33.0844150  32.8528280
  86.3783800  33.8249550  33.1922090  87.6966860  33.4728150  32.5365070
  85.1732210  38.3277330  26.2989640  84.2322350  38.3427560  26.4737330
  85.4876280  37.5413290  26.7449940  75.1513850  40.0096930  19.8593600
  75.9177120  39.8978290  20.4219030  75.2288540  39.3134900  19.2070370
  73.8460610  37.4422000  20.5426490  73.9264200  36.4949510  20.6543890
  74.7380360  37.7728880  20.6487150  87.1757790  45.4986180  27.9743900
  87.3005210  46.3217350  28.4467710  88.0423350  45.2876910  27.6268050
  74.6475320  47.5917390  27.6461030  75.3837800  47.0432850  27.9169600
  75.0316240  48.4573400  27.5067020  71.5320800  43.6590960  23.5202540
  70.6060580  43.9012100  23.5107950  71.9977230  44.4865220  23.3987290
  73.6533600  46.7763460  36.8346610  74.4546330  47.0975510  37.2482010
  73.1385420  46.4159040  37.5566520  77.7577630  46.7647700  19.4686600
  78.5506240  47.0536530  19.0168390  77.2381980  46.3339870  18.7899080
  82.4898230  42.8843330  36.7822020  81.8836390  42.9074930  36.0417770
  82.1852340  42.1526370  37.3189270  83.9198600  46.6123620  35.3931430
  84.8720350  46.5281640  35.3431670  83.7726820  47.2765330  36.0665220
  86.8107800  45.9917830  20.8923340  86.5249310  45.5782970  20.0777520
  86.6127350  46.9205540  20.7723860  71.3731410  39.2636920  35.7782660
  71.8770430  38.6844200  36.3498890  70.6338830  39.5477150  36.3159030
  78.2755030  41.9851110  19.3328950  78.1705670  41.3703460  20.0590330
  78.1079250  41.4617000  18.5491960  78.4269350  40.6707910  35.3118180
  77.6615020  41.2392910  35.2272850  78.6085310  40.3784120  34.4186410
  81.5157760  41.0471140  19.9370940  80.9667860  41.4940440  20.5813680
  82.1377020  40.5420390  20.4608610  85.5692700  42.4013240  35.8693200
  86.3102170  42.7389000  35.3660660  84.8065380  42.5705300  35.3162970
  73.4054490  37.4066510  36.6732730  73.4459830  37.1080380  37.5817960
  74.2599990  37.8074120  36.5140250  77.1832880  40.0062060  21.8336240
  77.6049300  39.8401930  22.6767630  77.3083720  39.1962290  21.3391380
  75.3460300  35.9858610  34.6407220  74.8156760  35.4949560  34.0130560
  76.0148370  36.4142810  34.1065150  79.6960520  39.0299670  19.0813340
  80.2166180  38.3148690  18.7154490  80.3428920  39.6685540  19.3813850
  84.2438360  40.4528070  34.4048410  84.6579380  40.6073150  35.2538830
  83.3089360  40.5783290  34.5674190  84.7160530  37.7924230  36.4087560
  85.2981300  37.0376550  36.3208040  84.8922300  38.3231670  35.6319040
  75.8332600  32.9520980  34.7204510  75.7389470  32.3341730  33.9955380
  75.2529990  33.6787270  34.4934420  78.5994040  31.5094220  31.7531900
  78.1511340  31.5318480  30.9077450  77.9659240  31.1113240  32.3502200
  79.0053590  40.4048550  32.3744340  79.4241700  41.2481280  32.2020580
  78.0862220  40.5420590  32.1451120  81.3417490  38.1364730  33.7582180
  81.4613700  37.5405870  34.4977020  82.2011490  38.1734420  33.3383480
  83.6805390  38.6901920  32.3344690  83.1540610  39.2144540  31.7309830
  84.0236730  39.3229310  32.9654420  76.0791780  36.0795290  18.7794400
  75.8780840  35.2162650  19.1407740  75.9083830  35.9928650  17.8416000
  76.8561010  46.7101560  33.4902070  76.3182100  47.4347620  33.1710770
  77.1094970  46.2331900  32.6999410  78.1086260  34.6786080  35.0158000
  78.6985950  34.3701930  35.7035820  77.2906500  34.2065830  35.1717900
  82.9279690  34.2951890  35.2491020  82.2395210  33.6333430  35.1841010
  83.6485710  33.8490160  35.6939480  83.5580090  30.8903520  21.3081280
  83.8382380  30.0471420  21.6640700  82.7845820  31.1226630  21.8220030
  74.8774580  33.1795910  18.7672280  75.1800480  33.1863340  17.8591430
  75.6169170  32.8293770  19.2639940  79.7123220  47.9452770  33.7488720
  79.6381920  48.8487910  34.0561090  78.8102060  47.6264670  33.7210790
  78.0959510  32.1230530  19.7528480  77.7481510  31.4454520  19.1730930
  78.2972280  31.6620040  20.5671870  80.2608550  47.1111280  21.3715080
  81.1559340  47.4496250  21.3933840  80.2926180  46.3890690  20.7439360
  73.9004710  42.4838330  19.6002080  74.3379580  43.0268000  20.2559660
  74.3852440  41.6585280  19.6098420  71.1150510  45.2727360  27.0522340
  71.4453520  44.4048420  26.8200980  71.5441510  45.4785880  27.8827300
  75.7112430  43.6036370  24.7124310  75.4107970  43.4801340  25.6128220
  75.6049920  42.7444960  24.3040040  71.6040720  46.1397950  29.7903970
  71.1671710  46.3198750  30.6228120  72.1718400  46.8972570  29.6485690
  87.2402900  45.6414950  34.0781280  86.6404890  45.7007510  33.3345200
  87.3696800  44.7019930  34.2078130  88.4804350  43.3832770  19.4150990
  87.6497310  43.4509420  19.8858220  88.6576180  44.2736890  19.1117850
  87.9360810  40.1280250  21.9185190  88.6979720  40.6976900  22.0244880
  87.9515180  39.5607450  22.6893500  71.4365150  38.6518180  26.1492850
  70.7813990  38.3829820  25.5052550  72.2743100  38.5422660  25.6994830
  88.9420780  40.9830350  26.7627120  89.3129610  40.1997670  26.3563090
  89.5822710  41.6719450  26.5844420  85.9254540  42.3666930  32.1757440
  85.1114380  42.7964090  32.4383230  86.3328740  42.9785340  31.5626490
  87.9879980  40.4214620  19.0757710  88.2628820  41.3293500  18.9476930
  87.7990720  40.3577150  20.0119700  84.3855590  33.4459470  20.3711340
  84.8040470  33.2590450  19.5308000  84.0791650  32.5938520  20.6814270
  87.8845320  38.3583610  24.0687140  87.5088920  37.5911540  23.6368430
  87.1548440  38.7406310  24.5562070  72.4741080  39.0370750  30.6896190
  72.8414120  38.9498150  31.5692210  71.9051900  38.2737300  30.5903050
  87.2744940  37.5055130  33.7026660  87.0431030  37.2767880  32.8024610
  87.5349490  38.4254680  33.6571550  72.0257080  35.9479840  34.5954610
  71.1313130  35.9146600  34.9348320  72.5654630  36.1466630  35.3605860
  85.7133010  32.7311560  36.4806360  86.5903190  32.7394960  36.8640360
  85.7253850  31.9942400  35.8698710  70.6503230  35.8617110  22.0918180
  69.7467310  36.1247310  21.9169840  71.1343850  36.1328280  21.3118140
  87.1596280  36.5841100  27.3694380  87.6833760  36.0903750  26.7384550
  87.7455700  36.7191460  28.1141950  87.3386000  36.6680970  30.8913930
  86.3888710  36.6344510  31.0058920  87.5199010  37.5781080  30.6563700
  73.1930440  34.9182650  20.0012560  73.9022140  34.4965870  19.5159840
  72.4770380  34.9857880  19.3695910  72.8404600  30.9721980  19.0415210
  73.5632730  31.5130920  19.3596430  73.1129120  30.6985400  18.1656750
  86.6496250  35.8414450  23.3086790  87.1455370  35.6085320  24.0935670
  86.4512320  35.0026290  22.8924430  72.5296790  30.2228170  28.9437830
  73.1772980  29.6725550  28.5032990  72.9498630  30.4771320  29.7653640
  88.0783410  34.4775400  25.8424470  87.9682690  34.3231440  26.7806740
  88.8391000  33.9496340  25.5999880  86.4249130  30.4169530  32.3007470
  87.0621350  31.0303670  32.6666660  86.5724020  30.4530190  31.3556700
  88.9673680  32.3083320  19.0830610  89.8922990  32.1764500  18.8748900
  88.9449470  32.3876140  20.0367060  89.0412170  33.0793980  21.7087320
  88.2463670  33.0139100  22.2380230  89.2455450  34.0144620  21.6972670
  85.9830590  47.1185530  25.7025710  86.5789660  46.7970100  25.0260130
  86.2408740  46.6457350  26.4938980  72.2828790  30.3783840  31.6863150
  71.9343610  30.8347660  32.4521330  71.9516490  29.4840970  31.7685580
  73.8893160  43.5503440  35.8516340  73.8462790  43.1796350  36.7330800
  74.0204170  44.4881010  35.9918160  77.5899190  45.1063030  31.4526060
  77.3490550  45.3737590  30.5656580  78.5301830  45.2768760  31.5076920
  79.7953610  31.5695720  35.2082570  79.7342500  32.1617550  35.9577980
  80.7353990  31.4621680  35.0632830  82.4328170  31.2265780  34.8474860
  83.0468580  31.5445070  34.1855940  82.9777730  30.7414370  35.4670720
  88.8503350  47.1257410  32.2536700  88.3561630  47.5226280  31.5363830
  88.2416640  46.5006620  32.6473980  72.9549430  29.9060040  34.9613920
  73.5032420  29.7248090  34.1980030  73.0204740  29.1154150  35.4970230
  73.7281190  46.4965690  32.9714120  73.1341510  46.3650390  33.7104160
  73.7205030  45.6603830  32.5056220  83.1736210  29.7897920  31.1744150
  82.2996050  30.1233030  30.9717080  83.0646960  29.3171100  31.9996020
  84.0808190  31.9968790  32.5585870  83.7521550  31.1820550  32.1787600
  85.0290490  31.9538600  32.4351560  86.5342800  47.7680830  29.5323440
  86.0745770  48.5196640  29.1581460  85.9055260  47.0487300  29.4738240
  73.3593420  43.8624070  31.9222160  72.6327480  43.2429360  31.8548110
  73.4202570  44.2564680  31.0520240  76.9638520  46.0769070  28.7071570
  77.4803540  45.4656430  28.1819830  77.6135900  46.5797850  29.1982580
  79.7034020  46.9677560  29.5340550  79.9911830  46.7131860  28.6573560
  80.2157240  46.4154920  30.1246120  80.9211030  30.7067760  30.1137060
  80.1382820  31.1813260  30.3933820  80.6273960  29.8022590  30.0050240
  85.4732100  31.4090860  28.1586150  85.9140190  31.3535960  27.3107750
  85.2039690  32.3248870  28.2296330  87.3370670  31.0406100  26.1694970
  87.2759070  30.0967320  26.0225990  88.1162700  31.1486190  26.7148430
  71.6423420  47.1798460  25.1318920  71.4745460  46.5469140  25.8300810
  70.7757930  47.3857860  24.7813110  72.2651440  31.0115240  22.6350780
  73.0230800  31.1244120  22.0614810  71.8028610  31.8484440  22.5894210
  78.8065250  33.1254510  25.6253090  77.9939760  32.7511400  25.2848970
  79.3106890  32.3699590  25.9274280  83.3090230  29.7896960  26.8636160
  83.9119600  30.3617170  27.3384680  82.5683220  30.3536400  26.6410060
  86.4524830  30.1918520  22.1376440  86.6475460  31.0901970  22.4043870
  85.6654700  29.9605600  22.6309390  73.2486120  45.8731690  22.5769060
  72.7233740  46.2539720  21.8731020  73.1730700  46.4982460  23.2978770
  74.6376590  31.5379290  21.1752750  75.1669350  30.7509090  21.0460700
  75.2704910  32.2170480  21.4088280  76.8314430  31.2754430  24.2298140
  76.2017170  30.5741740  24.3968270  76.2919570  32.0358560  24.0131300
  79.7706380  47.8893660  36.9008750  80.6973690  47.6537930  36.9444710
  79.7556810  48.7165660  36.4194780  88.0051440  47.4319230  23.8983000
  88.1803630  46.7456970  23.2543920  87.3073010  47.9566280  23.5059670
  76.9569990  30.5538410  36.6650630  76.6754260  31.0572010  35.9011450
  77.3389690  29.7560160  36.2992760  75.8479090  47.8214070  21.4518310
  76.5797910  47.5373350  20.9042200  76.1072760  47.5827350  22.3417690
  75.0093880  43.9378800  21.4564640  74.3802760  44.4063900  22.0050470
  75.1241710  43.0928020  21.8910830  83.5585450  29.9691990  37.2431100
  83.4450900  30.2886600  38.1382620  84.3755190  30.3704500  36.9468380
  86.3383940  47.1163520  36.7249790  87.1309260  46.6212750  36.5175750
  86.6317090  47.7953660  37.3325400  82.4643600  37.9884460   7.6065840
  82.3837650  37.0739070   7.3357550  82.0508020  38.4851530   6.9005550
  80.5961640  39.7663480   9.4875110  79.8203740  39.2863920   9.7773680
  81.2474570  39.0869130   9.3131270  74.6127470  40.0783290  10.3650870
  73.7812350  39.8232000  10.7647380  75.2208450  40.1494060  11.1008790
  84.6169070  44.1723670   8.2674240  84.1550600  43.4010910   8.5961410
  85.4294620  44.1989740   8.7726690  74.5928730  44.1123380  10.5608890
  74.8956770  43.2221120  10.3819110  75.3372320  44.6693600  10.3331140
  73.0219420  35.0385180   4.1493260  72.1336120  35.3801150   4.0473140
  73.3060610  34.8385500   3.2574090  70.9852430  37.6390830  10.0332960
  71.5568540  36.8713030  10.0336600  70.9853970  37.9379590   9.1239570
  80.8432380  46.4581680   7.8878230  80.2243820  46.9139180   7.3172670
  81.6984160  46.6133140   7.4867930  80.0370630  42.4420670   9.4945270
  79.9678910  41.5010610   9.3334400  80.7990490  42.5322080  10.0667840
  72.2277300  33.0475190  11.8201890  72.0480140  32.1500940  12.1004650
  71.8257380  33.5947060  12.4948840  81.0675800  35.2491050   9.7214200
  81.4440620  34.3762930   9.6087870  80.9695310  35.5849750   8.8304640
  75.1980810  33.6216680   5.1831640  75.3047560  34.5220410   5.4900400
  74.2873170  33.5734650   4.8926290  84.8499920  32.7441490   6.6542540
  85.6709540  32.2538060   6.6968020  84.8834000  33.3339150   7.4074380
  72.8463970  35.5435690  10.4284230  73.5274080  35.8074060  11.0471630
  72.5312020  34.7036560  10.7622240  77.0388540  36.5903050   9.5156820
  77.5466760  37.0884020  10.1561840  77.5701780  35.8138250   9.3396180
  89.1399470  34.7608240  13.2186170  88.4351640  35.1489950  12.7001280
  89.4057390  35.4558530  13.8207100  75.3224640  31.2301610  13.7820240
  75.3243080  31.7474000  12.9766140  74.4928950  30.7531790  13.7590170
  81.7095730  41.3420920   5.2810140  81.0913000  41.8070370   4.7172860
  82.2218980  42.0348400   5.6979650  76.5727490  40.8696790  11.9593740
  76.2396870  41.4965710  12.6014810  76.7494170  41.3958670  11.1795410
  85.0861400  34.6841870   9.4270080  84.3816970  34.9726760  10.0073190
  85.4473560  35.4941980   9.0669640  75.0039970  32.9411570  11.7890690
  75.3456780  33.7853620  11.4944560  74.0655780  33.0895310  11.9056030
  75.7846590  42.8377590  13.7742920  76.4020590  43.5128670  13.4927370
  74.9239710  43.2465570  13.6830420  71.0778930  42.0277450   2.6549770
  70.7006910  42.5164550   1.9234670  71.3352000  42.7002730   3.2856300
  86.7024180  44.3017000  11.6897560  86.0187700  44.9716110  11.6814230
  87.2418470  44.4997650  10.9242420  88.1548320  34.1296660   9.8179290
  87.2073230  34.1635640   9.9494720  88.4798310  34.9435610  10.2028650
  78.6867860  30.4293840   8.1135280  78.9942840  29.8740730   7.3970780
  77.7568560  30.5638300   7.9308270  84.2382920  46.1461130  10.4042740
  84.2510080  45.7423420   9.5365000  83.6858140  46.9208420  10.3004170
  85.5328340  42.8677350   5.4932910  85.4224670  41.9251680   5.6182330
  85.5296590  43.2292990   6.3795670  83.6368360  41.0490970  11.7325350
  84.0537150  40.8351080  10.8978810  84.3608180  41.3063760  12.3033970
  81.0748620  38.4942670   4.8495400  80.1477900  38.4280050   5.0783870
  81.2273440  39.4322800   4.7350640  81.0617700  34.7659670   1.8462560
  80.1221370  34.9273630   1.9315020  81.3800960  35.4845350   1.2998550
  87.5830460  39.4478190  11.8241590  86.7549090  39.5171280  11.3491720
  88.1780940  40.0332500  11.3557420  85.1045910  40.0562970   5.3530650
  84.4858330  39.7182520   4.7056950  85.0870360  39.4122730   6.0609840
  84.5472470  36.2347510  12.7696460  84.1343650  37.0601220  13.0236450
  83.8148420  35.6492550  12.5772820  76.6805260  39.0207410   7.6315130
  76.2762260  38.3084660   7.1361030  76.7668380  38.6760650   8.5203170
  77.1486960  42.7074970   9.7954340  76.8515250  42.1020440   9.1162120
  78.0986780  42.7452280   9.6843700  75.3933880  35.7950620  11.4114170
  75.9448470  35.9045960  10.6367420  75.9077390  36.1688220  12.1269400
  85.2372570  46.2806840  13.4577440  84.7603130  47.0879030  13.2650050
  84.5534360  45.6285170  13.6103650  76.2405390  42.4456660  16.4462140
  75.3433920  42.6696630  16.6935540  76.2658260  42.5691600  15.4973540
  83.2810610  39.2949780   2.3603400  83.7203890  38.4572210   2.2141220
  83.9939030  39.9279180   2.4467540  75.0676610  39.3169980  15.0219510
  74.9284380  40.1892780  15.3906910  74.1857970  38.9742790  14.8767450
  81.3905990  44.2345850   6.3284640  81.8301900  44.9770180   5.9140030
  81.3292880  44.4772420   7.2523600  76.8656960  45.2591680  17.2304660
  76.8372390  45.6634630  16.3633090  76.7021930  44.3302040  17.0676260
  73.3809890  37.9152390   5.1321780  73.2607490  38.6414480   4.5203050
  73.0710780  37.1455300   4.6549690  88.8171780  46.0418780  18.5268830
  89.2931500  46.5201670  19.2057910  89.4378940  45.9736270  17.8014330
  71.0195260  41.0867530  10.9390420  71.0975680  41.2216300   9.9946140
  71.6336940  40.3783420  11.1318540  72.2642890  42.7867720   7.3496600
  71.8570970  42.9282310   6.4950200  73.1555900  42.5027880   7.1467810
  88.2205030  43.2331630  15.6868840  88.3468090  42.9943510  14.7686020
  88.2626410  42.4016170  16.1590920  82.0821770  46.9359630  14.2563650
  82.5966440  46.8467640  15.0586080  81.2390850  47.2819330  14.5491560
  84.0576170  47.2214970   3.6847650  83.8977310  46.9317910   4.5829480
  83.8922880  46.4455100   3.1492880  76.5364550  47.0013500   5.4619270
  76.3607030  46.0849040   5.2487070  75.6820290  47.3600790   5.7017070
  83.7602300  44.7302530   2.2445650  83.0667460  44.7279820   1.5847930
  84.5025160  44.3061850   1.8139820  83.3252230  46.3565240   6.3194140
  83.7809180  45.5754620   6.6332760  83.6644750  47.0672060   6.8635320
  88.0729040  35.2864090  16.6518580  87.4573310  35.7943760  16.1234040
  87.7525460  34.3862420  16.5944520  71.0754780  42.1281700  13.4784880
  71.2385820  41.6587060  12.6604250  71.5407230  41.6205260  14.1433720
  75.8473550  31.2587460   8.5145450  75.4041700  32.0397000   8.1829970
  76.4058540  31.5817350   9.2216390  80.1343360  34.1255980  14.1180770
  79.6722730  34.3339000  14.9300710  79.7321470  33.3115330  13.8151440
  85.1347870  35.3464930  15.2477430  84.2841460  35.0470680  15.5686500
  84.9749660  35.5906940  14.3361250  82.2297580  36.8466680  17.3476220
  82.5550990  36.0130430  17.0078450  83.0177910  37.3695200  17.4954550
  78.9632370  30.8798160   3.3951280  78.3386550  30.8758030   4.1204590
  78.8762490  30.0129120   2.9987250  77.8849450  31.8034790  10.3735050
  78.1821780  32.7097620  10.2927070  78.4335010  31.3153570   9.7594620
  75.6387770  36.3821030   6.2426700  75.4128690  36.1658200   7.1473320
  74.8580300  36.8149490   5.8972670  82.8685530  36.3884400   4.8417350
  82.2694420  37.1120200   4.6580970  83.4165140  36.3261180   4.0593800
  78.0786980  37.2806610  16.9086970  77.9830580  36.3401340  16.7587370
  78.9218960  37.5021680  16.5135040  81.4750400  35.0247940   6.8720630
  81.8679970  35.3420140   6.0589320  81.8367250  34.1459820   6.9865150
  73.2097520  33.6920280  15.0620750  72.8160910  34.5395490  15.2693530
  72.5215920  33.0546650  15.2529390  79.7842570  33.7755250  18.1317490
  79.0940890  33.5827450  18.7663580  80.5274870  34.0589890  18.6641790
  70.5114570  31.6148740   9.0950830  70.2227620  32.1851600   9.8075810
  71.2560330  31.1353190   9.4582060  82.0605540  37.6153690  10.9671410
  81.3286660  38.1240500  11.3161510  81.6629880  36.7983670  10.6660190
  78.4982930  34.2907890   9.3723900  78.5018990  33.8497840   8.5228440
  79.3934050  34.6125220   9.4795720  74.3485310  34.1734380   8.3318110
  74.0085360  34.6509610   9.0885160  73.5862630  33.7199500   7.9719210
  78.5603080  35.2919970   2.3630660  78.6815900  35.2506450   3.3116480
  78.1751590  36.1544120   2.2077390  82.5231450  33.0687370  10.3794350
  82.5404190  33.5196020  11.2236200  82.2747030  32.1693010  10.5927790
  85.9502200  30.4819550  16.2180730  86.2747970  29.7509210  16.7438710
  85.9858710  30.1633190  15.3161720  72.6493760  41.5033130  15.6380690
  72.2648550  40.8626800  16.2363650  72.9605950  42.2069250  16.2075420
  78.7990900  38.3509670  11.1189310  79.1661030  37.8768240  11.8650650
  78.6095960  39.2251240  11.4597650  71.6631390  33.0953360   7.2482780
  71.3778310  32.7309030   8.0861400  71.6010250  32.3633820   6.6345920
  76.5890270  37.3918310  13.4373520  76.2847340  38.2710290  13.6623880
  77.5436730  37.4518100  13.4730960  75.1172060  41.5979300   4.0340370
  74.3434320  41.0576920   3.8739090  75.8466690  41.0785910   3.6958130
  85.8760040  40.5944660   9.8266760  86.5959160  41.0899950   9.4362870
  85.6741860  39.9162550   9.1820630  81.3369980  31.9882620   3.9696150
  80.5234590  31.4895790   3.8941460  81.1431930  32.8280870   3.5532500
  81.2578840  40.6653720  15.7135760  81.1916150  39.7449390  15.4593350
  80.6283980  40.7629160  16.4280400  84.0518370  36.3602270   2.2658310
  84.9397990  36.6719500   2.0909650  84.0223460  35.4874520   1.8738890
  75.1609460  41.2659680   7.6719180  75.6788130  40.4627940   7.6176070
  74.7093480  41.2038820   8.5136010  80.0478960  42.5325960   2.9446480
  80.3894660  43.2768190   2.4489800  79.2191670  42.8457080   3.3071310
  72.6454000  38.2321050  14.5844880  72.2868940  38.8974900  15.1718220
  72.3508560  37.4004600  14.9557500  75.8467120  38.6905290  17.4684430
  75.5467260  38.8362470  16.5712250  76.6178360  38.1310580  17.3757820
  81.1895570  43.4874290  15.4639560  81.2040110  42.5555250  15.2458470
  80.4820670  43.5734050  16.1029330  87.4006780  40.1281630  14.8108140
  86.6754970  40.7210410  14.6137530  87.9282240  40.1205170  14.0121510
  87.3519890  44.5256370   4.4620300  86.7096050  43.8711990   4.7364020
  86.9650550  44.9311460   3.6860970  82.9306370  41.8541800   8.3091990
  83.2830190  41.2569930   7.6493360  82.0468700  41.5286030   8.4800240
  79.0169650  42.6139490   5.7162400  79.7040780  43.1608700   6.0969990
  78.2302070  43.1580220   5.7512010  78.3196860  39.6185520   5.3287760
  78.7759640  40.4290770   5.5547950  77.9685070  39.3008660   6.1606250
  80.6229470  45.1291860  12.5580060  81.2671690  45.3351240  13.2353480
  80.9858910  44.3680260  12.1050910  74.2208640  29.9623170   5.8010280
  74.0923270  29.9541070   6.7495200  73.3970660  30.3006260   5.4501290
  81.8961550  43.1324210  11.2757510  82.5383780  42.4317370  11.3889680
  82.4210900  43.9122650  11.0954400  83.6699170  43.9319110  14.4793570
  84.0055410  44.5185800  15.1571490  82.7499510  43.8011820  14.7091360
  71.2202570  31.7214290  15.2616980  70.5061090  31.9211210  15.8669590
  71.6397610  30.9453860  15.6331780  85.3233520  41.3344770   2.6610810
  85.0355220  41.7957460   3.4488690  86.1185690  40.8742540   2.9295030
  71.5075160  45.7094550  16.2483510  71.6166280  44.7689290  16.1078900
  70.8555720  45.9749300  15.5997240  79.4987750  43.9810440  17.6481630
  79.1784620  43.2619680  18.1927320  78.8246110  44.6565510  17.7217690
  77.5401920  44.8270890   2.5914780  77.5312020  45.5600580   1.9759290
  76.6200280  44.5802470   2.6841740  73.1408560  40.0485780   3.3361540
  72.5336510  40.7884680   3.3456840  73.6157910  40.1385140   2.5099740
  82.7141350  34.2136600  13.0118430  83.0822170  33.3931810  13.3398000
  81.8539550  34.2738490  13.4274080  86.0803380  33.1693540   3.8205990
  85.4516540  33.2739210   3.1064220  85.5855300  33.3890320   4.6099870
  78.0487410  35.4479490   5.2363870  77.3403560  35.9165830   5.6777480
  78.3331890  34.7901500   5.8709060  79.6743340  36.8676190  13.2356400
  80.1728590  37.3422010  13.9008250  79.8166290  35.9439710  13.4426430
  82.0802840  32.1730150   6.6759660  81.9570620  32.1916280   5.7269170
  83.0287400  32.2209090   6.7958060  79.1679630  47.4085450   5.9487640
  79.4221130  47.3706840   5.0267010  78.2192110  47.2818780   5.9415890
  76.2522430  33.7564570   2.6114580  77.1012960  34.1934720   2.5454770
  75.8853700  34.0684830   3.4386640  86.8810200  33.0844150  14.0784790
  86.3783800  33.8249550  14.4178600  87.6966860  33.4728150  13.7621580
  85.1732210  38.3277330   7.5246150  84.2322350  38.3427560   7.6993840
  85.4876280  37.5413290   7.9706450  73.8460610  37.4422000   1.7683000
  73.9264200  36.4949510   1.8800400  74.7380360  37.7728880   1.8743660
  87.1757790  45.4986180   9.2000410  87.3005210  46.3217350   9.6724220
  88.0423350  45.2876910   8.8524560  74.6475320  47.5917390   8.8717540
  75.3837800  47.0432850   9.1426110  75.0316240  48.4573400   8.7323530
  71.5320800  43.6590960   4.7459050  70.6060580  43.9012100   4.7364460
  71.9977230  44.4865220   4.6243800  73.6533600  46.7763460  18.0603120
  74.4546330  47.0975510  18.4738520  73.1385420  46.4159040  18.7823030
  82.4898230  42.8843330  18.0078530  81.8836390  42.9074930  17.2674280
  82.1852340  42.1526370  18.5445780  83.9198600  46.6123620  16.6187940
  84.8720350  46.5281640  16.5688180  83.7726820  47.2765330  17.2921730
  86.8107800  45.9917830   2.1179850  86.5249310  45.5782970   1.3034030
  86.6127350  46.9205540   1.9980370  71.3731410  39.2636920  17.0039170
  71.8770430  38.6844200  17.5755400  70.6338830  39.5477150  17.5415540
  78.4269350  40.6707910  16.5374690  77.6615020  41.2392910  16.4529360
  78.6085310  40.3784120  15.6442920  85.5692700  42.4013240  17.0949710
  86.3102170  42.7389000  16.5917170  84.8065380  42.5705300  16.5419480
  73.4054490  37.4066510  17.8989240  73.4459830  37.1080380  18.8074470
  74.2599990  37.8074120  17.7396760  77.1832880  40.0062060   3.0592750
  77.6049300  39.8401930   3.9024140  77.3083720  39.1962290   2.5647890
  75.3460300  35.9858610  15.8663730  74.8156760  35.4949560  15.2387070
  76.0148370  36.4142810  15.3321660  84.2438360  40.4528070  15.6304920
  84.6579380  40.6073150  16.4795340  83.3089360  40.5783290  15.7930700
  84.7160530  37.7924230  17.6344070  85.2981300  37.0376550  17.5464550
  84.8922300  38.3231670  16.8575550  75.8332600  32.9520980  15.9461020
  75.7389470  32.3341730  15.2211890  75.2529990  33.6787270  15.7190930
  78.5994040  31.5094220  12.9788410  78.1511340  31.5318480  12.1333960
  77.9659240  31.1113240  13.5758710  79.0053590  40.4048550  13.6000850
  79.4241700  41.2481280  13.4277090  78.0862220  40.5420590  13.3707630
  81.3417490  38.1364730  14.9838690  81.4613700  37.5405870  15.7233530
  82.2011490  38.1734420  14.5639990  83.6805390  38.6901920  13.5601200
  83.1540610  39.2144540  12.9566340  84.0236730  39.3229310  14.1910930
  76.8561010  46.7101560  14.7158580  76.3182100  47.4347620  14.3967280
  77.1094970  46.2331900  13.9255920  78.1086260  34.6786080  16.2414510
  78.6985950  34.3701930  16.9292330  77.2906500  34.2065830  16.3974410
  82.9279690  34.2951890  16.4747530  82.2395210  33.6333430  16.4097520
  83.6485710  33.8490160  16.9195990  83.5580090  30.8903520   2.5337790
  83.8382380  30.0471420   2.8897210  82.7845820  31.1226630   3.0476540
  79.7123220  47.9452770  14.9745230  79.6381920  48.8487910  15.2817600
  78.8102060  47.6264670  14.9467300  80.2608550  47.1111280   2.5971590
  81.1559340  47.4496250   2.6190350  80.2926180  46.3890690   1.9695870
  71.1150510  45.2727360   8.2778850  71.4453520  44.4048420   8.0457490
  71.5441510  45.4785880   9.1083810  75.7112430  43.6036370   5.9380820
  75.4107970  43.4801340   6.8384730  75.6049920  42.7444960   5.5296550
  71.6040720  46.1397950  11.0160480  71.1671710  46.3198750  11.8484630
  72.1718400  46.8972570  10.8742200  87.2402900  45.6414950  15.3037790
  86.6404890  45.7007510  14.5601710  87.3696800  44.7019930  15.4334640
  87.9360810  40.1280250   3.1441700  88.6979720  40.6976900   3.2501390
  87.9515180  39.5607450   3.9150010  71.4365150  38.6518180   7.3749360
  70.7813990  38.3829820   6.7309060  72.2743100  38.5422660   6.9251340
  88.9420780  40.9830350   7.9883630  89.3129610  40.1997670   7.5819600
  89.5822710  41.6719450   7.8100930  85.9254540  42.3666930  13.4013950
  85.1114380  42.7964090  13.6639740  86.3328740  42.9785340  12.7883000
  87.8845320  38.3583610   5.2943650  87.5088920  37.5911540   4.8624940
  87.1548440  38.7406310   5.7818580  72.4741080  39.0370750  11.9152700
  72.8414120  38.9498150  12.7948720  71.9051900  38.2737300  11.8159560
  87.2744940  37.5055130  14.9283170  87.0431030  37.2767880  14.0281120
  87.5349490  38.4254680  14.8828060  72.0257080  35.9479840  15.8211120
  71.1313130  35.9146600  16.1604830  72.5654630  36.1466630  16.5862370
  85.7133010  32.7311560  17.7062870  86.5903190  32.7394960  18.0896870
  85.7253850  31.9942400  17.0955220  70.6503230  35.8617110   3.3174690
  69.7467310  36.1247310   3.1426350  71.1343850  36.1328280   2.5374650
  87.1596280  36.5841100   8.5950890  87.6833760  36.0903750   7.9641060
  87.7455700  36.7191460   9.3398460  87.3386000  36.6680970  12.1170440
  86.3888710  36.6344510  12.2315430  87.5199010  37.5781080  11.8820210
  86.6496250  35.8414450   4.5343300  87.1455370  35.6085320   5.3192180
  86.4512320  35.0026290   4.1180940  72.5296790  30.2228170  10.1694340
  73.1772980  29.6725550   9.7289500  72.9498630  30.4771320  10.9910150
  88.0783410  34.4775400   7.0680980  87.9682690  34.3231440   8.0063250
  88.8391000  33.9496340   6.8256390  86.4249130  30.4169530  13.5263980
  87.0621350  31.0303670  13.8923170  86.5724020  30.4530190  12.5813210
  89.0412170  33.0793980   2.9343830  88.2463670  33.0139100   3.4636740
  89.2455450  34.0144620   2.9229180  85.9830590  47.1185530   6.9282220
  86.5789660  46.7970100   6.2516640  86.2408740  46.6457350   7.7195490
  72.2828790  30.3783840  12.9119660  71.9343610  30.8347660  13.6777840
  71.9516490  29.4840970  12.9942090  73.8893160  43.5503440  17.0772850
  73.8462790  43.1796350  17.9587310  74.0204170  44.4881010  17.2174670
  77.5899190  45.1063030  12.6782570  77.3490550  45.3737590  11.7913090
  78.5301830  45.2768760  12.7333430  79.7953610  31.5695720  16.4339080
  79.7342500  32.1617550  17.1834490  80.7353990  31.4621680  16.2889340
  82.4328170  31.2265780  16.0731370  83.0468580  31.5445070  15.4112450
  82.9777730  30.7414370  16.6927230  88.8503350  47.1257410  13.4793210
  88.3561630  47.5226280  12.7620340  88.2416640  46.5006620  13.8730490
  72.9549430  29.9060040  16.1870430  73.5032420  29.7248090  15.4236540
  73.0204740  29.1154150  16.7226740  73.7281190  46.4965690  14.1970630
  73.1341510  46.3650390  14.9360670  73.7205030  45.6603830  13.7312730
  83.1736210  29.7897920  12.4000660  82.2996050  30.1233030  12.1973590
  83.0646960  29.3171100  13.2252530  84.0808190  31.9968790  13.7842380
  83.7521550  31.1820550  13.4044110  85.0290490  31.9538600  13.6608070
  86.5342800  47.7680830  10.7579950  86.0745770  48.5196640  10.3837970
  85.9055260  47.0487300  10.6994750  73.3593420  43.8624070  13.1478670
  72.6327480  43.2429360  13.0804620  73.4202570  44.2564680  12.2776750
  76.9638520  46.0769070   9.9328080  77.4803540  45.4656430   9.4076340
  77.6135900  46.5797850  10.4239090  79.7034020  46.9677560  10.7597060
  79.9911830  46.7131860   9.8830070  80.2157240  46.4154920  11.3502630
  80.9211030  30.7067760  11.3393570  80.1382820  31.1813260  11.6190330
  80.6273960  29.8022590  11.2306750  85.4732100  31.4090860   9.3842660
  85.9140190  31.3535960   8.5364260  85.2039690  32.3248870   9.4552840
  87.3370670  31.0406100   7.3951480  87.2759070  30.0967320   7.2482500
  88.1162700  31.1486190   7.9404940  71.6423420  47.1798460   6.3575430
  71.4745460  46.5469140   7.0557320  70.7757930  47.3857860   6.0069620
  72.2651440  31.0115240   3.8607290  73.0230800  31.1244120   3.2871320
  71.8028610  31.8484440   3.8150720  78.8065250  33.1254510   6.8509600
  77.9939760  32.7511400   6.5105480  79.3106890  32.3699590   7.1530790
  83.3090230  29.7896960   8.0892670  83.9119600  30.3617170   8.5641190
  82.5683220  30.3536400   7.8666570  86.4524830  30.1918520   3.3632950
  86.6475460  31.0901970   3.6300380  85.6654700  29.9605600   3.8565900
  73.2486120  45.8731690   3.8025570  72.7233740  46.2539720   3.0987530
  73.1730700  46.4982460   4.5235280  74.6376590  31.5379290   2.4009260
  75.1669350  30.7509090   2.2717210  75.2704910  32.2170480   2.6344790
  76.8314430  31.2754430   5.4554650  76.2017170  30.5741740   5.6224780
  76.2919570  32.0358560   5.2387810  79.7706380  47.8893660  18.1265260
  80.6973690  47.6537930  18.1701220  79.7556810  48.7165660  17.6451290
  88.0051440  47.4319230   5.1239510  88.1803630  46.7456970   4.4800430
  87.3073010  47.9566280   4.7316180  76.9569990  30.5538410  17.8907140
  76.6754260  31.0572010  17.1267960  77.3389690  29.7560160  17.5249270
  75.8479090  47.8214070   2.6774820  76.5797910  47.5373350   2.1298710
  76.1072760  47.5827350   3.5674200  75.0093880  43.9378800   2.6821150
  74.3802760  44.4063900   3.2306980  75.1241710  43.0928020   3.1167340
  83.5585450  29.9691990  18.4687610  83.4450900  30.2886600  19.3639130
  84.3755190  30.3704500  18.1724890  86.3383940  47.1163520  17.9506300
  87.1309260  46.6212750  17.7432260  86.6317090  47.7953660  18.5581910
  82.4643600  19.2140970 101.4783290  82.3837650  18.2995580 101.2075000
  82.0508020  19.7108040 100.7723000  80.5961640  20.9919990 103.3592560
  79.8203740  20.5120430 103.6491130  81.2474570  20.3125640 103.1848720
  74.6127470  21.3039800 104.2368320  73.7812350  21.0488510 104.6364830
  75.2208450  21.3750570 104.9726240  84.6169070  25.3980180 102.1391690
  84.1550600  24.6267420 102.4678860  85.4294620  25.4246250 102.6444140
  74.5928730  25.3379890 104.4326340  74.8956770  24.4477630 104.2536560
  75.3372320  25.8950110 104.2048590  73.0219420  16.2641690  98.0210710
  72.1336120  16.6057660  97.9190590  73.3060610  16.0642010  97.1291540
  70.9852430  18.8647340 103.9050410  71.5568540  18.0969540 103.9054050
  70.9853970  19.1636100 102.9957020  80.8432380  27.6838190 101.7595680
  80.2243820  28.1395690 101.1890120  81.6984160  27.8389650 101.3585380
  80.0370630  23.6677180 103.3662720  79.9678910  22.7267120 103.2051850
  80.7990490  23.7578590 103.9385290  72.2277300  14.2731700 105.6919340
  72.0480140  13.3757450 105.9722100  71.8257380  14.8203570 106.3666290
  81.0675800  16.4747560 103.5931650  81.4440620  15.6019440 103.4805320
  80.9695310  16.8106260 102.7022090  75.1980810  14.8473190  99.0549090
  75.3047560  15.7476920  99.3617850  74.2873170  14.7991160  98.7643740
  84.8499920  13.9698000 100.5259990  85.6709540  13.4794570 100.5685470
  84.8834000  14.5595660 101.2791830  72.8463970  16.7692200 104.3001680
  73.5274080  17.0330570 104.9189080  72.5312020  15.9293070 104.6339690
  77.0388540  17.8159560 103.3874270  77.5466760  18.3140530 104.0279290
  77.5701780  17.0394760 103.2113630  89.1399470  15.9864750 107.0903620
  88.4351640  16.3746460 106.5718730  89.4057390  16.6815040 107.6924550
  75.3224640  12.4558120 107.6537690  75.3243080  12.9730510 106.8483590
  74.4928950  11.9788300 107.6307620  81.7095730  22.5677430  99.1527590
  81.0913000  23.0326880  98.5890310  82.2218980  23.2604910  99.5697100
  76.5727490  22.0953300 105.8311190  76.2396870  22.7222220 106.4732260
  76.7494170  22.6215180 105.0512860  85.0861400  15.9098380 103.2987530
  84.3816970  16.1983270 103.8790640  85.4473560  16.7198490 102.9387090
  75.0039970  14.1668080 105.6608140  75.3456780  15.0110130 105.3662010
  74.0655780  14.3151820 105.7773480  75.7846590  24.0634100 107.6460370
  76.4020590  24.7385180 107.3644820  74.9239710  24.4722080 107.5547870
  71.0778930  23.2533960  96.5267220  70.7006910  23.7421060  95.7952120
  71.3352000  23.9259240  97.1573750  86.7024180  25.5273510 105.5615010
  86.0187700  26.1972620 105.5531680  87.2418470  25.7254160 104.7959870
  88.1548320  15.3553170 103.6896740  87.2073230  15.3892150 103.8212170
  88.4798310  16.1692120 104.0746100  78.6867860  11.6550350 101.9852730
  78.9942840  11.0997240 101.2688230  77.7568560  11.7894810 101.8025720
  84.2382920  27.3717640 104.2760190  84.2510080  26.9679930 103.4082450
  83.6858140  28.1464930 104.1721620  85.5328340  24.0933860  99.3650360
  85.4224670  23.1508190  99.4899780  85.5296590  24.4549500 100.2513120
  83.6368360  22.2747480 105.6042800  84.0537150  22.0607590 104.7696260
  84.3608180  22.5320270 106.1751420  81.0748620  19.7199180  98.7212850
  80.1477900  19.6536560  98.9501320  81.2273440  20.6579310  98.6068090
  81.0617700  15.9916180  95.7180010  80.1221370  16.1530140  95.8032470
  81.3800960  16.7101860  95.1716000  87.5830460  20.6734700 105.6959040
  86.7549090  20.7427790 105.2209170  88.1780940  21.2589010 105.2274870
  85.1045910  21.2819480  99.2248100  84.4858330  20.9439030  98.5774400
  85.0870360  20.6379240  99.9327290  84.5472470  17.4604020 106.6413910
  84.1343650  18.2857730 106.8953900  83.8148420  16.8749060 106.4490270
  76.6805260  20.2463920 101.5032580  76.2762260  19.5341170 101.0078480
  76.7668380  19.9017160 102.3920620  77.1486960  23.9331480 103.6671790
  76.8515250  23.3276950 102.9879570  78.0986780  23.9708790 103.5561150
  75.3933880  17.0207130 105.2831620  75.9448470  17.1302470 104.5084870
  75.9077390  17.3944730 105.9986850  85.2372570  27.5063350 107.3294890
  84.7603130  28.3135540 107.1367500  84.5534360  26.8541680 107.4821100
  76.2405390  23.6713170 110.3179590  75.3433920  23.8953140 110.5652990
  76.2658260  23.7948110 109.3690990  83.2810610  20.5206290  96.2320850
  83.7203890  19.6828720  96.0858670  83.9939030  21.1535690  96.3184990
  75.0676610  20.5426490 108.8936960  74.9284380  21.4149290 109.2624360
  74.1857970  20.1999300 108.7484900  81.3905990  25.4602360 100.2002090
  81.8301900  26.2026690  99.7857480  81.3292880  25.7028930 101.1241050
  86.8627750  11.7749100  94.5461890  86.5500410  11.8675930  95.4460960
  87.6240220  12.3530130  94.4959320  73.3809890  19.1408900  99.0039230
  73.2607490  19.8670990  98.3920500  73.0710780  18.3711810  98.5267140
  71.0195260  22.3124040 104.8107870  71.0975680  22.4472810 103.8663590
  71.6336940  21.6039930 105.0035990  72.2642890  24.0124230 101.2214050
  71.8570970  24.1538820 100.3667650  73.1555900  23.7284390 101.0185260
  88.2205030  24.4588140 109.5586290  88.3468090  24.2200020 108.6403470
  88.2626410  23.6272680 110.0308370  82.0821770  28.1616140 108.1281100
  82.5966440  28.0724150 108.9303530  81.2390850  28.5075840 108.4209010
  84.0576170  28.4471480  97.5565100  83.8977310  28.1574420  98.4546930
  83.8922880  27.6711610  97.0210330  76.5364550  28.2270010  99.3336720
  76.3607030  27.3105550  99.1204520  75.6820290  28.5857300  99.5734520
  83.7602300  25.9559040  96.1163100  83.0667460  25.9536330  95.4565380
  84.5025160  25.5318360  95.6857270  83.3252230  27.5821750 100.1911590
  83.7809180  26.8011130 100.5050210  83.6644750  28.2928570 100.7352770
  88.0729040  16.5120600 110.5236030  87.4573310  17.0200270 109.9951490
  87.7525460  15.6118930 110.4661970  71.0754780  23.3538210 107.3502330
  71.2385820  22.8843570 106.5321700  71.5407230  22.8461770 108.0151170
  75.8473550  12.4843970 102.3862900  75.4041700  13.2653510 102.0547420
  76.4058540  12.8073860 103.0933840  80.1343360  15.3512490 107.9898220
  79.6722730  15.5595510 108.8018160  79.7321470  14.5371840 107.6868890
  85.1347870  16.5721440 109.1194880  84.2841460  16.2727190 109.4403950
  84.9749660  16.8163450 108.2078700  78.9632370  12.1054670  97.2668730
  78.3386550  12.1014540  97.9922040  78.8762490  11.2385630  96.8704700
  77.8849450  13.0291300 104.2452500  78.1821780  13.9354130 104.1644520
  78.4335010  12.5410080 103.6312070  75.6387770  17.6077540 100.1144150
  75.4128690  17.3914710 101.0190770  74.8580300  18.0406000  99.7690120
  82.8685530  17.6140910  98.7134800  82.2694420  18.3376710  98.5298420
  83.4165140  17.5517690  97.9311250  78.0786980  18.5063120 110.7804420
  77.9830580  17.5657850 110.6304820  78.9218960  18.7278190 110.3852490
  81.4750400  16.2504450 100.7438080  81.8679970  16.5676650  99.9306770
  81.8367250  15.3716330 100.8582600  73.2097520  14.9176790 108.9338200
  72.8160910  15.7652000 109.1410980  72.5215920  14.2803160 109.1246840
  70.5114570  12.8405250 102.9668280  70.2227620  13.4108110 103.6793260
  71.2560330  12.3609700 103.3299510  70.6984800  16.7825370  94.1771000
  70.6159470  17.7256130  94.3185990  70.3467860  16.6400280  93.2983350
  82.0605540  18.8410200 104.8388860  81.3286660  19.3497010 105.1878960
  81.6629880  18.0240180 104.5377640  78.4982930  15.5164400 103.2441350
  78.5018990  15.0754350 102.3945890  79.3934050  15.8381730 103.3513170
  74.3485310  15.3990890 102.2035560  74.0085360  15.8766120 102.9602610
  73.5862630  14.9456010 101.8436660  78.5603080  16.5176480  96.2348110
  78.6815900  16.4762960  97.1833930  78.1751590  17.3800630  96.0794840
  82.5231450  14.2943880 104.2511800  82.5404190  14.7452530 105.0953650
  82.2747030  13.3949520 104.4645240  77.5724580  18.8277620  95.6331410
  77.0041480  18.3795870  95.0067320  78.2813580  19.1870400  95.0996560
  85.9502200  11.7076060 110.0898180  86.2747970  10.9765720 110.6156160
  85.9858710  11.3889700 109.1879170  72.6493760  22.7289640 109.5098140
  72.2648550  22.0883310 110.1081100  72.9605950  23.4325760 110.0792870
  78.7990900  19.5766180 104.9906760  79.1661030  19.1024750 105.7368100
  78.6095960  20.4507750 105.3315100  71.6631390  14.3209870 101.1200230
  71.3778310  13.9565540 101.9578850  71.6010250  13.5890330 100.5063370
  76.5890270  18.6174820 107.3090970  76.2847340  19.4966800 107.5341330
  77.5436730  18.6774610 107.3448410  75.1172060  22.8235810  97.9057820
  74.3434320  22.2833430  97.7456540  75.8466690  22.3042420  97.5675580
  85.8760040  21.8201170 103.6984210  86.5959160  22.3156460 103.3080320
  85.6741860  21.1419060 103.0538080  81.3369980  13.2139130  97.8413600
  80.5234590  12.7152300  97.7658910  81.1431930  14.0537380  97.4249950
  81.2578840  21.8910230 109.5853210  81.1916150  20.9705900 109.3310800
  80.6283980  21.9885670 110.2997850  84.0518370  17.5858780  96.1375760
  84.9397990  17.8976010  95.9627100  84.0223460  16.7131030  95.7456340
  75.1609460  22.4916190 101.5436630  75.6788130  21.6884450 101.4893520
  74.7093480  22.4295330 102.3853460  80.0478960  23.7582470  96.8163930
  80.3894660  24.5024700  96.3207250  79.2191670  24.0713590  97.1788760
  72.6454000  19.4577560 108.4562330  72.2868940  20.1231410 109.0435670
  72.3508560  18.6261110 108.8274950  81.1895570  24.7130800 109.3357010
  81.2040110  23.7811760 109.1175920  80.4820670  24.7990560 109.9746780
  86.3232640  18.8970620  95.6055620  86.2396360  19.3284840  94.7552060
  87.0426830  19.3568970  96.0382440  87.4006780  21.3538140 108.6825590
  86.6754970  21.9466920 108.4854980  87.9282240  21.3461680 107.8838960
  87.3519890  25.7512880  98.3337750  86.7096050  25.0968500  98.6081470
  86.9650550  26.1567970  97.5578420  82.9306370  23.0798310 102.1809440
  83.2830190  22.4826440 101.5210810  82.0468700  22.7542540 102.3517690
  79.0169650  23.8396000  99.5879850  79.7040780  24.3865210  99.9687440
  78.2302070  24.3836730  99.6229460  71.1562050  19.4568820  95.0796930
  72.0256900  19.7393620  95.3632850  70.6652370  20.2704690  94.9645740
  78.3196860  20.8442030  99.2005210  78.7759640  21.6547280  99.4265400
  77.9685070  20.5265170 100.0323700  80.6229470  26.3548370 106.4297510
  81.2671690  26.5607750 107.1070930  80.9858910  25.5936770 105.9768360
  74.2208640  11.1879680  99.6727730  74.0923270  11.1797580 100.6212650
  73.3970660  11.5262770  99.3218740  81.8961550  24.3580720 105.1474960
  82.5383780  23.6573880 105.2607130  82.4210900  25.1379160 104.9671850
  85.7417270  24.6429340  94.8714100  85.5154850  23.9259780  95.4638740
  85.3513470  24.3941780  94.0335850  83.6699170  25.1575620 108.3511020
  84.0055410  25.7442310 109.0288940  82.7499510  25.0268330 108.5808810
  71.5233300  28.6696200  95.6458560  71.8830940  29.2685540  94.9915830
  71.3825640  29.2156090  96.4193590  71.2202570  12.9470800 109.1334430
  70.5061090  13.1467720 109.7387040  71.6397610  12.1710370 109.5049230
  85.3233520  22.5601280  96.5328260  85.0355220  23.0213970  97.3206140
  86.1185690  22.0999050  96.8012480  71.5075160  26.9351060 110.1200960
  71.6166280  25.9945800 109.9796350  70.8555720  27.2005810 109.4714690
  77.5401920  26.0527400  96.4632230  77.5312020  26.7857090  95.8476740
  76.6200280  25.8058980  96.5559190  73.1408560  21.2742290  97.2078990
  72.5336510  22.0141190  97.2174290  73.6157910  21.3641650  96.3817190
  82.7141350  15.4393110 106.8835880  83.0822170  14.6188320 107.2115450
  81.8539550  15.4995000 107.2991530  86.0803380  14.3950050  97.6923440
  85.4516540  14.4995720  96.9781670  85.5855300  14.6146830  98.4817320
  80.5261520  26.1155640  95.1257420  80.6273500  25.9119630  94.1959400
  79.6263260  25.8613920  95.3305200  78.0487410  16.6736000  99.1081320
  77.3403560  17.1422340  99.5494930  78.3331890  16.0158010  99.7426510
  79.6743340  18.0932700 107.1073850  80.1728590  18.5678520 107.7725700
  79.8166290  17.1696220 107.3143880  82.0802840  13.3986660 100.5477110
  81.9570620  13.4172790  99.5986620  83.0287400  13.4465600 100.6675510
  79.1679630  28.6341960  99.8205090  79.4221130  28.5963350  98.8984460
  78.2192110  28.5075290  99.8133340  76.2522430  14.9821080  96.4832030
  77.1012960  15.4191230  96.4172220  75.8853700  15.2941340  97.3104090
  86.8810200  14.3100660 107.9502240  86.3783800  15.0506060 108.2896050
  87.6966860  14.6984660 107.6339030  85.1732210  19.5533840 101.3963600
  84.2322350  19.5684070 101.5711290  85.4876280  18.7669800 101.8423900
  75.1513850  21.2353440  94.9567560  75.9177120  21.1234800  95.5192990
  75.2288540  20.5391410  94.3044330  73.8460610  18.6678510  95.6400450
  73.9264200  17.7206020  95.7517850  74.7380360  18.9985390  95.7461110
  87.1757790  26.7242690 103.0717860  87.3005210  27.5473860 103.5441670
  88.0423350  26.5133420 102.7242010  74.6475320  28.8173900 102.7434990
  75.3837800  28.2689360 103.0143560  75.0316240  29.6829910 102.6040980
  71.5320800  24.8847470  98.6176500  70.6060580  25.1268610  98.6081910
  71.9977230  25.7121730  98.4961250  77.7577630  27.9904210  94.5660560
  78.5506240  28.2793040  94.1142350  77.2381980  27.5596380  93.8873040
  86.8107800  27.2174340  95.9897300  86.5249310  26.8039480  95.1751480
  86.6127350  28.1462050  95.8697820  78.2755030  23.2107620  94.4302910
  78.1705670  22.5959970  95.1564290  78.1079250  22.6873510  93.6465920
  78.4269350  21.8964420 110.4092140  77.6615020  22.4649420 110.3246810
  78.6085310  21.6040630 109.5160370  81.5157760  22.2727650  95.0344900
  80.9667860  22.7196950  95.6787640  82.1377020  21.7676900  95.5582570
  85.5692700  23.6269750 110.9667160  86.3102170  23.9645510 110.4634620
  84.8065380  23.7961810 110.4136930  77.1832880  21.2318570  96.9310200
  77.6049300  21.0658440  97.7741590  77.3083720  20.4218800  96.4365340
  75.3460300  17.2115120 109.7381180  74.8156760  16.7206070 109.1104520
  76.0148370  17.6399320 109.2039110  79.6960520  20.2556180  94.1787300
  80.2166180  19.5405200  93.8128450  80.3428920  20.8942050  94.4787810
  84.2438360  21.6784580 109.5022370  84.6579380  21.8329660 110.3512790
  83.3089360  21.8039800 109.6648150  75.8332600  14.1777490 109.8178470
  75.7389470  13.5598240 109.0929340  75.2529990  14.9043780 109.5908380
  78.5994040  12.7350730 106.8505860  78.1511340  12.7574990 106.0051410
  77.9659240  12.3369750 107.4476160  79.0053590  21.6305060 107.4718300
  79.4241700  22.4737790 107.2994540  78.0862220  21.7677100 107.2425080
  81.3417490  19.3621240 108.8556140  81.4613700  18.7662380 109.5950980
  82.2011490  19.3990930 108.4357440  83.6805390  19.9158430 107.4318650
  83.1540610  20.4401050 106.8283790  84.0236730  20.5485820 108.0628380
  76.0791780  17.3051800  93.8768360  75.8780840  16.4419160  94.2381700
  75.9083830  17.2185160  92.9389960  76.8561010  27.9358070 108.5876030
  76.3182100  28.6604130 108.2684730  77.1094970  27.4588410 107.7973370
  78.1086260  15.9042590 110.1131960  78.6985950  15.5958440 110.8009780
  77.2906500  15.4322340 110.2691860  82.9279690  15.5208400 110.3464980
  82.2395210  14.8589940 110.2814970  83.6485710  15.0746670 110.7913440
  83.5580090  12.1160030  96.4055240  83.8382380  11.2727930  96.7614660
  82.7845820  12.3483140  96.9193990  74.8774580  14.4052420  93.8646240
  75.1800480  14.4119850  92.9565390  75.6169170  14.0550280  94.3613900
  79.7123220  29.1709280 108.8462680  79.6381920  30.0744420 109.1535050
  78.8102060  28.8521180 108.8184750  78.0959510  13.3487040  94.8502440
  77.7481510  12.6711030  94.2704890  78.2972280  12.8876550  95.6645830
  80.2608550  28.3367790  96.4689040  81.1559340  28.6752760  96.4907800
  80.2926180  27.6147200  95.8413320  73.9004710  23.7094840  94.6976040
  74.3379580  24.2524510  95.3533620  74.3852440  22.8841790  94.7072380
  71.1150510  26.4983870 102.1496300  71.4453520  25.6304930 101.9174940
  71.5441510  26.7042390 102.9801260  75.7112430  24.8292880  99.8098270
  75.4107970  24.7057850 100.7102180  75.6049920  23.9701470  99.4014000
  71.6040720  27.3654460 104.8877930  71.1671710  27.5455260 105.7202080
  72.1718400  28.1229080 104.7459650  87.2402900  26.8671460 109.1755240
  86.6404890  26.9264020 108.4319160  87.3696800  25.9276440 109.3052090
  88.4804350  24.6089280  94.5124950  87.6497310  24.6765930  94.9832180
  88.6576180  25.4993400  94.2091810  87.9360810  21.3536760  97.0159150
  88.6979720  21.9233410  97.1218840  87.9515180  20.7863960  97.7867460
  71.4365150  19.8774690 101.2466810  70.7813990  19.6086330 100.6026510
  72.2743100  19.7679170 100.7968790  88.9420780  22.2086860 101.8601080
  89.3129610  21.4254180 101.4537050  89.5822710  22.8975960 101.6818380
  85.9254540  23.5923440 107.2731400  85.1114380  24.0220600 107.5357190
  86.3328740  24.2041850 106.6600450  87.9879980  21.6471130  94.1731670
  88.2628820  22.5550010  94.0450890  87.7990720  21.5833660  95.1093660
  84.3855590  14.6715980  95.4685300  84.8040470  14.4846960  94.6281960
  84.0791650  13.8195030  95.7788230  87.8845320  19.5840120  99.1661100
  87.5088920  18.8168050  98.7342390  87.1548440  19.9662820  99.6536030
  72.4741080  20.2627260 105.7870150  72.8414120  20.1754660 106.6666170
  71.9051900  19.4993810 105.6877010  87.2744940  18.7311640 108.8000620
  87.0431030  18.5024390 107.8998570  87.5349490  19.6511190 108.7545510
  72.0257080  17.1736350 109.6928570  71.1313130  17.1403110 110.0322280
  72.5654630  17.3723140 110.4579820  70.6503230  17.0873620  97.1892140
  69.7467310  17.3503820  97.0143800  71.1343850  17.3584790  96.4092100
  87.1596280  17.8097610 102.4668340  87.6833760  17.3160260 101.8358510
  87.7455700  17.9447970 103.2115910  87.3386000  17.8937480 105.9887890
  86.3888710  17.8601020 106.1032880  87.5199010  18.8037590 105.7537660
  73.1930440  16.1439160  95.0986520  73.9022140  15.7222380  94.6133800
  72.4770380  16.2114390  94.4669870  72.8404600  12.1978490  94.1389170
  73.5632730  12.7387430  94.4570390  73.1129120  11.9241910  93.2630710
  86.6496250  17.0670960  98.4060750  87.1455370  16.8341830  99.1909630
  86.4512320  16.2282800  97.9898390  72.5296790  11.4484680 104.0411790
  73.1772980  10.8982060 103.6006950  72.9498630  11.7027830 104.8627600
  88.0783410  15.7031910 100.9398430  87.9682690  15.5487950 101.8780700
  88.8391000  15.1752850 100.6973840  86.4249130  11.6426040 107.3981430
  87.0621350  12.2560180 107.7640620  86.5724020  11.6786700 106.4530660
  88.9673680  13.5339830  94.1804570  89.8922990  13.4021010  93.9722860
  88.9449470  13.6132650  95.1341020  89.0412170  14.3050490  96.8061280
  88.2463670  14.2395610  97.3354190  89.2455450  15.2401130  96.7946630
  85.9830590  28.3442040 100.7999670  86.5789660  28.0226610 100.1234090
  86.2408740  27.8713860 101.5912940  72.2828790  11.6040350 106.7837110
  71.9343610  12.0604170 107.5495290  71.9516490  10.7097480 106.8659540
  77.5899190  26.3319540 106.5500020  77.3490550  26.5994100 105.6630540
  78.5301830  26.5025270 106.6050880  82.4328170  12.4522290 109.9448820
  83.0468580  12.7701580 109.2829900  82.9777730  11.9670880 110.5644680
  88.8503350  28.3513920 107.3510660  88.3561630  28.7482790 106.6337790
  88.2416640  27.7263130 107.7447940  72.9549430  11.1316550 110.0587880
  73.5032420  10.9504600 109.2953990  73.0204740  10.3410660 110.5944190
  73.7281190  27.7222200 108.0688080  73.1341510  27.5906900 108.8078120
  73.7205030  26.8860340 107.6030180  83.1736210  11.0154430 106.2718110
  82.2996050  11.3489540 106.0691040  83.0646960  10.5427610 107.0969980
  84.0808190  13.2225300 107.6559830  83.7521550  12.4077060 107.2761560
  85.0290490  13.1795110 107.5325520  86.5342800  28.9937340 104.6297400
  86.0745770  29.7453150 104.2555420  85.9055260  28.2743810 104.5712200
  73.3593420  25.0880580 107.0196120  72.6327480  24.4685870 106.9522070
  73.4202570  25.4821190 106.1494200  76.9638520  27.3025580 103.8045530
  77.4803540  26.6912940 103.2793790  77.6135900  27.8054360 104.2956540
  79.7034020  28.1934070 104.6314510  79.9911830  27.9388370 103.7547520
  80.2157240  27.6411430 105.2220080  80.9211030  11.9324270 105.2111020
  80.1382820  12.4069770 105.4907780  80.6273960  11.0279100 105.1024200
  85.4732100  12.6347370 103.2560110  85.9140190  12.5792470 102.4081710
  85.2039690  13.5505380 103.3270290  87.3370670  12.2662610 101.2668930
  87.2759070  11.3223830 101.1199950  88.1162700  12.3742700 101.8122390
  71.6423420  28.4054970 100.2292880  71.4745460  27.7725650 100.9274770
  70.7757930  28.6114370  99.8787070  72.2651440  12.2371750  97.7324740
  73.0230800  12.3500630  97.1588770  71.8028610  13.0740950  97.6868170
  78.8065250  14.3511020 100.7227050  77.9939760  13.9767910 100.3822930
  79.3106890  13.5956100 101.0248240  83.3090230  11.0153470 101.9610120
  83.9119600  11.5873680 102.4358640  82.5683220  11.5792910 101.7384020
  86.4524830  11.4175030  97.2350400  86.6475460  12.3158480  97.5017830
  85.6654700  11.1862110  97.7283350  73.2486120  27.0988200  97.6743020
  72.7233740  27.4796230  96.9704980  73.1730700  27.7238970  98.3952730
  74.6376590  12.7635800  96.2726710  75.1669350  11.9765600  96.1434660
  75.2704910  13.4426990  96.5062240  76.8314430  12.5010940  99.3272100
  76.2017170  11.7998250  99.4942230  76.2919570  13.2615070  99.1105260
  88.0051440  28.6575740  98.9956960  88.1803630  27.9713480  98.3517880
  87.3073010  29.1822790  98.6033630  75.8479090  29.0470580  96.5492270
  76.5797910  28.7629860  96.0016160  76.1072760  28.8083860  97.4391650
  75.0093880  25.1635310  96.5538600  74.3802760  25.6320410  97.1024430
  75.1241710  24.3184530  96.9884790  82.4643600  19.2140970  82.7039800
  82.3837650  18.2995580  82.4331510  82.0508020  19.7108040  81.9979510
  80.5961640  20.9919990  84.5849070  79.8203740  20.5120430  84.8747640
  81.2474570  20.3125640  84.4105230  74.6127470  21.3039800  85.4624830
  73.7812350  21.0488510  85.8621340  75.2208450  21.3750570  86.1982750
  84.6169070  25.3980180  83.3648200  84.1550600  24.6267420  83.6935370
  85.4294620  25.4246250  83.8700650  74.5928730  25.3379890  85.6582850
  74.8956770  24.4477630  85.4793070  75.3372320  25.8950110  85.4305100
  73.0219420  16.2641690  79.2467220  72.1336120  16.6057660  79.1447100
  73.3060610  16.0642010  78.3548050  70.9852430  18.8647340  85.1306920
  71.5568540  18.0969540  85.1310560  70.9853970  19.1636100  84.2213530
  80.8432380  27.6838190  82.9852190  80.2243820  28.1395690  82.4146630
  81.6984160  27.8389650  82.5841890  80.0370630  23.6677180  84.5919230
  79.9678910  22.7267120  84.4308360  80.7990490  23.7578590  85.1641800
  72.2277300  14.2731700  86.9175850  72.0480140  13.3757450  87.1978610
  71.8257380  14.8203570  87.5922800  81.0675800  16.4747560  84.8188160
  81.4440620  15.6019440  84.7061830  80.9695310  16.8106260  83.9278600
  75.1980810  14.8473190  80.2805600  75.3047560  15.7476920  80.5874360
  74.2873170  14.7991160  79.9900250  84.8499920  13.9698000  81.7516500
  85.6709540  13.4794570  81.7941980  84.8834000  14.5595660  82.5048340
  72.8463970  16.7692200  85.5258190  73.5274080  17.0330570  86.1445590
  72.5312020  15.9293070  85.8596200  77.0388540  17.8159560  84.6130780
  77.5466760  18.3140530  85.2535800  77.5701780  17.0394760  84.4370140
  89.1399470  15.9864750  88.3160130  88.4351640  16.3746460  87.7975240
  89.4057390  16.6815040  88.9181060  75.3224640  12.4558120  88.8794200
  75.3243080  12.9730510  88.0740100  74.4928950  11.9788300  88.8564130
  81.7095730  22.5677430  80.3784100  81.0913000  23.0326880  79.8146820
  82.2218980  23.2604910  80.7953610  76.5727490  22.0953300  87.0567700
  76.2396870  22.7222220  87.6988770  76.7494170  22.6215180  86.2769370
  85.0861400  15.9098380  84.5244040  84.3816970  16.1983270  85.1047150
  85.4473560  16.7198490  84.1643600  75.0039970  14.1668080  86.8864650
  75.3456780  15.0110130  86.5918520  74.0655780  14.3151820  87.0029990
  75.7846590  24.0634100  88.8716880  76.4020590  24.7385180  88.5901330
  74.9239710  24.4722080  88.7804380  71.0778930  23.2533960  77.7523730
  70.7006910  23.7421060  77.0208630  71.3352000  23.9259240  78.3830260
  86.7024180  25.5273510  86.7871520  86.0187700  26.1972620  86.7788190
  87.2418470  25.7254160  86.0216380  88.1548320  15.3553170  84.9153250
  87.2073230  15.3892150  85.0468680  88.4798310  16.1692120  85.3002610
  78.6867860  11.6550350  83.2109240  78.9942840  11.0997240  82.4944740
  77.7568560  11.7894810  83.0282230  84.2382920  27.3717640  85.5016700
  84.2510080  26.9679930  84.6338960  83.6858140  28.1464930  85.3978130
  85.5328340  24.0933860  80.5906870  85.4224670  23.1508190  80.7156290
  85.5296590  24.4549500  81.4769630  83.6368360  22.2747480  86.8299310
  84.0537150  22.0607590  85.9952770  84.3608180  22.5320270  87.4007930
  81.0748620  19.7199180  79.9469360  80.1477900  19.6536560  80.1757830
  81.2273440  20.6579310  79.8324600  81.0617700  15.9916180  76.9436520
  80.1221370  16.1530140  77.0288980  81.3800960  16.7101860  76.3972510
  87.5830460  20.6734700  86.9215550  86.7549090  20.7427790  86.4465680
  88.1780940  21.2589010  86.4531380  85.1045910  21.2819480  80.4504610
  84.4858330  20.9439030  79.8030910  85.0870360  20.6379240  81.1583800
  84.5472470  17.4604020  87.8670420  84.1343650  18.2857730  88.1210410
  83.8148420  16.8749060  87.6746780  76.6805260  20.2463920  82.7289090
  76.2762260  19.5341170  82.2334990  76.7668380  19.9017160  83.6177130
  77.1486960  23.9331480  84.8928300  76.8515250  23.3276950  84.2136080
  78.0986780  23.9708790  84.7817660  75.3933880  17.0207130  86.5088130
  75.9448470  17.1302470  85.7341380  75.9077390  17.3944730  87.2243360
  85.2372570  27.5063350  88.5551400  84.7603130  28.3135540  88.3624010
  84.5534360  26.8541680  88.7077610  76.2405390  23.6713170  91.5436100
  75.3433920  23.8953140  91.7909500  76.2658260  23.7948110  90.5947500
  83.2810610  20.5206290  77.4577360  83.7203890  19.6828720  77.3115180
  83.9939030  21.1535690  77.5441500  75.0676610  20.5426490  90.1193470
  74.9284380  21.4149290  90.4880870  74.1857970  20.1999300  89.9741410
  81.3905990  25.4602360  81.4258600  81.8301900  26.2026690  81.0113990
  81.3292880  25.7028930  82.3497560  76.8656960  26.4848190  92.3278620
  76.8372390  26.8891140  91.4607050  76.7021930  25.5558550  92.1650220
  86.8627750  11.7749100  75.7718400  86.5500410  11.8675930  76.6717470
  87.6240220  12.3530130  75.7215830  73.3809890  19.1408900  80.2295740
  73.2607490  19.8670990  79.6177010  73.0710780  18.3711810  79.7523650
  88.8171780  27.2675290  93.6242790  89.2931500  27.7458180  94.3031870
  89.4378940  27.1992780  92.8988290  71.0195260  22.3124040  86.0364380
  71.0975680  22.4472810  85.0920100  71.6336940  21.6039930  86.2292500
  88.2205030  24.4588140  90.7842800  88.3468090  24.2200020  89.8659980
  88.2626410  23.6272680  91.2564880  82.0821770  28.1616140  89.3537610
  82.5966440  28.0724150  90.1560040  81.2390850  28.5075840  89.6465520
  84.0576170  28.4471480  78.7821610  83.8977310  28.1574420  79.6803440
  83.8922880  27.6711610  78.2466840  76.5364550  28.2270010  80.5593230
  76.3607030  27.3105550  80.3461030  75.6820290  28.5857300  80.7991030
  83.7602300  25.9559040  77.3419610  83.0667460  25.9536330  76.6821890
  84.5025160  25.5318360  76.9113780  83.3252230  27.5821750  81.4168100
  83.7809180  26.8011130  81.7306720  83.6644750  28.2928570  81.9609280
  88.0729040  16.5120600  91.7492540  87.4573310  17.0200270  91.2208000
  87.7525460  15.6118930  91.6918480  75.8473550  12.4843970  83.6119410
  75.4041700  13.2653510  83.2803930  76.4058540  12.8073860  84.3190350
  80.1343360  15.3512490  89.2154730  79.6722730  15.5595510  90.0274670
  79.7321470  14.5371840  88.9125400  85.1347870  16.5721440  90.3451390
  84.2841460  16.2727190  90.6660460  84.9749660  16.8163450  89.4335210
  82.2297580  18.0723190  92.4450180  82.5550990  17.2386940  92.1052410
  83.0177910  18.5951710  92.5928510  78.9632370  12.1054670  78.4925240
  78.3386550  12.1014540  79.2178550  78.8762490  11.2385630  78.0961210
  77.8849450  13.0291300  85.4709010  78.1821780  13.9354130  85.3901030
  78.4335010  12.5410080  84.8568580  75.6387770  17.6077540  81.3400660
  75.4128690  17.3914710  82.2447280  74.8580300  18.0406000  80.9946630
  82.8685530  17.6140910  79.9391310  82.2694420  18.3376710  79.7554930
  83.4165140  17.5517690  79.1567760  78.0786980  18.5063120  92.0060930
  77.9830580  17.5657850  91.8561330  78.9218960  18.7278190  91.6109000
  81.4750400  16.2504450  81.9694590  81.8679970  16.5676650  81.1563280
  81.8367250  15.3716330  82.0839110  73.2097520  14.9176790  90.1594710
  72.8160910  15.7652000  90.3667490  72.5215920  14.2803160  90.3503350
  79.7842570  15.0011760  93.2291450  79.0940890  14.8083960  93.8637540
  80.5274870  15.2846400  93.7615750  70.5114570  12.8405250  84.1924790
  70.2227620  13.4108110  84.9049770  71.2560330  12.3609700  84.5556020
  70.6984800  16.7825370  75.4027510  70.6159470  17.7256130  75.5442500
  70.3467860  16.6400280  74.5239860  82.0605540  18.8410200  86.0645370
  81.3286660  19.3497010  86.4135470  81.6629880  18.0240180  85.7634150
  78.4982930  15.5164400  84.4697860  78.5018990  15.0754350  83.6202400
  79.3934050  15.8381730  84.5769680  74.3485310  15.3990890  83.4292070
  74.0085360  15.8766120  84.1859120  73.5862630  14.9456010  83.0693170
  78.5603080  16.5176480  77.4604620  78.6815900  16.4762960  78.4090440
  78.1751590  17.3800630  77.3051350  82.5231450  14.2943880  85.4768310
  82.5404190  14.7452530  86.3210160  82.2747030  13.3949520  85.6901750
  77.5724580  18.8277620  76.8587920  77.0041480  18.3795870  76.2323830
  78.2813580  19.1870400  76.3253070  85.9502200  11.7076060  91.3154690
  86.2747970  10.9765720  91.8412670  85.9858710  11.3889700  90.4135680
  72.6493760  22.7289640  90.7354650  72.2648550  22.0883310  91.3337610
  72.9605950  23.4325760  91.3049380  78.7990900  19.5766180  86.2163270
  79.1661030  19.1024750  86.9624610  78.6095960  20.4507750  86.5571610
  71.6631390  14.3209870  82.3456740  71.3778310  13.9565540  83.1835360
  71.6010250  13.5890330  81.7319880  76.5890270  18.6174820  88.5347480
  76.2847340  19.4966800  88.7597840  77.5436730  18.6774610  88.5704920
  75.1172060  22.8235810  79.1314330  74.3434320  22.2833430  78.9713050
  75.8466690  22.3042420  78.7932090  85.8760040  21.8201170  84.9240720
  86.5959160  22.3156460  84.5336830  85.6741860  21.1419060  84.2794590
  81.3369980  13.2139130  79.0670110  80.5234590  12.7152300  78.9915420
  81.1431930  14.0537380  78.6506460  81.2578840  21.8910230  90.8109720
  81.1916150  20.9705900  90.5567310  80.6283980  21.9885670  91.5254360
  84.0518370  17.5858780  77.3632270  84.9397990  17.8976010  77.1883610
  84.0223460  16.7131030  76.9712850  75.1609460  22.4916190  82.7693140
  75.6788130  21.6884450  82.7150030  74.7093480  22.4295330  83.6109970
  80.0478960  23.7582470  78.0420440  80.3894660  24.5024700  77.5463760
  79.2191670  24.0713590  78.4045270  72.6454000  19.4577560  89.6818840
  72.2868940  20.1231410  90.2692180  72.3508560  18.6261110  90.0531460
  75.8467120  19.9161800  92.5658390  75.5467260  20.0618980  91.6686210
  76.6178360  19.3567090  92.4731780  81.1895570  24.7130800  90.5613520
  81.2040110  23.7811760  90.3432430  80.4820670  24.7990560  91.2003290
  86.3232640  18.8970620  76.8312130  86.2396360  19.3284840  75.9808570
  87.0426830  19.3568970  77.2638950  87.4006780  21.3538140  89.9082100
  86.6754970  21.9466920  89.7111490  87.9282240  21.3461680  89.1095470
  87.3519890  25.7512880  79.5594260  86.7096050  25.0968500  79.8337980
  86.9650550  26.1567970  78.7834930  82.9306370  23.0798310  83.4065950
  83.2830190  22.4826440  82.7467320  82.0468700  22.7542540  83.5774200
  79.0169650  23.8396000  80.8136360  79.7040780  24.3865210  81.1943950
  78.2302070  24.3836730  80.8485970  71.1562050  19.4568820  76.3053440
  72.0256900  19.7393620  76.5889360  70.6652370  20.2704690  76.1902250
  78.3196860  20.8442030  80.4261720  78.7759640  21.6547280  80.6521910
  77.9685070  20.5265170  81.2580210  80.6229470  26.3548370  87.6554020
  81.2671690  26.5607750  88.3327440  80.9858910  25.5936770  87.2024870
  74.2208640  11.1879680  80.8984240  74.0923270  11.1797580  81.8469160
  73.3970660  11.5262770  80.5475250  81.8961550  24.3580720  86.3731470
  82.5383780  23.6573880  86.4863640  82.4210900  25.1379160  86.1928360
  85.7417270  24.6429340  76.0970610  85.5154850  23.9259780  76.6895250
  85.3513470  24.3941780  75.2592360  83.6699170  25.1575620  89.5767530
  84.0055410  25.7442310  90.2545450  82.7499510  25.0268330  89.8065320
  71.2202570  12.9470800  90.3590940  70.5061090  13.1467720  90.9643550
  71.6397610  12.1710370  90.7305740  85.3233520  22.5601280  77.7584770
  85.0355220  23.0213970  78.5462650  86.1185690  22.0999050  78.0268990
  79.4987750  25.2066950  92.7455590  79.1784620  24.4876190  93.2901280
  78.8246110  25.8822020  92.8191650  77.5401920  26.0527400  77.6888740
  77.5312020  26.7857090  77.0733250  76.6200280  25.8058980  77.7815700
  73.1408560  21.2742290  78.4335500  72.5336510  22.0141190  78.4430800
  73.6157910  21.3641650  77.6073700  82.7141350  15.4393110  88.1092390
  83.0822170  14.6188320  88.4371960  81.8539550  15.4995000  88.5248040
  86.0803380  14.3950050  78.9179950  85.4516540  14.4995720  78.2038180
  85.5855300  14.6146830  79.7073830  80.5261520  26.1155640  76.3513930
  80.6273500  25.9119630  75.4215910  79.6263260  25.8613920  76.5561710
  78.0487410  16.6736000  80.3337830  77.3403560  17.1422340  80.7751440
  78.3331890  16.0158010  80.9683020  79.6743340  18.0932700  88.3330360
  80.1728590  18.5678520  88.9982210  79.8166290  17.1696220  88.5400390
  82.0802840  13.3986660  81.7733620  81.9570620  13.4172790  80.8243130
  83.0287400  13.4465600  81.8932020  79.1679630  28.6341960  81.0461600
  79.4221130  28.5963350  80.1240970  78.2192110  28.5075290  81.0389850
  76.2522430  14.9821080  77.7088540  77.1012960  15.4191230  77.6428730
  75.8853700  15.2941340  78.5360600  86.8810200  14.3100660  89.1758750
  86.3783800  15.0506060  89.5152560  87.6966860  14.6984660  88.8595540
  85.1732210  19.5533840  82.6220110  84.2322350  19.5684070  82.7967800
  85.4876280  18.7669800  83.0680410  75.1513850  21.2353440  76.1824070
  75.9177120  21.1234800  76.7449500  75.2288540  20.5391410  75.5300840
  73.8460610  18.6678510  76.8656960  73.9264200  17.7206020  76.9774360
  74.7380360  18.9985390  76.9717620  87.1757790  26.7242690  84.2974370
  87.3005210  27.5473860  84.7698180  88.0423350  26.5133420  83.9498520
  74.6475320  28.8173900  83.9691500  75.3837800  28.2689360  84.2400070
  75.0316240  29.6829910  83.8297490  73.6533600  28.0019970  93.1577080
  74.4546330  28.3232020  93.5712480  73.1385420  27.6415550  93.8796990
  77.7577630  27.9904210  75.7917070  78.5506240  28.2793040  75.3398860
  77.2381980  27.5596380  75.1129550  82.4898230  24.1099840  93.1052490
  81.8836390  24.1331440  92.3648240  82.1852340  23.3782880  93.6419740
  83.9198600  27.8380130  91.7161900  84.8720350  27.7538150  91.6662140
  83.7726820  28.5021840  92.3895690  86.8107800  27.2174340  77.2153810
  86.5249310  26.8039480  76.4007990  86.6127350  28.1462050  77.0954330
  71.3731410  20.4893430  92.1013130  71.8770430  19.9100710  92.6729360
  70.6338830  20.7733660  92.6389500  78.2755030  23.2107620  75.6559420
  78.1705670  22.5959970  76.3820800  78.1079250  22.6873510  74.8722430
  78.4269350  21.8964420  91.6348650  77.6615020  22.4649420  91.5503320
  78.6085310  21.6040630  90.7416880  81.5157760  22.2727650  76.2601410
  80.9667860  22.7196950  76.9044150  82.1377020  21.7676900  76.7839080
  85.5692700  23.6269750  92.1923670  86.3102170  23.9645510  91.6891130
  84.8065380  23.7961810  91.6393440  73.4054490  18.6323020  92.9963200
  73.4459830  18.3336890  93.9048430  74.2599990  19.0330630  92.8370720
  77.1832880  21.2318570  78.1566710  77.6049300  21.0658440  78.9998100
  77.3083720  20.4218800  77.6621850  75.3460300  17.2115120  90.9637690
  74.8156760  16.7206070  90.3361030  76.0148370  17.6399320  90.4295620
  79.6960520  20.2556180  75.4043810  80.2166180  19.5405200  75.0384960
  80.3428920  20.8942050  75.7044320  84.2438360  21.6784580  90.7278880
  84.6579380  21.8329660  91.5769300  83.3089360  21.8039800  90.8904660
  84.7160530  19.0180740  92.7318030  85.2981300  18.2633060  92.6438510
  84.8922300  19.5488180  91.9549510  75.8332600  14.1777490  91.0434980
  75.7389470  13.5598240  90.3185850  75.2529990  14.9043780  90.8164890
  78.5994040  12.7350730  88.0762370  78.1511340  12.7574990  87.2307920
  77.9659240  12.3369750  88.6732670  79.0053590  21.6305060  88.6974810
  79.4241700  22.4737790  88.5251050  78.0862220  21.7677100  88.4681590
  81.3417490  19.3621240  90.0812650  81.4613700  18.7662380  90.8207490
  82.2011490  19.3990930  89.6613950  83.6805390  19.9158430  88.6575160
  83.1540610  20.4401050  88.0540300  84.0236730  20.5485820  89.2884890
  76.0791780  17.3051800  75.1024870  75.8780840  16.4419160  75.4638210
  75.9083830  17.2185160  74.1646470  76.8561010  27.9358070  89.8132540
  76.3182100  28.6604130  89.4941240  77.1094970  27.4588410  89.0229880
  78.1086260  15.9042590  91.3388470  78.6985950  15.5958440  92.0266290
  77.2906500  15.4322340  91.4948370  82.9279690  15.5208400  91.5721490
  82.2395210  14.8589940  91.5071480  83.6485710  15.0746670  92.0169950
  83.5580090  12.1160030  77.6311750  83.8382380  11.2727930  77.9871170
  82.7845820  12.3483140  78.1450500  74.8774580  14.4052420  75.0902750
  75.1800480  14.4119850  74.1821900  75.6169170  14.0550280  75.5870410
  79.7123220  29.1709280  90.0719190  79.6381920  30.0744420  90.3791560
  78.8102060  28.8521180  90.0441260  78.0959510  13.3487040  76.0758950
  77.7481510  12.6711030  75.4961400  78.2972280  12.8876550  76.8902340
  80.2608550  28.3367790  77.6945550  81.1559340  28.6752760  77.7164310
  80.2926180  27.6147200  77.0669830  73.9004710  23.7094840  75.9232550
  74.3379580  24.2524510  76.5790130  74.3852440  22.8841790  75.9328890
  75.7112430  24.8292880  81.0354780  75.4107970  24.7057850  81.9358690
  75.6049920  23.9701470  80.6270510  87.2402900  26.8671460  90.4011750
  86.6404890  26.9264020  89.6575670  87.3696800  25.9276440  90.5308600
  88.4804350  24.6089280  75.7381460  87.6497310  24.6765930  76.2088690
  88.6576180  25.4993400  75.4348320  87.9360810  21.3536760  78.2415660
  88.6979720  21.9233410  78.3475350  87.9515180  20.7863960  79.0123970
  71.4365150  19.8774690  82.4723320  70.7813990  19.6086330  81.8283020
  72.2743100  19.7679170  82.0225300  88.9420780  22.2086860  83.0857590
  89.3129610  21.4254180  82.6793560  89.5822710  22.8975960  82.9074890
  85.9254540  23.5923440  88.4987910  85.1114380  24.0220600  88.7613700
  86.3328740  24.2041850  87.8856960  87.9879980  21.6471130  75.3988180
  88.2628820  22.5550010  75.2707400  87.7990720  21.5833660  76.3350170
  84.3855590  14.6715980  76.6941810  84.8040470  14.4846960  75.8538470
  84.0791650  13.8195030  77.0044740  87.8845320  19.5840120  80.3917610
  87.5088920  18.8168050  79.9598900  87.1548440  19.9662820  80.8792540
  72.4741080  20.2627260  87.0126660  72.8414120  20.1754660  87.8922680
  71.9051900  19.4993810  86.9133520  87.2744940  18.7311640  90.0257130
  87.0431030  18.5024390  89.1255080  87.5349490  19.6511190  89.9802020
  72.0257080  17.1736350  90.9185080  71.1313130  17.1403110  91.2578790
  72.5654630  17.3723140  91.6836330  85.7133010  13.9568070  92.8036830
  86.5903190  13.9651470  93.1870830  85.7253850  13.2198910  92.1929180
  70.6503230  17.0873620  78.4148650  69.7467310  17.3503820  78.2400310
  71.1343850  17.3584790  77.6348610  87.1596280  17.8097610  83.6924850
  87.6833760  17.3160260  83.0615020  87.7455700  17.9447970  84.4372420
  87.3386000  17.8937480  87.2144400  86.3888710  17.8601020  87.3289390
  87.5199010  18.8037590  86.9794170  73.1930440  16.1439160  76.3243030
  73.9022140  15.7222380  75.8390310  72.4770380  16.2114390  75.6926380
  72.8404600  12.1978490  75.3645680  73.5632730  12.7387430  75.6826900
  73.1129120  11.9241910  74.4887220  86.6496250  17.0670960  79.6317260
  87.1455370  16.8341830  80.4166140  86.4512320  16.2282800  79.2154900
  72.5296790  11.4484680  85.2668300  73.1772980  10.8982060  84.8263460
  72.9498630  11.7027830  86.0884110  88.0783410  15.7031910  82.1654940
  87.9682690  15.5487950  83.1037210  88.8391000  15.1752850  81.9230350
  86.4249130  11.6426040  88.6237940  87.0621350  12.2560180  88.9897130
  86.5724020  11.6786700  87.6787170  88.9673680  13.5339830  75.4061080
  89.8922990  13.4021010  75.1979370  88.9449470  13.6132650  76.3597530
  89.0412170  14.3050490  78.0317790  88.2463670  14.2395610  78.5610700
  89.2455450  15.2401130  78.0203140  85.9830590  28.3442040  82.0256180
  86.5789660  28.0226610  81.3490600  86.2408740  27.8713860  82.8169450
  72.2828790  11.6040350  88.0093620  71.9343610  12.0604170  88.7751800
  71.9516490  10.7097480  88.0916050  73.8893160  24.7759950  92.1746810
  73.8462790  24.4052860  93.0561270  74.0204170  25.7137520  92.3148630
  77.5899190  26.3319540  87.7756530  77.3490550  26.5994100  86.8887050
  78.5301830  26.5025270  87.8307390  79.7953610  12.7952230  91.5313040
  79.7342500  13.3874060  92.2808450  80.7353990  12.6878190  91.3863300
  82.4328170  12.4522290  91.1705330  83.0468580  12.7701580  90.5086410
  82.9777730  11.9670880  91.7901190  88.8503350  28.3513920  88.5767170
  88.3561630  28.7482790  87.8594300  88.2416640  27.7263130  88.9704450
  72.9549430  11.1316550  91.2844390  73.5032420  10.9504600  90.5210500
  73.0204740  10.3410660  91.8200700  83.1736210  11.0154430  87.4974620
  82.2996050  11.3489540  87.2947550  83.0646960  10.5427610  88.3226490
  84.0808190  13.2225300  88.8816340  83.7521550  12.4077060  88.5018070
  85.0290490  13.1795110  88.7582030  86.5342800  28.9937340  85.8553910
  86.0745770  29.7453150  85.4811930  85.9055260  28.2743810  85.7968710
  76.9638520  27.3025580  85.0302040  77.4803540  26.6912940  84.5050300
  77.6135900  27.8054360  85.5213050  79.7034020  28.1934070  85.8571020
  79.9911830  27.9388370  84.9804030  80.2157240  27.6411430  86.4476590
  80.9211030  11.9324270  86.4367530  80.1382820  12.4069770  86.7164290
  80.6273960  11.0279100  86.3280710  85.4732100  12.6347370  84.4816620
  85.9140190  12.5792470  83.6338220  85.2039690  13.5505380  84.5526800
  87.3370670  12.2662610  82.4925440  87.2759070  11.3223830  82.3456460
  88.1162700  12.3742700  83.0378900  72.2651440  12.2371750  78.9581250
  73.0230800  12.3500630  78.3845280  71.8028610  13.0740950  78.9124680
  78.8065250  14.3511020  81.9483560  77.9939760  13.9767910  81.6079440
  79.3106890  13.5956100  82.2504750  83.3090230  11.0153470  83.1866630
  83.9119600  11.5873680  83.6615150  82.5683220  11.5792910  82.9640530
  86.4524830  11.4175030  78.4606910  86.6475460  12.3158480  78.7274340
  85.6654700  11.1862110  78.9539860  73.2486120  27.0988200  78.8999530
  72.7233740  27.4796230  78.1961490  73.1730700  27.7238970  79.6209240
  74.6376590  12.7635800  77.4983220  75.1669350  11.9765600  77.3691170
  75.2704910  13.4426990  77.7318750  76.8314430  12.5010940  80.5528610
  76.2017170  11.7998250  80.7198740  76.2919570  13.2615070  80.3361770
  79.7706380  29.1150170  93.2239220  80.6973690  28.8794440  93.2675180
  79.7556810  29.9422170  92.7425250  88.0051440  28.6575740  80.2213470
  88.1803630  27.9713480  79.5774390  87.3073010  29.1822790  79.8290140
  76.9569990  11.7794920  92.9881100  76.6754260  12.2828520  92.2241920
  77.3389690  10.9816670  92.6223230  75.8479090  29.0470580  77.7748780
  76.5797910  28.7629860  77.2272670  76.1072760  28.8083860  78.6648160
  75.0093880  25.1635310  77.7795110  74.3802760  25.6320410  78.3280940
  75.1241710  24.3184530  78.2141300  83.5585450  11.1948500  93.5661570
  83.4450900  11.5143110  94.4613090  84.3755190  11.5961010  93.2698850
  86.3383940  28.3420030  93.0480260  87.1309260  27.8469260  92.8406220
  86.6317090  29.0210170  93.6555870  82.4643600  19.2140970  63.9296310
  82.3837650  18.2995580  63.6588020  82.0508020  19.7108040  63.2236020
  80.5961640  20.9919990  65.8105580  79.8203740  20.5120430  66.1004150
  81.2474570  20.3125640  65.6361740  74.6127470  21.3039800  66.6881340
  73.7812350  21.0488510  67.0877850  75.2208450  21.3750570  67.4239260
  84.6169070  25.3980180  64.5904710  84.1550600  24.6267420  64.9191880
  85.4294620  25.4246250  65.0957160  73.0219420  16.2641690  60.4723730
  72.1336120  16.6057660  60.3703610  73.3060610  16.0642010  59.5804560
  70.9852430  18.8647340  66.3563430  71.5568540  18.0969540  66.3567070
  70.9853970  19.1636100  65.4470040  80.8432380  27.6838190  64.2108700
  80.2243820  28.1395690  63.6403140  81.6984160  27.8389650  63.8098400
  80.0370630  23.6677180  65.8175740  79.9678910  22.7267120  65.6564870
  80.7990490  23.7578590  66.3898310  72.2277300  14.2731700  68.1432360
  72.0480140  13.3757450  68.4235120  71.8257380  14.8203570  68.8179310
  81.0675800  16.4747560  66.0444670  81.4440620  15.6019440  65.9318340
  80.9695310  16.8106260  65.1535110  75.1980810  14.8473190  61.5062110
  75.3047560  15.7476920  61.8130870  74.2873170  14.7991160  61.2156760
  84.8499920  13.9698000  62.9773010  85.6709540  13.4794570  63.0198490
  84.8834000  14.5595660  63.7304850  72.8463970  16.7692200  66.7514700
  73.5274080  17.0330570  67.3702100  72.5312020  15.9293070  67.0852710
  77.0388540  17.8159560  65.8387290  77.5466760  18.3140530  66.4792310
  77.5701780  17.0394760  65.6626650  89.1399470  15.9864750  69.5416640
  88.4351640  16.3746460  69.0231750  89.4057390  16.6815040  70.1437570
  75.3224640  12.4558120  70.1050710  75.3243080  12.9730510  69.2996610
  74.4928950  11.9788300  70.0820640  81.7095730  22.5677430  61.6040610
  81.0913000  23.0326880  61.0403330  82.2218980  23.2604910  62.0210120
  76.5727490  22.0953300  68.2824210  76.2396870  22.7222220  68.9245280
  76.7494170  22.6215180  67.5025880  85.0861400  15.9098380  65.7500550
  84.3816970  16.1983270  66.3303660  85.4473560  16.7198490  65.3900110
  75.0039970  14.1668080  68.1121160  75.3456780  15.0110130  67.8175030
  74.0655780  14.3151820  68.2286500  75.7846590  24.0634100  70.0973390
  76.4020590  24.7385180  69.8157840  74.9239710  24.4722080  70.0060890
  71.0778930  23.2533960  58.9780240  70.7006910  23.7421060  58.2465140
  71.3352000  23.9259240  59.6086770  86.7024180  25.5273510  68.0128030
  86.0187700  26.1972620  68.0044700  87.2418470  25.7254160  67.2472890
  88.1548320  15.3553170  66.1409760  87.2073230  15.3892150  66.2725190
  88.4798310  16.1692120  66.5259120  78.6867860  11.6550350  64.4365750
  78.9942840  11.0997240  63.7201250  77.7568560  11.7894810  64.2538740
  84.2382920  27.3717640  66.7273210  84.2510080  26.9679930  65.8595470
  83.6858140  28.1464930  66.6234640  85.5328340  24.0933860  61.8163380
  85.4224670  23.1508190  61.9412800  85.5296590  24.4549500  62.7026140
  83.6368360  22.2747480  68.0555820  84.0537150  22.0607590  67.2209280
  84.3608180  22.5320270  68.6264440  81.0748620  19.7199180  61.1725870
  80.1477900  19.6536560  61.4014340  81.2273440  20.6579310  61.0581110
  81.0617700  15.9916180  58.1693030  80.1221370  16.1530140  58.2545490
  81.3800960  16.7101860  57.6229020  87.5830460  20.6734700  68.1472060
  86.7549090  20.7427790  67.6722190  88.1780940  21.2589010  67.6787890
  85.1045910  21.2819480  61.6761120  84.4858330  20.9439030  61.0287420
  85.0870360  20.6379240  62.3840310  84.5472470  17.4604020  69.0926930
  84.1343650  18.2857730  69.3466920  83.8148420  16.8749060  68.9003290
  76.6805260  20.2463920  63.9545600  76.2762260  19.5341170  63.4591500
  76.7668380  19.9017160  64.8433640  77.1486960  23.9331480  66.1184810
  76.8515250  23.3276950  65.4392590  78.0986780  23.9708790  66.0074170
  75.3933880  17.0207130  67.7344640  75.9448470  17.1302470  66.9597890
  75.9077390  17.3944730  68.4499870  85.2372570  27.5063350  69.7807910
  84.7603130  28.3135540  69.5880520  84.5534360  26.8541680  69.9334120
  76.2405390  23.6713170  72.7692610  75.3433920  23.8953140  73.0166010
  76.2658260  23.7948110  71.8204010  83.2810610  20.5206290  58.6833870
  83.7203890  19.6828720  58.5371690  83.9939030  21.1535690  58.7698010
  75.0676610  20.5426490  71.3449980  74.9284380  21.4149290  71.7137380
  74.1857970  20.1999300  71.1997920  81.3905990  25.4602360  62.6515110
  81.8301900  26.2026690  62.2370500  81.3292880  25.7028930  63.5754070
  76.8656960  26.4848190  73.5535130  76.8372390  26.8891140  72.6863560
  76.7021930  25.5558550  73.3906730  86.8627750  11.7749100  56.9974910
  86.5500410  11.8675930  57.8973980  87.6240220  12.3530130  56.9472340
  73.3809890  19.1408900  61.4552250  73.2607490  19.8670990  60.8433520
  73.0710780  18.3711810  60.9780160  88.8171780  27.2675290  74.8499300
  89.2931500  27.7458180  75.5288380  89.4378940  27.1992780  74.1244800
  71.0195260  22.3124040  67.2620890  71.0975680  22.4472810  66.3176610
  71.6336940  21.6039930  67.4549010  88.2205030  24.4588140  72.0099310
  88.3468090  24.2200020  71.0916490  88.2626410  23.6272680  72.4821390
  82.0821770  28.1616140  70.5794120  82.5966440  28.0724150  71.3816550
  81.2390850  28.5075840  70.8722030  84.0576170  28.4471480  60.0078120
  83.8977310  28.1574420  60.9059950  83.8922880  27.6711610  59.4723350
  76.5364550  28.2270010  61.7849740  76.3607030  27.3105550  61.5717540
  75.6820290  28.5857300  62.0247540  83.7602300  25.9559040  58.5676120
  83.0667460  25.9536330  57.9078400  84.5025160  25.5318360  58.1370290
  83.3252230  27.5821750  62.6424610  83.7809180  26.8011130  62.9563230
  83.6644750  28.2928570  63.1865790  88.0729040  16.5120600  72.9749050
  87.4573310  17.0200270  72.4464510  87.7525460  15.6118930  72.9174990
  71.0754780  23.3538210  69.8015350  71.2385820  22.8843570  68.9834720
  71.5407230  22.8461770  70.4664190  75.8473550  12.4843970  64.8375920
  75.4041700  13.2653510  64.5060440  76.4058540  12.8073860  65.5446860
  80.1343360  15.3512490  70.4411240  79.6722730  15.5595510  71.2531180
  79.7321470  14.5371840  70.1381910  85.1347870  16.5721440  71.5707900
  84.2841460  16.2727190  71.8916970  84.9749660  16.8163450  70.6591720
  82.2297580  18.0723190  73.6706690  82.5550990  17.2386940  73.3308920
  83.0177910  18.5951710  73.8185020  78.9632370  12.1054670  59.7181750
  78.3386550  12.1014540  60.4435060  78.8762490  11.2385630  59.3217720
  77.8849450  13.0291300  66.6965520  78.1821780  13.9354130  66.6157540
  78.4335010  12.5410080  66.0825090  75.6387770  17.6077540  62.5657170
  75.4128690  17.3914710  63.4703790  74.8580300  18.0406000  62.2203140
  82.8685530  17.6140910  61.1647820  82.2694420  18.3376710  60.9811440
  83.4165140  17.5517690  60.3824270  78.0786980  18.5063120  73.2317440
  77.9830580  17.5657850  73.0817840  78.9218960  18.7278190  72.8365510
  81.4750400  16.2504450  63.1951100  81.8679970  16.5676650  62.3819790
  81.8367250  15.3716330  63.3095620  73.2097520  14.9176790  71.3851220
  72.8160910  15.7652000  71.5924000  72.5215920  14.2803160  71.5759860
  79.7842570  15.0011760  74.4547960  79.0940890  14.8083960  75.0894050
  80.5274870  15.2846400  74.9872260  70.5114570  12.8405250  65.4181300
  70.2227620  13.4108110  66.1306280  71.2560330  12.3609700  65.7812530
  70.6984800  16.7825370  56.6284020  70.6159470  17.7256130  56.7699010
  70.3467860  16.6400280  55.7496370  82.0605540  18.8410200  67.2901880
  81.3286660  19.3497010  67.6391980  81.6629880  18.0240180  66.9890660
  78.4982930  15.5164400  65.6954370  78.5018990  15.0754350  64.8458910
  79.3934050  15.8381730  65.8026190  74.3485310  15.3990890  64.6548580
  74.0085360  15.8766120  65.4115630  73.5862630  14.9456010  64.2949680
  78.5603080  16.5176480  58.6861130  78.6815900  16.4762960  59.6346950
  78.1751590  17.3800630  58.5307860  82.5231450  14.2943880  66.7024820
  82.5404190  14.7452530  67.5466670  82.2747030  13.3949520  66.9158260
  77.5724580  18.8277620  58.0844430  77.0041480  18.3795870  57.4580340
  78.2813580  19.1870400  57.5509580  85.9502200  11.7076060  72.5411200
  86.2747970  10.9765720  73.0669180  85.9858710  11.3889700  71.6392190
  72.6493760  22.7289640  71.9611160  72.2648550  22.0883310  72.5594120
  72.9605950  23.4325760  72.5305890  78.7990900  19.5766180  67.4419780
  79.1661030  19.1024750  68.1881120  78.6095960  20.4507750  67.7828120
  71.6631390  14.3209870  63.5713250  71.3778310  13.9565540  64.4091870
  71.6010250  13.5890330  62.9576390  76.5890270  18.6174820  69.7603990
  76.2847340  19.4966800  69.9854350  77.5436730  18.6774610  69.7961430
  75.1172060  22.8235810  60.3570840  74.3434320  22.2833430  60.1969560
  75.8466690  22.3042420  60.0188600  85.8760040  21.8201170  66.1497230
  86.5959160  22.3156460  65.7593340  85.6741860  21.1419060  65.5051100
  81.3369980  13.2139130  60.2926620  80.5234590  12.7152300  60.2171930
  81.1431930  14.0537380  59.8762970  81.2578840  21.8910230  72.0366230
  81.1916150  20.9705900  71.7823820  80.6283980  21.9885670  72.7510870
  84.0518370  17.5858780  58.5888780  84.9397990  17.8976010  58.4140120
  84.0223460  16.7131030  58.1969360  80.0478960  23.7582470  59.2676950
  80.3894660  24.5024700  58.7720270  79.2191670  24.0713590  59.6301780
  72.6454000  19.4577560  70.9075350  72.2868940  20.1231410  71.4948690
  72.3508560  18.6261110  71.2787970  75.8467120  19.9161800  73.7914900
  75.5467260  20.0618980  72.8942720  76.6178360  19.3567090  73.6988290
  81.1895570  24.7130800  71.7870030  81.2040110  23.7811760  71.5688940
  80.4820670  24.7990560  72.4259800  86.3232640  18.8970620  58.0568640
  86.2396360  19.3284840  57.2065080  87.0426830  19.3568970  58.4895460
  87.4006780  21.3538140  71.1338610  86.6754970  21.9466920  70.9368000
  87.9282240  21.3461680  70.3351980  87.3519890  25.7512880  60.7850770
  86.7096050  25.0968500  61.0594490  86.9650550  26.1567970  60.0091440
  82.9306370  23.0798310  64.6322460  83.2830190  22.4826440  63.9723830
  82.0468700  22.7542540  64.8030710  79.0169650  23.8396000  62.0392870
  79.7040780  24.3865210  62.4200460  78.2302070  24.3836730  62.0742480
  71.1562050  19.4568820  57.5309950  72.0256900  19.7393620  57.8145870
  70.6652370  20.2704690  57.4158760  78.3196860  20.8442030  61.6518230
  78.7759640  21.6547280  61.8778420  77.9685070  20.5265170  62.4836720
  80.6229470  26.3548370  68.8810530  81.2671690  26.5607750  69.5583950
  80.9858910  25.5936770  68.4281380  74.2208640  11.1879680  62.1240750
  74.0923270  11.1797580  63.0725670  73.3970660  11.5262770  61.7731760
  81.8961550  24.3580720  67.5987980  82.5383780  23.6573880  67.7120150
  82.4210900  25.1379160  67.4184870  85.7417270  24.6429340  57.3227120
  85.5154850  23.9259780  57.9151760  85.3513470  24.3941780  56.4848870
  83.6699170  25.1575620  70.8024040  84.0055410  25.7442310  71.4801960
  82.7499510  25.0268330  71.0321830  71.5233300  28.6696200  58.0971580
  71.8830940  29.2685540  57.4428850  71.3825640  29.2156090  58.8706610
  71.2202570  12.9470800  71.5847450  70.5061090  13.1467720  72.1900060
  71.6397610  12.1710370  71.9562250  85.3233520  22.5601280  58.9841280
  85.0355220  23.0213970  59.7719160  86.1185690  22.0999050  59.2525500
  71.5075160  26.9351060  72.5713980  71.6166280  25.9945800  72.4309370
  70.8555720  27.2005810  71.9227710  79.4987750  25.2066950  73.9712100
  79.1784620  24.4876190  74.5157790  78.8246110  25.8822020  74.0448160
  77.5401920  26.0527400  58.9145250  77.5312020  26.7857090  58.2989760
  76.6200280  25.8058980  59.0072210  73.1408560  21.2742290  59.6592010
  72.5336510  22.0141190  59.6687310  73.6157910  21.3641650  58.8330210
  82.7141350  15.4393110  69.3348900  83.0822170  14.6188320  69.6628470
  81.8539550  15.4995000  69.7504550  86.0803380  14.3950050  60.1436460
  85.4516540  14.4995720  59.4294690  85.5855300  14.6146830  60.9330340
  78.0487410  16.6736000  61.5594340  77.3403560  17.1422340  62.0007950
  78.3331890  16.0158010  62.1939530  79.6743340  18.0932700  69.5586870
  80.1728590  18.5678520  70.2238720  79.8166290  17.1696220  69.7656900
  82.0802840  13.3986660  62.9990130  81.9570620  13.4172790  62.0499640
  83.0287400  13.4465600  63.1188530  79.1679630  28.6341960  62.2718110
  79.4221130  28.5963350  61.3497480  78.2192110  28.5075290  62.2646360
  76.2522430  14.9821080  58.9345050  77.1012960  15.4191230  58.8685240
  75.8853700  15.2941340  59.7617110  86.8810200  14.3100660  70.4015260
  86.3783800  15.0506060  70.7409070  87.6966860  14.6984660  70.0852050
  85.1732210  19.5533840  63.8476620  84.2322350  19.5684070  64.0224310
  85.4876280  18.7669800  64.2936920  75.1513850  21.2353440  57.4080580
  75.9177120  21.1234800  57.9706010  75.2288540  20.5391410  56.7557350
  73.8460610  18.6678510  58.0913470  73.9264200  17.7206020  58.2030870
  74.7380360  18.9985390  58.1974130  87.1757790  26.7242690  65.5230880
  87.3005210  27.5473860  65.9954690  88.0423350  26.5133420  65.1755030
  74.6475320  28.8173900  65.1948010  75.3837800  28.2689360  65.4656580
  75.0316240  29.6829910  65.0554000  73.6533600  28.0019970  74.3833590
  74.4546330  28.3232020  74.7968990  73.1385420  27.6415550  75.1053500
  82.4898230  24.1099840  74.3309000  81.8836390  24.1331440  73.5904750
  82.1852340  23.3782880  74.8676250  83.9198600  27.8380130  72.9418410
  84.8720350  27.7538150  72.8918650  83.7726820  28.5021840  73.6152200
  86.8107800  27.2174340  58.4410320  86.5249310  26.8039480  57.6264500
  86.6127350  28.1462050  58.3210840  71.3731410  20.4893430  73.3269640
  71.8770430  19.9100710  73.8985870  70.6338830  20.7733660  73.8646010
  78.2755030  23.2107620  56.8815930  78.1705670  22.5959970  57.6077310
  78.1079250  22.6873510  56.0978940  78.4269350  21.8964420  72.8605160
  77.6615020  22.4649420  72.7759830  78.6085310  21.6040630  71.9673390
  81.5157760  22.2727650  57.4857920  80.9667860  22.7196950  58.1300660
  82.1377020  21.7676900  58.0095590  85.5692700  23.6269750  73.4180180
  86.3102170  23.9645510  72.9147640  84.8065380  23.7961810  72.8649950
  73.4054490  18.6323020  74.2219710  73.4459830  18.3336890  75.1304940
  74.2599990  19.0330630  74.0627230  77.1832880  21.2318570  59.3823220
  77.6049300  21.0658440  60.2254610  77.3083720  20.4218800  58.8878360
  75.3460300  17.2115120  72.1894200  74.8156760  16.7206070  71.5617540
  76.0148370  17.6399320  71.6552130  79.6960520  20.2556180  56.6300320
  80.2166180  19.5405200  56.2641470  80.3428920  20.8942050  56.9300830
  84.2438360  21.6784580  71.9535390  84.6579380  21.8329660  72.8025810
  83.3089360  21.8039800  72.1161170  84.7160530  19.0180740  73.9574540
  85.2981300  18.2633060  73.8695020  84.8922300  19.5488180  73.1806020
  75.8332600  14.1777490  72.2691490  75.7389470  13.5598240  71.5442360
  75.2529990  14.9043780  72.0421400  78.5994040  12.7350730  69.3018880
  78.1511340  12.7574990  68.4564430  77.9659240  12.3369750  69.8989180
  79.0053590  21.6305060  69.9231320  79.4241700  22.4737790  69.7507560
  78.0862220  21.7677100  69.6938100  81.3417490  19.3621240  71.3069160
  81.4613700  18.7662380  72.0464000  82.2011490  19.3990930  70.8870460
  83.6805390  19.9158430  69.8831670  83.1540610  20.4401050  69.2796810
  84.0236730  20.5485820  70.5141400  76.0791780  17.3051800  56.3281380
  75.8780840  16.4419160  56.6894720  75.9083830  17.2185160  55.3902980
  76.8561010  27.9358070  71.0389050  76.3182100  28.6604130  70.7197750
  77.1094970  27.4588410  70.2486390  78.1086260  15.9042590  72.5644980
  78.6985950  15.5958440  73.2522800  77.2906500  15.4322340  72.7204880
  82.9279690  15.5208400  72.7978000  82.2395210  14.8589940  72.7327990
  83.6485710  15.0746670  73.2426460  83.5580090  12.1160030  58.8568260
  83.8382380  11.2727930  59.2127680  82.7845820  12.3483140  59.3707010
  74.8774580  14.4052420  56.3159260  75.1800480  14.4119850  55.4078410
  75.6169170  14.0550280  56.8126920  79.7123220  29.1709280  71.2975700
  79.6381920  30.0744420  71.6048070  78.8102060  28.8521180  71.2697770
  78.0959510  13.3487040  57.3015460  77.7481510  12.6711030  56.7217910
  78.2972280  12.8876550  58.1158850  73.9004710  23.7094840  57.1489060
  74.3379580  24.2524510  57.8046640  74.3852440  22.8841790  57.1585400
  75.7112430  24.8292880  62.2611290  75.4107970  24.7057850  63.1615200
  75.6049920  23.9701470  61.8527020  87.2402900  26.8671460  71.6268260
  86.6404890  26.9264020  70.8832180  87.3696800  25.9276440  71.7565110
  88.4804350  24.6089280  56.9637970  87.6497310  24.6765930  57.4345200
  88.6576180  25.4993400  56.6604830  87.9360810  21.3536760  59.4672170
  88.6979720  21.9233410  59.5731860  87.9515180  20.7863960  60.2380480
  88.9420780  22.2086860  64.3114100  89.3129610  21.4254180  63.9050070
  89.5822710  22.8975960  64.1331400  85.9254540  23.5923440  69.7244420
  85.1114380  24.0220600  69.9870210  86.3328740  24.2041850  69.1113470
  87.9879980  21.6471130  56.6244690  88.2628820  22.5550010  56.4963910
  87.7990720  21.5833660  57.5606680  84.3855590  14.6715980  57.9198320
  84.8040470  14.4846960  57.0794980  84.0791650  13.8195030  58.2301250
  87.8845320  19.5840120  61.6174120  87.5088920  18.8168050  61.1855410
  87.1548440  19.9662820  62.1049050  72.4741080  20.2627260  68.2383170
  72.8414120  20.1754660  69.1179190  71.9051900  19.4993810  68.1390030
  87.2744940  18.7311640  71.2513640  87.0431030  18.5024390  70.3511590
  87.5349490  19.6511190  71.2058530  72.0257080  17.1736350  72.1441590
  71.1313130  17.1403110  72.4835300  72.5654630  17.3723140  72.9092840
  85.7133010  13.9568070  74.0293340  86.5903190  13.9651470  74.4127340
  85.7253850  13.2198910  73.4185690  70.6503230  17.0873620  59.6405160
  69.7467310  17.3503820  59.4656820  71.1343850  17.3584790  58.8605120
  87.1596280  17.8097610  64.9181360  87.6833760  17.3160260  64.2871530
  87.7455700  17.9447970  65.6628930  87.3386000  17.8937480  68.4400910
  86.3888710  17.8601020  68.5545900  87.5199010  18.8037590  68.2050680
  73.1930440  16.1439160  57.5499540  73.9022140  15.7222380  57.0646820
  72.4770380  16.2114390  56.9182890  72.8404600  12.1978490  56.5902190
  73.5632730  12.7387430  56.9083410  73.1129120  11.9241910  55.7143730
  86.6496250  17.0670960  60.8573770  87.1455370  16.8341830  61.6422650
  86.4512320  16.2282800  60.4411410  72.5296790  11.4484680  66.4924810
  73.1772980  10.8982060  66.0519970  72.9498630  11.7027830  67.3140620
  88.0783410  15.7031910  63.3911450  87.9682690  15.5487950  64.3293720
  88.8391000  15.1752850  63.1486860  86.4249130  11.6426040  69.8494450
  87.0621350  12.2560180  70.2153640  86.5724020  11.6786700  68.9043680
  88.9673680  13.5339830  56.6317590  89.8922990  13.4021010  56.4235880
  88.9449470  13.6132650  57.5854040  89.0412170  14.3050490  59.2574300
  88.2463670  14.2395610  59.7867210  89.2455450  15.2401130  59.2459650
  85.9830590  28.3442040  63.2512690  86.5789660  28.0226610  62.5747110
  86.2408740  27.8713860  64.0425960  72.2828790  11.6040350  69.2350130
  71.9343610  12.0604170  70.0008310  71.9516490  10.7097480  69.3172560
  73.8893160  24.7759950  73.4003320  73.8462790  24.4052860  74.2817780
  74.0204170  25.7137520  73.5405140  77.5899190  26.3319540  69.0013040
  77.3490550  26.5994100  68.1143560  78.5301830  26.5025270  69.0563900
  79.7953610  12.7952230  72.7569550  79.7342500  13.3874060  73.5064960
  80.7353990  12.6878190  72.6119810  82.4328170  12.4522290  72.3961840
  83.0468580  12.7701580  71.7342920  82.9777730  11.9670880  73.0157700
  88.8503350  28.3513920  69.8023680  88.3561630  28.7482790  69.0850810
  88.2416640  27.7263130  70.1960960  72.9549430  11.1316550  72.5100900
  73.5032420  10.9504600  71.7467010  73.0204740  10.3410660  73.0457210
  73.7281190  27.7222200  70.5201100  73.1341510  27.5906900  71.2591140
  73.7205030  26.8860340  70.0543200  83.1736210  11.0154430  68.7231130
  82.2996050  11.3489540  68.5204060  83.0646960  10.5427610  69.5483000
  84.0808190  13.2225300  70.1072850  83.7521550  12.4077060  69.7274580
  85.0290490  13.1795110  69.9838540  86.5342800  28.9937340  67.0810420
  86.0745770  29.7453150  66.7068440  85.9055260  28.2743810  67.0225220
  73.3593420  25.0880580  69.4709140  72.6327480  24.4685870  69.4035090
  73.4202570  25.4821190  68.6007220  76.9638520  27.3025580  66.2558550
  77.4803540  26.6912940  65.7306810  77.6135900  27.8054360  66.7469560
  79.7034020  28.1934070  67.0827530  79.9911830  27.9388370  66.2060540
  80.2157240  27.6411430  67.6733100  80.9211030  11.9324270  67.6624040
  80.1382820  12.4069770  67.9420800  80.6273960  11.0279100  67.5537220
  85.4732100  12.6347370  65.7073130  85.9140190  12.5792470  64.8594730
  85.2039690  13.5505380  65.7783310  87.3370670  12.2662610  63.7181950
  87.2759070  11.3223830  63.5712970  88.1162700  12.3742700  64.2635410
  72.2651440  12.2371750  60.1837760  73.0230800  12.3500630  59.6101790
  71.8028610  13.0740950  60.1381190  78.8065250  14.3511020  63.1740070
  77.9939760  13.9767910  62.8335950  79.3106890  13.5956100  63.4761260
  83.3090230  11.0153470  64.4123140  83.9119600  11.5873680  64.8871660
  82.5683220  11.5792910  64.1897040  86.4524830  11.4175030  59.6863420
  86.6475460  12.3158480  59.9530850  85.6654700  11.1862110  60.1796370
  73.2486120  27.0988200  60.1256040  72.7233740  27.4796230  59.4218000
  73.1730700  27.7238970  60.8465750  74.6376590  12.7635800  58.7239730
  75.1669350  11.9765600  58.5947680  75.2704910  13.4426990  58.9575260
  76.8314430  12.5010940  61.7785120  76.2017170  11.7998250  61.9455250
  76.2919570  13.2615070  61.5618280  79.7706380  29.1150170  74.4495730
  80.6973690  28.8794440  74.4931690  79.7556810  29.9422170  73.9681760
  88.0051440  28.6575740  61.4469980  88.1803630  27.9713480  60.8030900
  87.3073010  29.1822790  61.0546650  76.9569990  11.7794920  74.2137610
  76.6754260  12.2828520  73.4498430  77.3389690  10.9816670  73.8479740
  75.8479090  29.0470580  59.0005290  76.5797910  28.7629860  58.4529180
  76.1072760  28.8083860  59.8904670  75.0093880  25.1635310  59.0051620
  74.3802760  25.6320410  59.5537450  75.1241710  24.3184530  59.4397810
  83.5585450  11.1948500  74.7918080  83.4450900  11.5143110  75.6869600
  84.3755190  11.5961010  74.4955360  86.3383940  28.3420030  74.2736770
  87.1309260  27.8469260  74.0662730  86.6317090  29.0210170  74.8812380
  82.4643600  19.2140970  45.1552820  82.3837650  18.2995580  44.8844530
  82.0508020  19.7108040  44.4492530  80.5961640  20.9919990  47.0362090
  79.8203740  20.5120430  47.3260660  81.2474570  20.3125640  46.8618250
  74.6127470  21.3039800  47.9137850  73.7812350  21.0488510  48.3134360
  75.2208450  21.3750570  48.6495770  84.6169070  25.3980180  45.8161220
  84.1550600  24.6267420  46.1448390  85.4294620  25.4246250  46.3213670
  74.5928730  25.3379890  48.1095870  74.8956770  24.4477630  47.9306090
  75.3372320  25.8950110  47.8818120  73.0219420  16.2641690  41.6980240
  72.1336120  16.6057660  41.5960120  73.3060610  16.0642010  40.8061070
  70.9852430  18.8647340  47.5819940  71.5568540  18.0969540  47.5823580
  70.9853970  19.1636100  46.6726550  80.8432380  27.6838190  45.4365210
  80.2243820  28.1395690  44.8659650  81.6984160  27.8389650  45.0354910
  80.0370630  23.6677180  47.0432250  79.9678910  22.7267120  46.8821380
  80.7990490  23.7578590  47.6154820  72.2277300  14.2731700  49.3688870
  72.0480140  13.3757450  49.6491630  71.8257380  14.8203570  50.0435820
  81.0675800  16.4747560  47.2701180  81.4440620  15.6019440  47.1574850
  80.9695310  16.8106260  46.3791620  75.1980810  14.8473190  42.7318620
  75.3047560  15.7476920  43.0387380  74.2873170  14.7991160  42.4413270
  84.8499920  13.9698000  44.2029520  85.6709540  13.4794570  44.2455000
  84.8834000  14.5595660  44.9561360  72.8463970  16.7692200  47.9771210
  73.5274080  17.0330570  48.5958610  72.5312020  15.9293070  48.3109220
  77.0388540  17.8159560  47.0643800  77.5466760  18.3140530  47.7048820
  77.5701780  17.0394760  46.8883160  89.1399470  15.9864750  50.7673150
  88.4351640  16.3746460  50.2488260  89.4057390  16.6815040  51.3694080
  75.3224640  12.4558120  51.3307220  75.3243080  12.9730510  50.5253120
  74.4928950  11.9788300  51.3077150  81.7095730  22.5677430  42.8297120
  81.0913000  23.0326880  42.2659840  82.2218980  23.2604910  43.2466630
  76.5727490  22.0953300  49.5080720  76.2396870  22.7222220  50.1501790
  76.7494170  22.6215180  48.7282390  85.0861400  15.9098380  46.9757060
  84.3816970  16.1983270  47.5560170  85.4473560  16.7198490  46.6156620
  75.0039970  14.1668080  49.3377670  75.3456780  15.0110130  49.0431540
  74.0655780  14.3151820  49.4543010  75.7846590  24.0634100  51.3229900
  76.4020590  24.7385180  51.0414350  74.9239710  24.4722080  51.2317400
  71.0778930  23.2533960  40.2036750  70.7006910  23.7421060  39.4721650
  71.3352000  23.9259240  40.8343280  86.7024180  25.5273510  49.2384540
  86.0187700  26.1972620  49.2301210  87.2418470  25.7254160  48.4729400
  88.1548320  15.3553170  47.3666270  87.2073230  15.3892150  47.4981700
  88.4798310  16.1692120  47.7515630  78.6867860  11.6550350  45.6622260
  78.9942840  11.0997240  44.9457760  77.7568560  11.7894810  45.4795250
  84.2382920  27.3717640  47.9529720  84.2510080  26.9679930  47.0851980
  83.6858140  28.1464930  47.8491150  85.5328340  24.0933860  43.0419890
  85.4224670  23.1508190  43.1669310  85.5296590  24.4549500  43.9282650
  83.6368360  22.2747480  49.2812330  84.0537150  22.0607590  48.4465790
  84.3608180  22.5320270  49.8520950  81.0748620  19.7199180  42.3982380
  80.1477900  19.6536560  42.6270850  81.2273440  20.6579310  42.2837620
  81.0617700  15.9916180  39.3949540  80.1221370  16.1530140  39.4802000
  81.3800960  16.7101860  38.8485530  87.5830460  20.6734700  49.3728570
  86.7549090  20.7427790  48.8978700  88.1780940  21.2589010  48.9044400
  85.1045910  21.2819480  42.9017630  84.4858330  20.9439030  42.2543930
  85.0870360  20.6379240  43.6096820  84.5472470  17.4604020  50.3183440
  84.1343650  18.2857730  50.5723430  83.8148420  16.8749060  50.1259800
  76.6805260  20.2463920  45.1802110  76.2762260  19.5341170  44.6848010
  76.7668380  19.9017160  46.0690150  77.1486960  23.9331480  47.3441320
  76.8515250  23.3276950  46.6649100  78.0986780  23.9708790  47.2330680
  75.3933880  17.0207130  48.9601150  75.9448470  17.1302470  48.1854400
  75.9077390  17.3944730  49.6756380  85.2372570  27.5063350  51.0064420
  84.7603130  28.3135540  50.8137030  84.5534360  26.8541680  51.1590630
  76.2405390  23.6713170  53.9949120  75.3433920  23.8953140  54.2422520
  76.2658260  23.7948110  53.0460520  83.2810610  20.5206290  39.9090380
  83.7203890  19.6828720  39.7628200  83.9939030  21.1535690  39.9954520
  75.0676610  20.5426490  52.5706490  74.9284380  21.4149290  52.9393890
  74.1857970  20.1999300  52.4254430  81.3905990  25.4602360  43.8771620
  81.8301900  26.2026690  43.4627010  81.3292880  25.7028930  44.8010580
  76.8656960  26.4848190  54.7791640  76.8372390  26.8891140  53.9120070
  76.7021930  25.5558550  54.6163240  86.8627750  11.7749100  38.2231420
  86.5500410  11.8675930  39.1230490  87.6240220  12.3530130  38.1728850
  73.3809890  19.1408900  42.6808760  73.2607490  19.8670990  42.0690030
  73.0710780  18.3711810  42.2036670  88.8171780  27.2675290  56.0755810
  89.2931500  27.7458180  56.7544890  89.4378940  27.1992780  55.3501310
  71.0195260  22.3124040  48.4877400  71.0975680  22.4472810  47.5433120
  71.6336940  21.6039930  48.6805520  72.2642890  24.0124230  44.8983580
  71.8570970  24.1538820  44.0437180  73.1555900  23.7284390  44.6954790
  88.2205030  24.4588140  53.2355820  88.3468090  24.2200020  52.3173000
  88.2626410  23.6272680  53.7077900  82.0821770  28.1616140  51.8050630
  82.5966440  28.0724150  52.6073060  81.2390850  28.5075840  52.0978540
  84.0576170  28.4471480  41.2334630  83.8977310  28.1574420  42.1316460
  83.8922880  27.6711610  40.6979860  76.5364550  28.2270010  43.0106250
  76.3607030  27.3105550  42.7974050  75.6820290  28.5857300  43.2504050
  83.7602300  25.9559040  39.7932630  83.0667460  25.9536330  39.1334910
  84.5025160  25.5318360  39.3626800  83.3252230  27.5821750  43.8681120
  83.7809180  26.8011130  44.1819740  83.6644750  28.2928570  44.4122300
  88.0729040  16.5120600  54.2005560  87.4573310  17.0200270  53.6721020
  87.7525460  15.6118930  54.1431500  71.0754780  23.3538210  51.0271860
  71.2385820  22.8843570  50.2091230  71.5407230  22.8461770  51.6920700
  75.8473550  12.4843970  46.0632430  75.4041700  13.2653510  45.7316950
  76.4058540  12.8073860  46.7703370  80.1343360  15.3512490  51.6667750
  79.6722730  15.5595510  52.4787690  79.7321470  14.5371840  51.3638420
  85.1347870  16.5721440  52.7964410  84.2841460  16.2727190  53.1173480
  84.9749660  16.8163450  51.8848230  82.2297580  18.0723190  54.8963200
  82.5550990  17.2386940  54.5565430  83.0177910  18.5951710  55.0441530
  78.9632370  12.1054670  40.9438260  78.3386550  12.1014540  41.6691570
  78.8762490  11.2385630  40.5474230  77.8849450  13.0291300  47.9222030
  78.1821780  13.9354130  47.8414050  78.4335010  12.5410080  47.3081600
  75.6387770  17.6077540  43.7913680  75.4128690  17.3914710  44.6960300
  74.8580300  18.0406000  43.4459650  82.8685530  17.6140910  42.3904330
  82.2694420  18.3376710  42.2067950  83.4165140  17.5517690  41.6080780
  78.0786980  18.5063120  54.4573950  77.9830580  17.5657850  54.3074350
  78.9218960  18.7278190  54.0622020  81.4750400  16.2504450  44.4207610
  81.8679970  16.5676650  43.6076300  81.8367250  15.3716330  44.5352130
  73.2097520  14.9176790  52.6107730  72.8160910  15.7652000  52.8180510
  72.5215920  14.2803160  52.8016370  79.7842570  15.0011760  55.6804470
  79.0940890  14.8083960  56.3150560  80.5274870  15.2846400  56.2128770
  70.5114570  12.8405250  46.6437810  70.2227620  13.4108110  47.3562790
  71.2560330  12.3609700  47.0069040  70.6984800  16.7825370  37.8540530
  70.6159470  17.7256130  37.9955520  70.3467860  16.6400280  36.9752880
  82.0605540  18.8410200  48.5158390  81.3286660  19.3497010  48.8648490
  81.6629880  18.0240180  48.2147170  78.4982930  15.5164400  46.9210880
  78.5018990  15.0754350  46.0715420  79.3934050  15.8381730  47.0282700
  74.3485310  15.3990890  45.8805090  74.0085360  15.8766120  46.6372140
  73.5862630  14.9456010  45.5206190  78.5603080  16.5176480  39.9117640
  78.6815900  16.4762960  40.8603460  78.1751590  17.3800630  39.7564370
  82.5231450  14.2943880  47.9281330  82.5404190  14.7452530  48.7723180
  82.2747030  13.3949520  48.1414770  77.5724580  18.8277620  39.3100940
  77.0041480  18.3795870  38.6836850  78.2813580  19.1870400  38.7766090
  85.9502200  11.7076060  53.7667710  86.2747970  10.9765720  54.2925690
  85.9858710  11.3889700  52.8648700  72.6493760  22.7289640  53.1867670
  72.2648550  22.0883310  53.7850630  72.9605950  23.4325760  53.7562400
  78.7990900  19.5766180  48.6676290  79.1661030  19.1024750  49.4137630
  78.6095960  20.4507750  49.0084630  71.6631390  14.3209870  44.7969760
  71.3778310  13.9565540  45.6348380  71.6010250  13.5890330  44.1832900
  76.5890270  18.6174820  50.9860500  76.2847340  19.4966800  51.2110860
  77.5436730  18.6774610  51.0217940  75.1172060  22.8235810  41.5827350
  74.3434320  22.2833430  41.4226070  75.8466690  22.3042420  41.2445110
  85.8760040  21.8201170  47.3753740  86.5959160  22.3156460  46.9849850
  85.6741860  21.1419060  46.7307610  81.3369980  13.2139130  41.5183130
  80.5234590  12.7152300  41.4428440  81.1431930  14.0537380  41.1019480
  81.2578840  21.8910230  53.2622740  81.1916150  20.9705900  53.0080330
  80.6283980  21.9885670  53.9767380  84.0518370  17.5858780  39.8145290
  84.9397990  17.8976010  39.6396630  84.0223460  16.7131030  39.4225870
  75.1609460  22.4916190  45.2206160  75.6788130  21.6884450  45.1663050
  74.7093480  22.4295330  46.0622990  80.0478960  23.7582470  40.4933460
  80.3894660  24.5024700  39.9976780  79.2191670  24.0713590  40.8558290
  72.6454000  19.4577560  52.1331860  72.2868940  20.1231410  52.7205200
  72.3508560  18.6261110  52.5044480  75.8467120  19.9161800  55.0171410
  75.5467260  20.0618980  54.1199230  76.6178360  19.3567090  54.9244800
  81.1895570  24.7130800  53.0126540  81.2040110  23.7811760  52.7945450
  80.4820670  24.7990560  53.6516310  86.3232640  18.8970620  39.2825150
  86.2396360  19.3284840  38.4321590  87.0426830  19.3568970  39.7151970
  87.4006780  21.3538140  52.3595120  86.6754970  21.9466920  52.1624510
  87.9282240  21.3461680  51.5608490  87.3519890  25.7512880  42.0107280
  86.7096050  25.0968500  42.2851000  86.9650550  26.1567970  41.2347950
  82.9306370  23.0798310  45.8578970  83.2830190  22.4826440  45.1980340
  82.0468700  22.7542540  46.0287220  79.0169650  23.8396000  43.2649380
  79.7040780  24.3865210  43.6456970  78.2302070  24.3836730  43.2998990
  71.1562050  19.4568820  38.7566460  72.0256900  19.7393620  39.0402380
  70.6652370  20.2704690  38.6415270  78.3196860  20.8442030  42.8774740
  78.7759640  21.6547280  43.1034930  77.9685070  20.5265170  43.7093230
  80.6229470  26.3548370  50.1067040  81.2671690  26.5607750  50.7840460
  80.9858910  25.5936770  49.6537890  74.2208640  11.1879680  43.3497260
  74.0923270  11.1797580  44.2982180  73.3970660  11.5262770  42.9988270
  81.8961550  24.3580720  48.8244490  82.5383780  23.6573880  48.9376660
  82.4210900  25.1379160  48.6441380  85.7417270  24.6429340  38.5483630
  85.5154850  23.9259780  39.1408270  85.3513470  24.3941780  37.7105380
  83.6699170  25.1575620  52.0280550  84.0055410  25.7442310  52.7058470
  82.7499510  25.0268330  52.2578340  71.5233300  28.6696200  39.3228090
  71.8830940  29.2685540  38.6685360  71.3825640  29.2156090  40.0963120
  71.2202570  12.9470800  52.8103960  70.5061090  13.1467720  53.4156570
  71.6397610  12.1710370  53.1818760  85.3233520  22.5601280  40.2097790
  85.0355220  23.0213970  40.9975670  86.1185690  22.0999050  40.4782010
  71.5075160  26.9351060  53.7970490  71.6166280  25.9945800  53.6565880
  70.8555720  27.2005810  53.1484220  79.4987750  25.2066950  55.1968610
  79.1784620  24.4876190  55.7414300  78.8246110  25.8822020  55.2704670
  77.5401920  26.0527400  40.1401760  77.5312020  26.7857090  39.5246270
  76.6200280  25.8058980  40.2328720  73.1408560  21.2742290  40.8848520
  72.5336510  22.0141190  40.8943820  73.6157910  21.3641650  40.0586720
  82.7141350  15.4393110  50.5605410  83.0822170  14.6188320  50.8884980
  81.8539550  15.4995000  50.9761060  86.0803380  14.3950050  41.3692970
  85.4516540  14.4995720  40.6551200  85.5855300  14.6146830  42.1586850
  80.5261520  26.1155640  38.8026950  80.6273500  25.9119630  37.8728930
  79.6263260  25.8613920  39.0074730  78.0487410  16.6736000  42.7850850
  77.3403560  17.1422340  43.2264460  78.3331890  16.0158010  43.4196040
  79.6743340  18.0932700  50.7843380  80.1728590  18.5678520  51.4495230
  79.8166290  17.1696220  50.9913410  82.0802840  13.3986660  44.2246640
  81.9570620  13.4172790  43.2756150  83.0287400  13.4465600  44.3445040
  79.1679630  28.6341960  43.4974620  79.4221130  28.5963350  42.5753990
  78.2192110  28.5075290  43.4902870  76.2522430  14.9821080  40.1601560
  77.1012960  15.4191230  40.0941750  75.8853700  15.2941340  40.9873620
  86.8810200  14.3100660  51.6271770  86.3783800  15.0506060  51.9665580
  87.6966860  14.6984660  51.3108560  85.1732210  19.5533840  45.0733130
  84.2322350  19.5684070  45.2480820  85.4876280  18.7669800  45.5193430
  75.1513850  21.2353440  38.6337090  75.9177120  21.1234800  39.1962520
  75.2288540  20.5391410  37.9813860  73.8460610  18.6678510  39.3169980
  73.9264200  17.7206020  39.4287380  74.7380360  18.9985390  39.4230640
  87.1757790  26.7242690  46.7487390  87.3005210  27.5473860  47.2211200
  88.0423350  26.5133420  46.4011540  71.5320800  24.8847470  42.2946030
  70.6060580  25.1268610  42.2851440  71.9977230  25.7121730  42.1730780
  73.6533600  28.0019970  55.6090100  74.4546330  28.3232020  56.0225500
  73.1385420  27.6415550  56.3310010  77.7577630  27.9904210  38.2430090
  78.5506240  28.2793040  37.7911880  77.2381980  27.5596380  37.5642570
  82.4898230  24.1099840  55.5565510  81.8836390  24.1331440  54.8161260
  82.1852340  23.3782880  56.0932760  86.8107800  27.2174340  39.6666830
  86.5249310  26.8039480  38.8521010  86.6127350  28.1462050  39.5467350
  71.3731410  20.4893430  54.5526150  71.8770430  19.9100710  55.1242380
  70.6338830  20.7733660  55.0902520  78.2755030  23.2107620  38.1072440
  78.1705670  22.5959970  38.8333820  78.1079250  22.6873510  37.3235450
  78.4269350  21.8964420  54.0861670  77.6615020  22.4649420  54.0016340
  78.6085310  21.6040630  53.1929900  81.5157760  22.2727650  38.7114430
  80.9667860  22.7196950  39.3557170  82.1377020  21.7676900  39.2352100
  85.5692700  23.6269750  54.6436690  86.3102170  23.9645510  54.1404150
  84.8065380  23.7961810  54.0906460  73.4054490  18.6323020  55.4476220
  73.4459830  18.3336890  56.3561450  74.2599990  19.0330630  55.2883740
  77.1832880  21.2318570  40.6079730  77.6049300  21.0658440  41.4511120
  77.3083720  20.4218800  40.1134870  75.3460300  17.2115120  53.4150710
  74.8156760  16.7206070  52.7874050  76.0148370  17.6399320  52.8808640
  79.6960520  20.2556180  37.8556830  80.2166180  19.5405200  37.4897980
  80.3428920  20.8942050  38.1557340  84.2438360  21.6784580  53.1791900
  84.6579380  21.8329660  54.0282320  83.3089360  21.8039800  53.3417680
  84.7160530  19.0180740  55.1831050  85.2981300  18.2633060  55.0951530
  84.8922300  19.5488180  54.4062530  75.8332600  14.1777490  53.4948000
  75.7389470  13.5598240  52.7698870  75.2529990  14.9043780  53.2677910
  78.5994040  12.7350730  50.5275390  78.1511340  12.7574990  49.6820940
  77.9659240  12.3369750  51.1245690  79.0053590  21.6305060  51.1487830
  79.4241700  22.4737790  50.9764070  78.0862220  21.7677100  50.9194610
  81.3417490  19.3621240  52.5325670  81.4613700  18.7662380  53.2720510
  82.2011490  19.3990930  52.1126970  83.6805390  19.9158430  51.1088180
  83.1540610  20.4401050  50.5053320  84.0236730  20.5485820  51.7397910
  76.0791780  17.3051800  37.5537890  75.8780840  16.4419160  37.9151230
  75.9083830  17.2185160  36.6159490  76.8561010  27.9358070  52.2645560
  76.3182100  28.6604130  51.9454260  77.1094970  27.4588410  51.4742900
  78.1086260  15.9042590  53.7901490  78.6985950  15.5958440  54.4779310
  77.2906500  15.4322340  53.9461390  82.9279690  15.5208400  54.0234510
  82.2395210  14.8589940  53.9584500  83.6485710  15.0746670  54.4682970
  83.5580090  12.1160030  40.0824770  83.8382380  11.2727930  40.4384190
  82.7845820  12.3483140  40.5963520  74.8774580  14.4052420  37.5415770
  75.1800480  14.4119850  36.6334920  75.6169170  14.0550280  38.0383430
  78.0959510  13.3487040  38.5271970  77.7481510  12.6711030  37.9474420
  78.2972280  12.8876550  39.3415360  80.2608550  28.3367790  40.1458570
  81.1559340  28.6752760  40.1677330  80.2926180  27.6147200  39.5182850
  73.9004710  23.7094840  38.3745570  74.3379580  24.2524510  39.0303150
  74.3852440  22.8841790  38.3841910  71.1150510  26.4983870  45.8265830
  71.4453520  25.6304930  45.5944470  71.5441510  26.7042390  46.6570790
  75.7112430  24.8292880  43.4867800  75.4107970  24.7057850  44.3871710
  75.6049920  23.9701470  43.0783530  71.6040720  27.3654460  48.5647460
  71.1671710  27.5455260  49.3971610  72.1718400  28.1229080  48.4229180
  87.2402900  26.8671460  52.8524770  86.6404890  26.9264020  52.1088690
  87.3696800  25.9276440  52.9821620  88.4804350  24.6089280  38.1894480
  87.6497310  24.6765930  38.6601710  88.6576180  25.4993400  37.8861340
  87.9360810  21.3536760  40.6928680  88.6979720  21.9233410  40.7988370
  87.9515180  20.7863960  41.4636990  71.4365150  19.8774690  44.9236340
  70.7813990  19.6086330  44.2796040  72.2743100  19.7679170  44.4738320
  88.9420780  22.2086860  45.5370610  89.3129610  21.4254180  45.1306580
  89.5822710  22.8975960  45.3587910  85.9254540  23.5923440  50.9500930
  85.1114380  24.0220600  51.2126720  86.3328740  24.2041850  50.3369980
  87.9879980  21.6471130  37.8501200  88.2628820  22.5550010  37.7220420
  87.7990720  21.5833660  38.7863190  84.3855590  14.6715980  39.1454830
  84.8040470  14.4846960  38.3051490  84.0791650  13.8195030  39.4557760
  87.8845320  19.5840120  42.8430630  87.5088920  18.8168050  42.4111920
  87.1548440  19.9662820  43.3305560  72.4741080  20.2627260  49.4639680
  72.8414120  20.1754660  50.3435700  71.9051900  19.4993810  49.3646540
  87.2744940  18.7311640  52.4770150  87.0431030  18.5024390  51.5768100
  87.5349490  19.6511190  52.4315040  72.0257080  17.1736350  53.3698100
  71.1313130  17.1403110  53.7091810  72.5654630  17.3723140  54.1349350
  85.7133010  13.9568070  55.2549850  86.5903190  13.9651470  55.6383850
  85.7253850  13.2198910  54.6442200  70.6503230  17.0873620  40.8661670
  69.7467310  17.3503820  40.6913330  71.1343850  17.3584790  40.0861630
  87.1596280  17.8097610  46.1437870  87.6833760  17.3160260  45.5128040
  87.7455700  17.9447970  46.8885440  87.3386000  17.8937480  49.6657420
  86.3888710  17.8601020  49.7802410  87.5199010  18.8037590  49.4307190
  73.1930440  16.1439160  38.7756050  73.9022140  15.7222380  38.2903330
  72.4770380  16.2114390  38.1439400  72.8404600  12.1978490  37.8158700
  73.5632730  12.7387430  38.1339920  73.1129120  11.9241910  36.9400240
  86.6496250  17.0670960  42.0830280  87.1455370  16.8341830  42.8679160
  86.4512320  16.2282800  41.6667920  72.5296790  11.4484680  47.7181320
  73.1772980  10.8982060  47.2776480  72.9498630  11.7027830  48.5397130
  88.0783410  15.7031910  44.6167960  87.9682690  15.5487950  45.5550230
  88.8391000  15.1752850  44.3743370  86.4249130  11.6426040  51.0750960
  87.0621350  12.2560180  51.4410150  86.5724020  11.6786700  50.1300190
  88.9673680  13.5339830  37.8574100  89.8922990  13.4021010  37.6492390
  88.9449470  13.6132650  38.8110550  89.0412170  14.3050490  40.4830810
  88.2463670  14.2395610  41.0123720  89.2455450  15.2401130  40.4716160
  85.9830590  28.3442040  44.4769200  86.5789660  28.0226610  43.8003620
  86.2408740  27.8713860  45.2682470  72.2828790  11.6040350  50.4606640
  71.9343610  12.0604170  51.2264820  71.9516490  10.7097480  50.5429070
  73.8893160  24.7759950  54.6259830  73.8462790  24.4052860  55.5074290
  74.0204170  25.7137520  54.7661650  77.5899190  26.3319540  50.2269550
  77.3490550  26.5994100  49.3400070  78.5301830  26.5025270  50.2820410
  79.7953610  12.7952230  53.9826060  79.7342500  13.3874060  54.7321470
  80.7353990  12.6878190  53.8376320  82.4328170  12.4522290  53.6218350
  83.0468580  12.7701580  52.9599430  82.9777730  11.9670880  54.2414210
  88.8503350  28.3513920  51.0280190  88.3561630  28.7482790  50.3107320
  88.2416640  27.7263130  51.4217470  72.9549430  11.1316550  53.7357410
  73.5032420  10.9504600  52.9723520  73.0204740  10.3410660  54.2713720
  73.7281190  27.7222200  51.7457610  73.1341510  27.5906900  52.4847650
  73.7205030  26.8860340  51.2799710  83.1736210  11.0154430  49.9487640
  82.2996050  11.3489540  49.7460570  83.0646960  10.5427610  50.7739510
  84.0808190  13.2225300  51.3329360  83.7521550  12.4077060  50.9531090
  85.0290490  13.1795110  51.2095050  86.5342800  28.9937340  48.3066930
  86.0745770  29.7453150  47.9324950  85.9055260  28.2743810  48.2481730
  73.3593420  25.0880580  50.6965650  72.6327480  24.4685870  50.6291600
  73.4202570  25.4821190  49.8263730  76.9638520  27.3025580  47.4815060
  77.4803540  26.6912940  46.9563320  77.6135900  27.8054360  47.9726070
  79.7034020  28.1934070  48.3084040  79.9911830  27.9388370  47.4317050
  80.2157240  27.6411430  48.8989610  80.9211030  11.9324270  48.8880550
  80.1382820  12.4069770  49.1677310  80.6273960  11.0279100  48.7793730
  85.4732100  12.6347370  46.9329640  85.9140190  12.5792470  46.0851240
  85.2039690  13.5505380  47.0039820  87.3370670  12.2662610  44.9438460
  87.2759070  11.3223830  44.7969480  88.1162700  12.3742700  45.4891920
  72.2651440  12.2371750  41.4094270  73.0230800  12.3500630  40.8358300
  71.8028610  13.0740950  41.3637700  78.8065250  14.3511020  44.3996580
  77.9939760  13.9767910  44.0592460  79.3106890  13.5956100  44.7017770
  83.3090230  11.0153470  45.6379650  83.9119600  11.5873680  46.1128170
  82.5683220  11.5792910  45.4153550  86.4524830  11.4175030  40.9119930
  86.6475460  12.3158480  41.1787360  85.6654700  11.1862110  41.4052880
  73.2486120  27.0988200  41.3512550  72.7233740  27.4796230  40.6474510
  73.1730700  27.7238970  42.0722260  74.6376590  12.7635800  39.9496240
  75.1669350  11.9765600  39.8204190  75.2704910  13.4426990  40.1831770
  76.8314430  12.5010940  43.0041630  76.2017170  11.7998250  43.1711760
  76.2919570  13.2615070  42.7874790  88.0051440  28.6575740  42.6726490
  88.1803630  27.9713480  42.0287410  87.3073010  29.1822790  42.2803160
  76.9569990  11.7794920  55.4394120  76.6754260  12.2828520  54.6754940
  77.3389690  10.9816670  55.0736250  75.8479090  29.0470580  40.2261800
  76.5797910  28.7629860  39.6785690  76.1072760  28.8083860  41.1161180
  75.0093880  25.1635310  40.2308130  74.3802760  25.6320410  40.7793960
  75.1241710  24.3184530  40.6654320  83.5585450  11.1948500  56.0174590
  83.4450900  11.5143110  56.9126110  84.3755190  11.5961010  55.7211870
  86.3383940  28.3420030  55.4993280  87.1309260  27.8469260  55.2919240
  86.6317090  29.0210170  56.1068890  82.4643600  19.2140970  26.3809330
  82.3837650  18.2995580  26.1101040  82.0508020  19.7108040  25.6749040
  80.5961640  20.9919990  28.2618600  79.8203740  20.5120430  28.5517170
  81.2474570  20.3125640  28.0874760  74.6127470  21.3039800  29.1394360
  73.7812350  21.0488510  29.5390870  75.2208450  21.3750570  29.8752280
  84.6169070  25.3980180  27.0417730  84.1550600  24.6267420  27.3704900
  85.4294620  25.4246250  27.5470180  74.5928730  25.3379890  29.3352380
  74.8956770  24.4477630  29.1562600  75.3372320  25.8950110  29.1074630
  73.0219420  16.2641690  22.9236750  72.1336120  16.6057660  22.8216630
  73.3060610  16.0642010  22.0317580  70.9852430  18.8647340  28.8076450
  71.5568540  18.0969540  28.8080090  70.9853970  19.1636100  27.8983060
  80.8432380  27.6838190  26.6621720  80.2243820  28.1395690  26.0916160
  81.6984160  27.8389650  26.2611420  80.0370630  23.6677180  28.2688760
  79.9678910  22.7267120  28.1077890  80.7990490  23.7578590  28.8411330
  72.2277300  14.2731700  30.5945380  72.0480140  13.3757450  30.8748140
  71.8257380  14.8203570  31.2692330  81.0675800  16.4747560  28.4957690
  81.4440620  15.6019440  28.3831360  80.9695310  16.8106260  27.6048130
  75.1980810  14.8473190  23.9575130  75.3047560  15.7476920  24.2643890
  74.2873170  14.7991160  23.6669780  84.8499920  13.9698000  25.4286030
  85.6709540  13.4794570  25.4711510  84.8834000  14.5595660  26.1817870
  72.8463970  16.7692200  29.2027720  73.5274080  17.0330570  29.8215120
  72.5312020  15.9293070  29.5365730  77.0388540  17.8159560  28.2900310
  77.5466760  18.3140530  28.9305330  77.5701780  17.0394760  28.1139670
  89.1399470  15.9864750  31.9929660  88.4351640  16.3746460  31.4744770
  89.4057390  16.6815040  32.5950590  75.3224640  12.4558120  32.5563730
  75.3243080  12.9730510  31.7509630  74.4928950  11.9788300  32.5333660
  81.7095730  22.5677430  24.0553630  81.0913000  23.0326880  23.4916350
  82.2218980  23.2604910  24.4723140  76.5727490  22.0953300  30.7337230
  76.2396870  22.7222220  31.3758300  76.7494170  22.6215180  29.9538900
  85.0861400  15.9098380  28.2013570  84.3816970  16.1983270  28.7816680
  85.4473560  16.7198490  27.8413130  75.0039970  14.1668080  30.5634180
  75.3456780  15.0110130  30.2688050  74.0655780  14.3151820  30.6799520
  75.7846590  24.0634100  32.5486410  76.4020590  24.7385180  32.2670860
  74.9239710  24.4722080  32.4573910  71.0778930  23.2533960  21.4293260
  70.7006910  23.7421060  20.6978160  71.3352000  23.9259240  22.0599790
  86.7024180  25.5273510  30.4641050  86.0187700  26.1972620  30.4557720
  87.2418470  25.7254160  29.6985910  88.1548320  15.3553170  28.5922780
  87.2073230  15.3892150  28.7238210  88.4798310  16.1692120  28.9772140
  78.6867860  11.6550350  26.8878770  78.9942840  11.0997240  26.1714270
  77.7568560  11.7894810  26.7051760  84.2382920  27.3717640  29.1786230
  84.2510080  26.9679930  28.3108490  83.6858140  28.1464930  29.0747660
  85.5328340  24.0933860  24.2676400  85.4224670  23.1508190  24.3925820
  85.5296590  24.4549500  25.1539160  83.6368360  22.2747480  30.5068840
  84.0537150  22.0607590  29.6722300  84.3608180  22.5320270  31.0777460
  81.0748620  19.7199180  23.6238890  80.1477900  19.6536560  23.8527360
  81.2273440  20.6579310  23.5094130  81.0617700  15.9916180  20.6206050
  80.1221370  16.1530140  20.7058510  81.3800960  16.7101860  20.0742040
  87.5830460  20.6734700  30.5985080  86.7549090  20.7427790  30.1235210
  88.1780940  21.2589010  30.1300910  85.1045910  21.2819480  24.1274140
  84.4858330  20.9439030  23.4800440  85.0870360  20.6379240  24.8353330
  84.5472470  17.4604020  31.5439950  84.1343650  18.2857730  31.7979940
  83.8148420  16.8749060  31.3516310  76.6805260  20.2463920  26.4058620
  76.2762260  19.5341170  25.9104520  76.7668380  19.9017160  27.2946660
  77.1486960  23.9331480  28.5697830  76.8515250  23.3276950  27.8905610
  78.0986780  23.9708790  28.4587190  75.3933880  17.0207130  30.1857660
  75.9448470  17.1302470  29.4110910  75.9077390  17.3944730  30.9012890
  85.2372570  27.5063350  32.2320930  84.7603130  28.3135540  32.0393540
  84.5534360  26.8541680  32.3847140  76.2405390  23.6713170  35.2205630
  75.3433920  23.8953140  35.4679030  76.2658260  23.7948110  34.2717030
  83.2810610  20.5206290  21.1346890  83.7203890  19.6828720  20.9884710
  83.9939030  21.1535690  21.2211030  75.0676610  20.5426490  33.7963000
  74.9284380  21.4149290  34.1650400  74.1857970  20.1999300  33.6510940
  81.3905990  25.4602360  25.1028130  81.8301900  26.2026690  24.6883520
  81.3292880  25.7028930  26.0267090  76.8656960  26.4848190  36.0048150
  76.8372390  26.8891140  35.1376580  76.7021930  25.5558550  35.8419750
  86.8627750  11.7749100  19.4487930  86.5500410  11.8675930  20.3487000
  87.6240220  12.3530130  19.3985360  73.3809890  19.1408900  23.9065270
  73.2607490  19.8670990  23.2946540  73.0710780  18.3711810  23.4293180
  88.8171780  27.2675290  37.3012320  89.2931500  27.7458180  37.9801400
  89.4378940  27.1992780  36.5757820  71.0195260  22.3124040  29.7133910
  71.0975680  22.4472810  28.7689630  71.6336940  21.6039930  29.9062030
  72.2642890  24.0124230  26.1240090  71.8570970  24.1538820  25.2693690
  73.1555900  23.7284390  25.9211300  88.2205030  24.4588140  34.4612330
  88.3468090  24.2200020  33.5429510  88.2626410  23.6272680  34.9334410
  82.0821770  28.1616140  33.0307140  82.5966440  28.0724150  33.8329570
  81.2390850  28.5075840  33.3235050  84.0576170  28.4471480  22.4591140
  83.8977310  28.1574420  23.3572970  83.8922880  27.6711610  21.9236370
  76.5364550  28.2270010  24.2362760  76.3607030  27.3105550  24.0230560
  75.6820290  28.5857300  24.4760560  83.7602300  25.9559040  21.0189140
  83.0667460  25.9536330  20.3591420  84.5025160  25.5318360  20.5883310
  83.3252230  27.5821750  25.0937630  83.7809180  26.8011130  25.4076250
  83.6644750  28.2928570  25.6378810  88.0729040  16.5120600  35.4262070
  87.4573310  17.0200270  34.8977530  87.7525460  15.6118930  35.3688010
  71.0754780  23.3538210  32.2528370  71.2385820  22.8843570  31.4347740
  71.5407230  22.8461770  32.9177210  75.8473550  12.4843970  27.2888940
  75.4041700  13.2653510  26.9573460  76.4058540  12.8073860  27.9959880
  80.1343360  15.3512490  32.8924260  79.6722730  15.5595510  33.7044200
  79.7321470  14.5371840  32.5894930  85.1347870  16.5721440  34.0220920
  84.2841460  16.2727190  34.3429990  84.9749660  16.8163450  33.1104740
  82.2297580  18.0723190  36.1219710  82.5550990  17.2386940  35.7821940
  83.0177910  18.5951710  36.2698040  78.9632370  12.1054670  22.1694770
  78.3386550  12.1014540  22.8948080  78.8762490  11.2385630  21.7730740
  77.8849450  13.0291300  29.1478540  78.1821780  13.9354130  29.0670560
  78.4335010  12.5410080  28.5338110  75.6387770  17.6077540  25.0170190
  75.4128690  17.3914710  25.9216810  74.8580300  18.0406000  24.6716160
  82.8685530  17.6140910  23.6160840  82.2694420  18.3376710  23.4324460
  83.4165140  17.5517690  22.8337290  78.0786980  18.5063120  35.6830460
  77.9830580  17.5657850  35.5330860  78.9218960  18.7278190  35.2878530
  81.4750400  16.2504450  25.6464120  81.8679970  16.5676650  24.8332810
  81.8367250  15.3716330  25.7608640  73.2097520  14.9176790  33.8364240
  72.8160910  15.7652000  34.0437020  72.5215920  14.2803160  34.0272880
  79.7842570  15.0011760  36.9060980  79.0940890  14.8083960  37.5407070
  80.5274870  15.2846400  37.4385280  70.5114570  12.8405250  27.8694320
  70.2227620  13.4108110  28.5819300  71.2560330  12.3609700  28.2325550
  70.6984800  16.7825370  19.0797040  70.6159470  17.7256130  19.2212030
  70.3467860  16.6400280  18.2009390  82.0605540  18.8410200  29.7414900
  81.3286660  19.3497010  30.0905000  81.6629880  18.0240180  29.4403680
  78.4982930  15.5164400  28.1467390  78.5018990  15.0754350  27.2971930
  79.3934050  15.8381730  28.2539210  74.3485310  15.3990890  27.1061600
  74.0085360  15.8766120  27.8628650  73.5862630  14.9456010  26.7462700
  78.5603080  16.5176480  21.1374150  78.6815900  16.4762960  22.0859970
  78.1751590  17.3800630  20.9820880  82.5231450  14.2943880  29.1537840
  82.5404190  14.7452530  29.9979690  82.2747030  13.3949520  29.3671280
  77.5724580  18.8277620  20.5357450  77.0041480  18.3795870  19.9093360
  78.2813580  19.1870400  20.0022600  85.9502200  11.7076060  34.9924220
  86.2747970  10.9765720  35.5182200  85.9858710  11.3889700  34.0905210
  72.6493760  22.7289640  34.4124180  72.2648550  22.0883310  35.0107140
  72.9605950  23.4325760  34.9818910  78.7990900  19.5766180  29.8932800
  79.1661030  19.1024750  30.6394140  78.6095960  20.4507750  30.2341140
  71.6631390  14.3209870  26.0226270  71.3778310  13.9565540  26.8604890
  71.6010250  13.5890330  25.4089410  76.5890270  18.6174820  32.2117010
  76.2847340  19.4966800  32.4367370  77.5436730  18.6774610  32.2474450
  75.1172060  22.8235810  22.8083860  74.3434320  22.2833430  22.6482580
  75.8466690  22.3042420  22.4701620  85.8760040  21.8201170  28.6010250
  86.5959160  22.3156460  28.2106360  85.6741860  21.1419060  27.9564120
  81.3369980  13.2139130  22.7439640  80.5234590  12.7152300  22.6684950
  81.1431930  14.0537380  22.3275990  81.2578840  21.8910230  34.4879250
  81.1916150  20.9705900  34.2336840  80.6283980  21.9885670  35.2023890
  84.0518370  17.5858780  21.0401800  84.9397990  17.8976010  20.8653140
  84.0223460  16.7131030  20.6482380  75.1609460  22.4916190  26.4462670
  75.6788130  21.6884450  26.3919560  74.7093480  22.4295330  27.2879500
  80.0478960  23.7582470  21.7189970  80.3894660  24.5024700  21.2233290
  79.2191670  24.0713590  22.0814800  72.6454000  19.4577560  33.3588370
  72.2868940  20.1231410  33.9461710  72.3508560  18.6261110  33.7300990
  75.8467120  19.9161800  36.2427920  75.5467260  20.0618980  35.3455740
  76.6178360  19.3567090  36.1501310  81.1895570  24.7130800  34.2383050
  81.2040110  23.7811760  34.0201960  80.4820670  24.7990560  34.8772820
  86.3232640  18.8970620  20.5081660  86.2396360  19.3284840  19.6578100
  87.0426830  19.3568970  20.9408480  87.4006780  21.3538140  33.5851630
  86.6754970  21.9466920  33.3881020  87.9282240  21.3461680  32.7865000
  87.3519890  25.7512880  23.2363790  86.7096050  25.0968500  23.5107510
  86.9650550  26.1567970  22.4604460  82.9306370  23.0798310  27.0835480
  83.2830190  22.4826440  26.4236850  82.0468700  22.7542540  27.2543730
  79.0169650  23.8396000  24.4905890  79.7040780  24.3865210  24.8713480
  78.2302070  24.3836730  24.5255500  71.1562050  19.4568820  19.9822970
  72.0256900  19.7393620  20.2658890  70.6652370  20.2704690  19.8671780
  78.3196860  20.8442030  24.1031250  78.7759640  21.6547280  24.3291440
  77.9685070  20.5265170  24.9349740  80.6229470  26.3548370  31.3323550
  81.2671690  26.5607750  32.0096970  80.9858910  25.5936770  30.8794400
  74.2208640  11.1879680  24.5753770  74.0923270  11.1797580  25.5238690
  73.3970660  11.5262770  24.2244780  81.8961550  24.3580720  30.0501000
  82.5383780  23.6573880  30.1633170  82.4210900  25.1379160  29.8697890
  85.7417270  24.6429340  19.7740140  85.5154850  23.9259780  20.3664780
  85.3513470  24.3941780  18.9361890  83.6699170  25.1575620  33.2537060
  84.0055410  25.7442310  33.9314980  82.7499510  25.0268330  33.4834850
  71.5233300  28.6696200  20.5484600  71.8830940  29.2685540  19.8941870
  71.3825640  29.2156090  21.3219630  71.2202570  12.9470800  34.0360470
  70.5061090  13.1467720  34.6413080  71.6397610  12.1710370  34.4075270
  85.3233520  22.5601280  21.4354300  85.0355220  23.0213970  22.2232180
  86.1185690  22.0999050  21.7038520  71.5075160  26.9351060  35.0227000
  71.6166280  25.9945800  34.8822390  70.8555720  27.2005810  34.3740730
  79.4987750  25.2066950  36.4225120  79.1784620  24.4876190  36.9670810
  78.8246110  25.8822020  36.4961180  77.5401920  26.0527400  21.3658270
  77.5312020  26.7857090  20.7502780  76.6200280  25.8058980  21.4585230
  73.1408560  21.2742290  22.1105030  72.5336510  22.0141190  22.1200330
  73.6157910  21.3641650  21.2843230  82.7141350  15.4393110  31.7861920
  83.0822170  14.6188320  32.1141490  81.8539550  15.4995000  32.2017570
  86.0803380  14.3950050  22.5949480  85.4516540  14.4995720  21.8807710
  85.5855300  14.6146830  23.3843360  80.5261520  26.1155640  20.0283460
  80.6273500  25.9119630  19.0985440  79.6263260  25.8613920  20.2331240
  78.0487410  16.6736000  24.0107360  77.3403560  17.1422340  24.4520970
  78.3331890  16.0158010  24.6452550  79.6743340  18.0932700  32.0099890
  80.1728590  18.5678520  32.6751740  79.8166290  17.1696220  32.2169920
  82.0802840  13.3986660  25.4503150  81.9570620  13.4172790  24.5012660
  83.0287400  13.4465600  25.5701550  79.1679630  28.6341960  24.7231130
  79.4221130  28.5963350  23.8010500  78.2192110  28.5075290  24.7159380
  76.2522430  14.9821080  21.3858070  77.1012960  15.4191230  21.3198260
  75.8853700  15.2941340  22.2130130  86.8810200  14.3100660  32.8528280
  86.3783800  15.0506060  33.1922090  87.6966860  14.6984660  32.5365070
  85.1732210  19.5533840  26.2989640  84.2322350  19.5684070  26.4737330
  85.4876280  18.7669800  26.7449940  75.1513850  21.2353440  19.8593600
  75.9177120  21.1234800  20.4219030  75.2288540  20.5391410  19.2070370
  73.8460610  18.6678510  20.5426490  73.9264200  17.7206020  20.6543890
  74.7380360  18.9985390  20.6487150  87.1757790  26.7242690  27.9743900
  87.3005210  27.5473860  28.4467710  88.0423350  26.5133420  27.6268050
  74.6475320  28.8173900  27.6461030  75.3837800  28.2689360  27.9169600
  75.0316240  29.6829910  27.5067020  71.5320800  24.8847470  23.5202540
  70.6060580  25.1268610  23.5107950  71.9977230  25.7121730  23.3987290
  73.6533600  28.0019970  36.8346610  74.4546330  28.3232020  37.2482010
  73.1385420  27.6415550  37.5566520  77.7577630  27.9904210  19.4686600
  78.5506240  28.2793040  19.0168390  77.2381980  27.5596380  18.7899080
  82.4898230  24.1099840  36.7822020  81.8836390  24.1331440  36.0417770
  82.1852340  23.3782880  37.3189270  83.9198600  27.8380130  35.3931430
  84.8720350  27.7538150  35.3431670  83.7726820  28.5021840  36.0665220
  86.8107800  27.2174340  20.8923340  86.5249310  26.8039480  20.0777520
  86.6127350  28.1462050  20.7723860  71.3731410  20.4893430  35.7782660
  71.8770430  19.9100710  36.3498890  70.6338830  20.7733660  36.3159030
  78.2755030  23.2107620  19.3328950  78.1705670  22.5959970  20.0590330
  78.1079250  22.6873510  18.5491960  78.4269350  21.8964420  35.3118180
  77.6615020  22.4649420  35.2272850  78.6085310  21.6040630  34.4186410
  81.5157760  22.2727650  19.9370940  80.9667860  22.7196950  20.5813680
  82.1377020  21.7676900  20.4608610  85.5692700  23.6269750  35.8693200
  86.3102170  23.9645510  35.3660660  84.8065380  23.7961810  35.3162970
  73.4054490  18.6323020  36.6732730  73.4459830  18.3336890  37.5817960
  74.2599990  19.0330630  36.5140250  77.1832880  21.2318570  21.8336240
  77.6049300  21.0658440  22.6767630  77.3083720  20.4218800  21.3391380
  75.3460300  17.2115120  34.6407220  74.8156760  16.7206070  34.0130560
  76.0148370  17.6399320  34.1065150  79.6960520  20.2556180  19.0813340
  80.2166180  19.5405200  18.7154490  80.3428920  20.8942050  19.3813850
  84.2438360  21.6784580  34.4048410  84.6579380  21.8329660  35.2538830
  83.3089360  21.8039800  34.5674190  84.7160530  19.0180740  36.4087560
  85.2981300  18.2633060  36.3208040  84.8922300  19.5488180  35.6319040
  75.8332600  14.1777490  34.7204510  75.7389470  13.5598240  33.9955380
  75.2529990  14.9043780  34.4934420  78.5994040  12.7350730  31.7531900
  78.1511340  12.7574990  30.9077450  77.9659240  12.3369750  32.3502200
  79.0053590  21.6305060  32.3744340  79.4241700  22.4737790  32.2020580
  78.0862220  21.7677100  32.1451120  81.3417490  19.3621240  33.7582180
  81.4613700  18.7662380  34.4977020  82.2011490  19.3990930  33.3383480
  83.6805390  19.9158430  32.3344690  83.1540610  20.4401050  31.7309830
  84.0236730  20.5485820  32.9654420  76.0791780  17.3051800  18.7794400
  75.8780840  16.4419160  19.1407740  75.9083830  17.2185160  17.8416000
  76.8561010  27.9358070  33.4902070  76.3182100  28.6604130  33.1710770
  77.1094970  27.4588410  32.6999410  78.1086260  15.9042590  35.0158000
  78.6985950  15.5958440  35.7035820  77.2906500  15.4322340  35.1717900
  82.9279690  15.5208400  35.2491020  82.2395210  14.8589940  35.1841010
  83.6485710  15.0746670  35.6939480  83.5580090  12.1160030  21.3081280
  83.8382380  11.2727930  21.6640700  82.7845820  12.3483140  21.8220030
  74.8774580  14.4052420  18.7672280  75.1800480  14.4119850  17.8591430
  75.6169170  14.0550280  19.2639940  79.7123220  29.1709280  33.7488720
  79.6381920  30.0744420  34.0561090  78.8102060  28.8521180  33.7210790
  78.0959510  13.3487040  19.7528480  77.7481510  12.6711030  19.1730930
  78.2972280  12.8876550  20.5671870  80.2608550  28.3367790  21.3715080
  81.1559340  28.6752760  21.3933840  80.2926180  27.6147200  20.7439360
  73.9004710  23.7094840  19.6002080  74.3379580  24.2524510  20.2559660
  74.3852440  22.8841790  19.6098420  71.1150510  26.4983870  27.0522340
  71.4453520  25.6304930  26.8200980  71.5441510  26.7042390  27.8827300
  75.7112430  24.8292880  24.7124310  75.4107970  24.7057850  25.6128220
  75.6049920  23.9701470  24.3040040  71.6040720  27.3654460  29.7903970
  71.1671710  27.5455260  30.6228120  72.1718400  28.1229080  29.6485690
  87.2402900  26.8671460  34.0781280  86.6404890  26.9264020  33.3345200
  87.3696800  25.9276440  34.2078130  88.4804350  24.6089280  19.4150990
  87.6497310  24.6765930  19.8858220  88.6576180  25.4993400  19.1117850
  87.9360810  21.3536760  21.9185190  88.6979720  21.9233410  22.0244880
  87.9515180  20.7863960  22.6893500  71.4365150  19.8774690  26.1492850
  70.7813990  19.6086330  25.5052550  72.2743100  19.7679170  25.6994830
  88.9420780  22.2086860  26.7627120  89.3129610  21.4254180  26.3563090
  89.5822710  22.8975960  26.5844420  85.9254540  23.5923440  32.1757440
  85.1114380  24.0220600  32.4383230  86.3328740  24.2041850  31.5626490
  87.9879980  21.6471130  19.0757710  88.2628820  22.5550010  18.9476930
  87.7990720  21.5833660  20.0119700  84.3855590  14.6715980  20.3711340
  84.8040470  14.4846960  19.5308000  84.0791650  13.8195030  20.6814270
  87.8845320  19.5840120  24.0687140  87.5088920  18.8168050  23.6368430
  87.1548440  19.9662820  24.5562070  72.4741080  20.2627260  30.6896190
  72.8414120  20.1754660  31.5692210  71.9051900  19.4993810  30.5903050
  87.2744940  18.7311640  33.7026660  87.0431030  18.5024390  32.8024610
  87.5349490  19.6511190  33.6571550  72.0257080  17.1736350  34.5954610
  71.1313130  17.1403110  34.9348320  72.5654630  17.3723140  35.3605860
  85.7133010  13.9568070  36.4806360  86.5903190  13.9651470  36.8640360
  85.7253850  13.2198910  35.8698710  70.6503230  17.0873620  22.0918180
  69.7467310  17.3503820  21.9169840  71.1343850  17.3584790  21.3118140
  87.1596280  17.8097610  27.3694380  87.6833760  17.3160260  26.7384550
  87.7455700  17.9447970  28.1141950  87.3386000  17.8937480  30.8913930
  86.3888710  17.8601020  31.0058920  87.5199010  18.8037590  30.6563700
  73.1930440  16.1439160  20.0012560  73.9022140  15.7222380  19.5159840
  72.4770380  16.2114390  19.3695910  72.8404600  12.1978490  19.0415210
  73.5632730  12.7387430  19.3596430  73.1129120  11.9241910  18.1656750
  86.6496250  17.0670960  23.3086790  87.1455370  16.8341830  24.0935670
  86.4512320  16.2282800  22.8924430  72.5296790  11.4484680  28.9437830
  73.1772980  10.8982060  28.5032990  72.9498630  11.7027830  29.7653640
  88.0783410  15.7031910  25.8424470  87.9682690  15.5487950  26.7806740
  88.8391000  15.1752850  25.5999880  86.4249130  11.6426040  32.3007470
  87.0621350  12.2560180  32.6666660  86.5724020  11.6786700  31.3556700
  88.9673680  13.5339830  19.0830610  89.8922990  13.4021010  18.8748900
  88.9449470  13.6132650  20.0367060  89.0412170  14.3050490  21.7087320
  88.2463670  14.2395610  22.2380230  89.2455450  15.2401130  21.6972670
  85.9830590  28.3442040  25.7025710  86.5789660  28.0226610  25.0260130
  86.2408740  27.8713860  26.4938980  72.2828790  11.6040350  31.6863150
  71.9343610  12.0604170  32.4521330  71.9516490  10.7097480  31.7685580
  73.8893160  24.7759950  35.8516340  73.8462790  24.4052860  36.7330800
  74.0204170  25.7137520  35.9918160  77.5899190  26.3319540  31.4526060
  77.3490550  26.5994100  30.5656580  78.5301830  26.5025270  31.5076920
  79.7953610  12.7952230  35.2082570  79.7342500  13.3874060  35.9577980
  80.7353990  12.6878190  35.0632830  82.4328170  12.4522290  34.8474860
  83.0468580  12.7701580  34.1855940  82.9777730  11.9670880  35.4670720
  88.8503350  28.3513920  32.2536700  88.3561630  28.7482790  31.5363830
  88.2416640  27.7263130  32.6473980  72.9549430  11.1316550  34.9613920
  73.5032420  10.9504600  34.1980030  73.0204740  10.3410660  35.4970230
  73.7281190  27.7222200  32.9714120  73.1341510  27.5906900  33.7104160
  73.7205030  26.8860340  32.5056220  83.1736210  11.0154430  31.1744150
  82.2996050  11.3489540  30.9717080  83.0646960  10.5427610  31.9996020
  84.0808190  13.2225300  32.5585870  83.7521550  12.4077060  32.1787600
  85.0290490  13.1795110  32.4351560  86.5342800  28.9937340  29.5323440
  86.0745770  29.7453150  29.1581460  85.9055260  28.2743810  29.4738240
  73.3593420  25.0880580  31.9222160  72.6327480  24.4685870  31.8548110
  73.4202570  25.4821190  31.0520240  76.9638520  27.3025580  28.7071570
  77.4803540  26.6912940  28.1819830  77.6135900  27.8054360  29.1982580
  79.7034020  28.1934070  29.5340550  79.9911830  27.9388370  28.6573560
  80.2157240  27.6411430  30.1246120  80.9211030  11.9324270  30.1137060
  80.1382820  12.4069770  30.3933820  80.6273960  11.0279100  30.0050240
  85.4732100  12.6347370  28.1586150  85.9140190  12.5792470  27.3107750
  85.2039690  13.5505380  28.2296330  87.3370670  12.2662610  26.1694970
  87.2759070  11.3223830  26.0225990  88.1162700  12.3742700  26.7148430
  71.6423420  28.4054970  25.1318920  71.4745460  27.7725650  25.8300810
  70.7757930  28.6114370  24.7813110  72.2651440  12.2371750  22.6350780
  73.0230800  12.3500630  22.0614810  71.8028610  13.0740950  22.5894210
  78.8065250  14.3511020  25.6253090  77.9939760  13.9767910  25.2848970
  79.3106890  13.5956100  25.9274280  83.3090230  11.0153470  26.8636160
  83.9119600  11.5873680  27.3384680  82.5683220  11.5792910  26.6410060
  86.4524830  11.4175030  22.1376440  86.6475460  12.3158480  22.4043870
  85.6654700  11.1862110  22.6309390  73.2486120  27.0988200  22.5769060
  72.7233740  27.4796230  21.8731020  73.1730700  27.7238970  23.2978770
  74.6376590  12.7635800  21.1752750  75.1669350  11.9765600  21.0460700
  75.2704910  13.4426990  21.4088280  76.8314430  12.5010940  24.2298140
  76.2017170  11.7998250  24.3968270  76.2919570  13.2615070  24.0131300
  79.7706380  29.1150170  36.9008750  80.6973690  28.8794440  36.9444710
  79.7556810  29.9422170  36.4194780  88.0051440  28.6575740  23.8983000
  88.1803630  27.9713480  23.2543920  87.3073010  29.1822790  23.5059670
  76.9569990  11.7794920  36.6650630  76.6754260  12.2828520  35.9011450
  77.3389690  10.9816670  36.2992760  75.8479090  29.0470580  21.4518310
  76.5797910  28.7629860  20.9042200  76.1072760  28.8083860  22.3417690
  75.0093880  25.1635310  21.4564640  74.3802760  25.6320410  22.0050470
  75.1241710  24.3184530  21.8910830  83.5585450  11.1948500  37.2431100
  83.4450900  11.5143110  38.1382620  84.3755190  11.5961010  36.9468380
  86.3383940  28.3420030  36.7249790  87.1309260  27.8469260  36.5175750
  86.6317090  29.0210170  37.3325400  82.4643600  19.2140970   7.6065840
  82.3837650  18.2995580   7.3357550  82.0508020  19.7108040   6.9005550
  80.5961640  20.9919990   9.4875110  79.8203740  20.5120430   9.7773680
  81.2474570  20.3125640   9.3131270  74.6127470  21.3039800  10.3650870
  73.7812350  21.0488510  10.7647380  75.2208450  21.3750570  11.1008790
  84.6169070  25.3980180   8.2674240  84.1550600  24.6267420   8.5961410
  85.4294620  25.4246250   8.7726690  74.5928730  25.3379890  10.5608890
  74.8956770  24.4477630  10.3819110  75.3372320  25.8950110  10.3331140
  73.0219420  16.2641690   4.1493260  72.1336120  16.6057660   4.0473140
  73.3060610  16.0642010   3.2574090  70.9852430  18.8647340  10.0332960
  71.5568540  18.0969540  10.0336600  70.9853970  19.1636100   9.1239570
  80.8432380  27.6838190   7.8878230  80.2243820  28.1395690   7.3172670
  81.6984160  27.8389650   7.4867930  80.0370630  23.6677180   9.4945270
  79.9678910  22.7267120   9.3334400  80.7990490  23.7578590  10.0667840
  72.2277300  14.2731700  11.8201890  72.0480140  13.3757450  12.1004650
  71.8257380  14.8203570  12.4948840  81.0675800  16.4747560   9.7214200
  81.4440620  15.6019440   9.6087870  80.9695310  16.8106260   8.8304640
  75.1980810  14.8473190   5.1831640  75.3047560  15.7476920   5.4900400
  74.2873170  14.7991160   4.8926290  84.8499920  13.9698000   6.6542540
  85.6709540  13.4794570   6.6968020  84.8834000  14.5595660   7.4074380
  72.8463970  16.7692200  10.4284230  73.5274080  17.0330570  11.0471630
  72.5312020  15.9293070  10.7622240  77.0388540  17.8159560   9.5156820
  77.5466760  18.3140530  10.1561840  77.5701780  17.0394760   9.3396180
  89.1399470  15.9864750  13.2186170  88.4351640  16.3746460  12.7001280
  89.4057390  16.6815040  13.8207100  75.3224640  12.4558120  13.7820240
  75.3243080  12.9730510  12.9766140  74.4928950  11.9788300  13.7590170
  81.7095730  22.5677430   5.2810140  81.0913000  23.0326880   4.7172860
  82.2218980  23.2604910   5.6979650  76.5727490  22.0953300  11.9593740
  76.2396870  22.7222220  12.6014810  76.7494170  22.6215180  11.1795410
  85.0861400  15.9098380   9.4270080  84.3816970  16.1983270  10.0073190
  85.4473560  16.7198490   9.0669640  75.0039970  14.1668080  11.7890690
  75.3456780  15.0110130  11.4944560  74.0655780  14.3151820  11.9056030
  75.7846590  24.0634100  13.7742920  76.4020590  24.7385180  13.4927370
  74.9239710  24.4722080  13.6830420  71.0778930  23.2533960   2.6549770
  70.7006910  23.7421060   1.9234670  71.3352000  23.9259240   3.2856300
  86.7024180  25.5273510  11.6897560  86.0187700  26.1972620  11.6814230
  87.2418470  25.7254160  10.9242420  88.1548320  15.3553170   9.8179290
  87.2073230  15.3892150   9.9494720  88.4798310  16.1692120  10.2028650
  78.6867860  11.6550350   8.1135280  78.9942840  11.0997240   7.3970780
  77.7568560  11.7894810   7.9308270  84.2382920  27.3717640  10.4042740
  84.2510080  26.9679930   9.5365000  83.6858140  28.1464930  10.3004170
  85.5328340  24.0933860   5.4932910  85.4224670  23.1508190   5.6182330
  85.5296590  24.4549500   6.3795670  83.6368360  22.2747480  11.7325350
  84.0537150  22.0607590  10.8978810  84.3608180  22.5320270  12.3033970
  81.0748620  19.7199180   4.8495400  80.1477900  19.6536560   5.0783870
  81.2273440  20.6579310   4.7350640  81.0617700  15.9916180   1.8462560
  80.1221370  16.1530140   1.9315020  81.3800960  16.7101860   1.2998550
  87.5830460  20.6734700  11.8241590  86.7549090  20.7427790  11.3491720
  88.1780940  21.2589010  11.3557420  85.1045910  21.2819480   5.3530650
  84.4858330  20.9439030   4.7056950  85.0870360  20.6379240   6.0609840
  84.5472470  17.4604020  12.7696460  84.1343650  18.2857730  13.0236450
  83.8148420  16.8749060  12.5772820  76.6805260  20.2463920   7.6315130
  76.2762260  19.5341170   7.1361030  76.7668380  19.9017160   8.5203170
  77.1486960  23.9331480   9.7954340  76.8515250  23.3276950   9.1162120
  78.0986780  23.9708790   9.6843700  75.3933880  17.0207130  11.4114170
  75.9448470  17.1302470  10.6367420  75.9077390  17.3944730  12.1269400
  85.2372570  27.5063350  13.4577440  84.7603130  28.3135540  13.2650050
  84.5534360  26.8541680  13.6103650  76.2405390  23.6713170  16.4462140
  75.3433920  23.8953140  16.6935540  76.2658260  23.7948110  15.4973540
  83.2810610  20.5206290   2.3603400  83.7203890  19.6828720   2.2141220
  83.9939030  21.1535690   2.4467540  75.0676610  20.5426490  15.0219510
  74.9284380  21.4149290  15.3906910  74.1857970  20.1999300  14.8767450
  81.3905990  25.4602360   6.3284640  81.8301900  26.2026690   5.9140030
  81.3292880  25.7028930   7.2523600  76.8656960  26.4848190  17.2304660
  76.8372390  26.8891140  16.3633090  76.7021930  25.5558550  17.0676260
  73.3809890  19.1408900   5.1321780  73.2607490  19.8670990   4.5203050
  73.0710780  18.3711810   4.6549690  88.8171780  27.2675290  18.5268830
  89.2931500  27.7458180  19.2057910  89.4378940  27.1992780  17.8014330
  71.0195260  22.3124040  10.9390420  71.0975680  22.4472810   9.9946140
  71.6336940  21.6039930  11.1318540  72.2642890  24.0124230   7.3496600
  71.8570970  24.1538820   6.4950200  73.1555900  23.7284390   7.1467810
  88.2205030  24.4588140  15.6868840  88.3468090  24.2200020  14.7686020
  88.2626410  23.6272680  16.1590920  82.0821770  28.1616140  14.2563650
  82.5966440  28.0724150  15.0586080  81.2390850  28.5075840  14.5491560
  84.0576170  28.4471480   3.6847650  83.8977310  28.1574420   4.5829480
  83.8922880  27.6711610   3.1492880  76.5364550  28.2270010   5.4619270
  76.3607030  27.3105550   5.2487070  75.6820290  28.5857300   5.7017070
  83.7602300  25.9559040   2.2445650  83.0667460  25.9536330   1.5847930
  84.5025160  25.5318360   1.8139820  83.3252230  27.5821750   6.3194140
  83.7809180  26.8011130   6.6332760  83.6644750  28.2928570   6.8635320
  88.0729040  16.5120600  16.6518580  87.4573310  17.0200270  16.1234040
  87.7525460  15.6118930  16.5944520  71.0754780  23.3538210  13.4784880
  71.2385820  22.8843570  12.6604250  71.5407230  22.8461770  14.1433720
  75.8473550  12.4843970   8.5145450  75.4041700  13.2653510   8.1829970
  76.4058540  12.8073860   9.2216390  80.1343360  15.3512490  14.1180770
  79.6722730  15.5595510  14.9300710  79.7321470  14.5371840  13.8151440
  85.1347870  16.5721440  15.2477430  84.2841460  16.2727190  15.5686500
  84.9749660  16.8163450  14.3361250  82.2297580  18.0723190  17.3476220
  82.5550990  17.2386940  17.0078450  83.0177910  18.5951710  17.4954550
  78.9632370  12.1054670   3.3951280  78.3386550  12.1014540   4.1204590
  78.8762490  11.2385630   2.9987250  77.8849450  13.0291300  10.3735050
  78.1821780  13.9354130  10.2927070  78.4335010  12.5410080   9.7594620
  75.6387770  17.6077540   6.2426700  75.4128690  17.3914710   7.1473320
  74.8580300  18.0406000   5.8972670  82.8685530  17.6140910   4.8417350
  82.2694420  18.3376710   4.6580970  83.4165140  17.5517690   4.0593800
  78.0786980  18.5063120  16.9086970  77.9830580  17.5657850  16.7587370
  78.9218960  18.7278190  16.5135040  81.4750400  16.2504450   6.8720630
  81.8679970  16.5676650   6.0589320  81.8367250  15.3716330   6.9865150
  73.2097520  14.9176790  15.0620750  72.8160910  15.7652000  15.2693530
  72.5215920  14.2803160  15.2529390  79.7842570  15.0011760  18.1317490
  79.0940890  14.8083960  18.7663580  80.5274870  15.2846400  18.6641790
  70.5114570  12.8405250   9.0950830  70.2227620  13.4108110   9.8075810
  71.2560330  12.3609700   9.4582060  82.0605540  18.8410200  10.9671410
  81.3286660  19.3497010  11.3161510  81.6629880  18.0240180  10.6660190
  78.4982930  15.5164400   9.3723900  78.5018990  15.0754350   8.5228440
  79.3934050  15.8381730   9.4795720  74.3485310  15.3990890   8.3318110
  74.0085360  15.8766120   9.0885160  73.5862630  14.9456010   7.9719210
  78.5603080  16.5176480   2.3630660  78.6815900  16.4762960   3.3116480
  78.1751590  17.3800630   2.2077390  82.5231450  14.2943880  10.3794350
  82.5404190  14.7452530  11.2236200  82.2747030  13.3949520  10.5927790
  85.9502200  11.7076060  16.2180730  86.2747970  10.9765720  16.7438710
  85.9858710  11.3889700  15.3161720  72.6493760  22.7289640  15.6380690
  72.2648550  22.0883310  16.2363650  72.9605950  23.4325760  16.2075420
  78.7990900  19.5766180  11.1189310  79.1661030  19.1024750  11.8650650
  78.6095960  20.4507750  11.4597650  71.6631390  14.3209870   7.2482780
  71.3778310  13.9565540   8.0861400  71.6010250  13.5890330   6.6345920
  76.5890270  18.6174820  13.4373520  76.2847340  19.4966800  13.6623880
  77.5436730  18.6774610  13.4730960  75.1172060  22.8235810   4.0340370
  74.3434320  22.2833430   3.8739090  75.8466690  22.3042420   3.6958130
  85.8760040  21.8201170   9.8266760  86.5959160  22.3156460   9.4362870
  85.6741860  21.1419060   9.1820630  81.3369980  13.2139130   3.9696150
  80.5234590  12.7152300   3.8941460  81.1431930  14.0537380   3.5532500
  81.2578840  21.8910230  15.7135760  81.1916150  20.9705900  15.4593350
  80.6283980  21.9885670  16.4280400  84.0518370  17.5858780   2.2658310
  84.9397990  17.8976010   2.0909650  84.0223460  16.7131030   1.8738890
  75.1609460  22.4916190   7.6719180  75.6788130  21.6884450   7.6176070
  74.7093480  22.4295330   8.5136010  80.0478960  23.7582470   2.9446480
  80.3894660  24.5024700   2.4489800  79.2191670  24.0713590   3.3071310
  72.6454000  19.4577560  14.5844880  72.2868940  20.1231410  15.1718220
  72.3508560  18.6261110  14.9557500  75.8467120  19.9161800  17.4684430
  75.5467260  20.0618980  16.5712250  76.6178360  19.3567090  17.3757820
  81.1895570  24.7130800  15.4639560  81.2040110  23.7811760  15.2458470
  80.4820670  24.7990560  16.1029330  87.4006780  21.3538140  14.8108140
  86.6754970  21.9466920  14.6137530  87.9282240  21.3461680  14.0121510
  87.3519890  25.7512880   4.4620300  86.7096050  25.0968500   4.7364020
  86.9650550  26.1567970   3.6860970  82.9306370  23.0798310   8.3091990
  83.2830190  22.4826440   7.6493360  82.0468700  22.7542540   8.4800240
  79.0169650  23.8396000   5.7162400  79.7040780  24.3865210   6.0969990
  78.2302070  24.3836730   5.7512010  78.3196860  20.8442030   5.3287760
  78.7759640  21.6547280   5.5547950  77.9685070  20.5265170   6.1606250
  80.6229470  26.3548370  12.5580060  81.2671690  26.5607750  13.2353480
  80.9858910  25.5936770  12.1050910  74.2208640  11.1879680   5.8010280
  74.0923270  11.1797580   6.7495200  73.3970660  11.5262770   5.4501290
  81.8961550  24.3580720  11.2757510  82.5383780  23.6573880  11.3889680
  82.4210900  25.1379160  11.0954400  83.6699170  25.1575620  14.4793570
  84.0055410  25.7442310  15.1571490  82.7499510  25.0268330  14.7091360
  71.2202570  12.9470800  15.2616980  70.5061090  13.1467720  15.8669590
  71.6397610  12.1710370  15.6331780  85.3233520  22.5601280   2.6610810
  85.0355220  23.0213970   3.4488690  86.1185690  22.0999050   2.9295030
  71.5075160  26.9351060  16.2483510  71.6166280  25.9945800  16.1078900
  70.8555720  27.2005810  15.5997240  79.4987750  25.2066950  17.6481630
  79.1784620  24.4876190  18.1927320  78.8246110  25.8822020  17.7217690
  77.5401920  26.0527400   2.5914780  77.5312020  26.7857090   1.9759290
  76.6200280  25.8058980   2.6841740  73.1408560  21.2742290   3.3361540
  72.5336510  22.0141190   3.3456840  73.6157910  21.3641650   2.5099740
  82.7141350  15.4393110  13.0118430  83.0822170  14.6188320  13.3398000
  81.8539550  15.4995000  13.4274080  86.0803380  14.3950050   3.8205990
  85.4516540  14.4995720   3.1064220  85.5855300  14.6146830   4.6099870
  78.0487410  16.6736000   5.2363870  77.3403560  17.1422340   5.6777480
  78.3331890  16.0158010   5.8709060  79.6743340  18.0932700  13.2356400
  80.1728590  18.5678520  13.9008250  79.8166290  17.1696220  13.4426430
  82.0802840  13.3986660   6.6759660  81.9570620  13.4172790   5.7269170
  83.0287400  13.4465600   6.7958060  79.1679630  28.6341960   5.9487640
  79.4221130  28.5963350   5.0267010  78.2192110  28.5075290   5.9415890
  76.2522430  14.9821080   2.6114580  77.1012960  15.4191230   2.5454770
  75.8853700  15.2941340   3.4386640  86.8810200  14.3100660  14.0784790
  86.3783800  15.0506060  14.4178600  87.6966860  14.6984660  13.7621580
  85.1732210  19.5533840   7.5246150  84.2322350  19.5684070   7.6993840
  85.4876280  18.7669800   7.9706450  73.8460610  18.6678510   1.7683000
  73.9264200  17.7206020   1.8800400  74.7380360  18.9985390   1.8743660
  87.1757790  26.7242690   9.2000410  87.3005210  27.5473860   9.6724220
  88.0423350  26.5133420   8.8524560  74.6475320  28.8173900   8.8717540
  75.3837800  28.2689360   9.1426110  75.0316240  29.6829910   8.7323530
  71.5320800  24.8847470   4.7459050  70.6060580  25.1268610   4.7364460
  71.9977230  25.7121730   4.6243800  73.6533600  28.0019970  18.0603120
  74.4546330  28.3232020  18.4738520  73.1385420  27.6415550  18.7823030
  82.4898230  24.1099840  18.0078530  81.8836390  24.1331440  17.2674280
  82.1852340  23.3782880  18.5445780  83.9198600  27.8380130  16.6187940
  84.8720350  27.7538150  16.5688180  83.7726820  28.5021840  17.2921730
  86.8107800  27.2174340   2.1179850  86.5249310  26.8039480   1.3034030
  86.6127350  28.1462050   1.9980370  71.3731410  20.4893430  17.0039170
  71.8770430  19.9100710  17.5755400  70.6338830  20.7733660  17.5415540
  78.4269350  21.8964420  16.5374690  77.6615020  22.4649420  16.4529360
  78.6085310  21.6040630  15.6442920  85.5692700  23.6269750  17.0949710
  86.3102170  23.9645510  16.5917170  84.8065380  23.7961810  16.5419480
  73.4054490  18.6323020  17.8989240  73.4459830  18.3336890  18.8074470
  74.2599990  19.0330630  17.7396760  77.1832880  21.2318570   3.0592750
  77.6049300  21.0658440   3.9024140  77.3083720  20.4218800   2.5647890
  75.3460300  17.2115120  15.8663730  74.8156760  16.7206070  15.2387070
  76.0148370  17.6399320  15.3321660  84.2438360  21.6784580  15.6304920
  84.6579380  21.8329660  16.4795340  83.3089360  21.8039800  15.7930700
  84.7160530  19.0180740  17.6344070  85.2981300  18.2633060  17.5464550
  84.8922300  19.5488180  16.8575550  75.8332600  14.1777490  15.9461020
  75.7389470  13.5598240  15.2211890  75.2529990  14.9043780  15.7190930
  78.5994040  12.7350730  12.9788410  78.1511340  12.7574990  12.1333960
  77.9659240  12.3369750  13.5758710  79.0053590  21.6305060  13.6000850
  79.4241700  22.4737790  13.4277090  78.0862220  21.7677100  13.3707630
  81.3417490  19.3621240  14.9838690  81.4613700  18.7662380  15.7233530
  82.2011490  19.3990930  14.5639990  83.6805390  19.9158430  13.5601200
  83.1540610  20.4401050  12.9566340  84.0236730  20.5485820  14.1910930
  76.8561010  27.9358070  14.7158580  76.3182100  28.6604130  14.3967280
  77.1094970  27.4588410  13.9255920  78.1086260  15.9042590  16.2414510
  78.6985950  15.5958440  16.9292330  77.2906500  15.4322340  16.3974410
  82.9279690  15.5208400  16.4747530  82.2395210  14.8589940  16.4097520
  83.6485710  15.0746670  16.9195990  83.5580090  12.1160030   2.5337790
  83.8382380  11.2727930   2.8897210  82.7845820  12.3483140   3.0476540
  79.7123220  29.1709280  14.9745230  79.6381920  30.0744420  15.2817600
  78.8102060  28.8521180  14.9467300  80.2608550  28.3367790   2.5971590
  81.1559340  28.6752760   2.6190350  80.2926180  27.6147200   1.9695870
  71.1150510  26.4983870   8.2778850  71.4453520  25.6304930   8.0457490
  71.5441510  26.7042390   9.1083810  75.7112430  24.8292880   5.9380820
  75.4107970  24.7057850   6.8384730  75.6049920  23.9701470   5.5296550
  71.6040720  27.3654460  11.0160480  71.1671710  27.5455260  11.8484630
  72.1718400  28.1229080  10.8742200  87.2402900  26.8671460  15.3037790
  86.6404890  26.9264020  14.5601710  87.3696800  25.9276440  15.4334640
  87.9360810  21.3536760   3.1441700  88.6979720  21.9233410   3.2501390
  87.9515180  20.7863960   3.9150010  71.4365150  19.8774690   7.3749360
  70.7813990  19.6086330   6.7309060  72.2743100  19.7679170   6.9251340
  88.9420780  22.2086860   7.9883630  89.3129610  21.4254180   7.5819600
  89.5822710  22.8975960   7.8100930  85.9254540  23.5923440  13.4013950
  85.1114380  24.0220600  13.6639740  86.3328740  24.2041850  12.7883000
  87.8845320  19.5840120   5.2943650  87.5088920  18.8168050   4.8624940
  87.1548440  19.9662820   5.7818580  72.4741080  20.2627260  11.9152700
  72.8414120  20.1754660  12.7948720  71.9051900  19.4993810  11.8159560
  87.2744940  18.7311640  14.9283170  87.0431030  18.5024390  14.0281120
  87.5349490  19.6511190  14.8828060  72.0257080  17.1736350  15.8211120
  71.1313130  17.1403110  16.1604830  72.5654630  17.3723140  16.5862370
  85.7133010  13.9568070  17.7062870  86.5903190  13.9651470  18.0896870
  85.7253850  13.2198910  17.0955220  70.6503230  17.0873620   3.3174690
  69.7467310  17.3503820   3.1426350  71.1343850  17.3584790   2.5374650
  87.1596280  17.8097610   8.5950890  87.6833760  17.3160260   7.9641060
  87.7455700  17.9447970   9.3398460  87.3386000  17.8937480  12.1170440
  86.3888710  17.8601020  12.2315430  87.5199010  18.8037590  11.8820210
  86.6496250  17.0670960   4.5343300  87.1455370  16.8341830   5.3192180
  86.4512320  16.2282800   4.1180940  72.5296790  11.4484680  10.1694340
  73.1772980  10.8982060   9.7289500  72.9498630  11.7027830  10.9910150
  88.0783410  15.7031910   7.0680980  87.9682690  15.5487950   8.0063250
  88.8391000  15.1752850   6.8256390  86.4249130  11.6426040  13.5263980
  87.0621350  12.2560180  13.8923170  86.5724020  11.6786700  12.5813210
  89.0412170  14.3050490   2.9343830  88.2463670  14.2395610   3.4636740
  89.2455450  15.2401130   2.9229180  85.9830590  28.3442040   6.9282220
  86.5789660  28.0226610   6.2516640  86.2408740  27.8713860   7.7195490
  72.2828790  11.6040350  12.9119660  71.9343610  12.0604170  13.6777840
  71.9516490  10.7097480  12.9942090  73.8893160  24.7759950  17.0772850
  73.8462790  24.4052860  17.9587310  74.0204170  25.7137520  17.2174670
  77.5899190  26.3319540  12.6782570  77.3490550  26.5994100  11.7913090
  78.5301830  26.5025270  12.7333430  79.7953610  12.7952230  16.4339080
  79.7342500  13.3874060  17.1834490  80.7353990  12.6878190  16.2889340
  82.4328170  12.4522290  16.0731370  83.0468580  12.7701580  15.4112450
  82.9777730  11.9670880  16.6927230  88.8503350  28.3513920  13.4793210
  88.3561630  28.7482790  12.7620340  88.2416640  27.7263130  13.8730490
  72.9549430  11.1316550  16.1870430  73.5032420  10.9504600  15.4236540
  73.0204740  10.3410660  16.7226740  73.7281190  27.7222200  14.1970630
  73.1341510  27.5906900  14.9360670  73.7205030  26.8860340  13.7312730
  83.1736210  11.0154430  12.4000660  82.2996050  11.3489540  12.1973590
  83.0646960  10.5427610  13.2252530  84.0808190  13.2225300  13.7842380
  83.7521550  12.4077060  13.4044110  85.0290490  13.1795110  13.6608070
  86.5342800  28.9937340  10.7579950  86.0745770  29.7453150  10.3837970
  85.9055260  28.2743810  10.6994750  73.3593420  25.0880580  13.1478670
  72.6327480  24.4685870  13.0804620  73.4202570  25.4821190  12.2776750
  76.9638520  27.3025580   9.9328080  77.4803540  26.6912940   9.4076340
  77.6135900  27.8054360  10.4239090  79.7034020  28.1934070  10.7597060
  79.9911830  27.9388370   9.8830070  80.2157240  27.6411430  11.3502630
  80.9211030  11.9324270  11.3393570  80.1382820  12.4069770  11.6190330
  80.6273960  11.0279100  11.2306750  85.4732100  12.6347370   9.3842660
  85.9140190  12.5792470   8.5364260  85.2039690  13.5505380   9.4552840
  87.3370670  12.2662610   7.3951480  87.2759070  11.3223830   7.2482500
  88.1162700  12.3742700   7.9404940  71.6423420  28.4054970   6.3575430
  71.4745460  27.7725650   7.0557320  70.7757930  28.6114370   6.0069620
  72.2651440  12.2371750   3.8607290  73.0230800  12.3500630   3.2871320
  71.8028610  13.0740950   3.8150720  78.8065250  14.3511020   6.8509600
  77.9939760  13.9767910   6.5105480  79.3106890  13.5956100   7.1530790
  83.3090230  11.0153470   8.0892670  83.9119600  11.5873680   8.5641190
  82.5683220  11.5792910   7.8666570  86.4524830  11.4175030   3.3632950
  86.6475460  12.3158480   3.6300380  85.6654700  11.1862110   3.8565900
  73.2486120  27.0988200   3.8025570  72.7233740  27.4796230   3.0987530
  73.1730700  27.7238970   4.5235280  74.6376590  12.7635800   2.4009260
  75.1669350  11.9765600   2.2717210  75.2704910  13.4426990   2.6344790
  76.8314430  12.5010940   5.4554650  76.2017170  11.7998250   5.6224780
  76.2919570  13.2615070   5.2387810  79.7706380  29.1150170  18.1265260
  80.6973690  28.8794440  18.1701220  79.7556810  29.9422170  17.6451290
  88.0051440  28.6575740   5.1239510  88.1803630  27.9713480   4.4800430
  87.3073010  29.1822790   4.7316180  76.9569990  11.7794920  17.8907140
  76.6754260  12.2828520  17.1267960  77.3389690  10.9816670  17.5249270
  75.8479090  29.0470580   2.6774820  76.5797910  28.7629860   2.1298710
  76.1072760  28.8083860   3.5674200  75.0093880  25.1635310   2.6821150
  74.3802760  25.6320410   3.2306980  75.1241710  24.3184530   3.1167340
  83.5585450  11.1948500  18.4687610  83.4450900  11.5143110  19.3639130
  84.3755190  11.5961010  18.1724890  86.3383940  28.3420030  17.9506300
  87.1309260  27.8469260  17.7432260  86.6317090  29.0210170  18.5581910
  80.5961640   2.2176500 103.3592560  79.8203740   1.7376940 103.6491130
  81.2474570   1.5382150 103.1848720  74.6127470   2.5296310 104.2368320
  73.7812350   2.2745020 104.6364830  75.2208450   2.6007080 104.9726240
  84.6169070   6.6236690 102.1391690  84.1550600   5.8523930 102.4678860
  85.4294620   6.6502760 102.6444140  74.5928730   6.5636400 104.4326340
  74.8956770   5.6734140 104.2536560  75.3372320   7.1206620 104.2048590
  80.8432380   8.9094700 101.7595680  80.2243820   9.3652200 101.1890120
  81.6984160   9.0646160 101.3585380  80.0370630   4.8933690 103.3662720
  79.9678910   3.9523630 103.2051850  80.7990490   4.9835100 103.9385290
  81.7095730   3.7933940  99.1527590  81.0913000   4.2583390  98.5890310
  82.2218980   4.4861420  99.5697100  76.5727490   3.3209810 105.8311190
  76.2396870   3.9478730 106.4732260  76.7494170   3.8471690 105.0512860
  75.7846590   5.2890610 107.6460370  76.4020590   5.9641690 107.3644820
  74.9239710   5.6978590 107.5547870  71.0778930   4.4790470  96.5267220
  70.7006910   4.9677570  95.7952120  71.3352000   5.1515750  97.1573750
  86.7024180   6.7530020 105.5615010  86.0187700   7.4229130 105.5531680
  87.2418470   6.9510670 104.7959870  84.2382920   8.5974150 104.2760190
  84.2510080   8.1936440 103.4082450  83.6858140   9.3721440 104.1721620
  85.5328340   5.3190370  99.3650360  85.4224670   4.3764700  99.4899780
  85.5296590   5.6806010 100.2513120  83.6368360   3.5003990 105.6042800
  84.0537150   3.2864100 104.7696260  84.3608180   3.7576780 106.1751420
  87.5830460   1.8991210 105.6959040  86.7549090   1.9684300 105.2209170
  88.1780940   2.4845520 105.2274870  85.1045910   2.5075990  99.2248100
  84.4858330   2.1695540  98.5774400  85.0870360   1.8635750  99.9327290
  77.1486960   5.1587990 103.6671790  76.8515250   4.5533460 102.9879570
  78.0986780   5.1965300 103.5561150  85.2372570   8.7319860 107.3294890
  84.7603130   9.5392050 107.1367500  84.5534360   8.0798190 107.4821100
  76.2405390   4.8969680 110.3179590  75.3433920   5.1209650 110.5652990
  76.2658260   5.0204620 109.3690990  75.0676610   1.7683000 108.8936960
  74.9284380   2.6405800 109.2624360  74.1857970   1.4255810 108.7484900
  81.3905990   6.6858870 100.2002090  81.8301900   7.4283200  99.7857480
  81.3292880   6.9285440 101.1241050  71.0195260   3.5380550 104.8107870
  71.0975680   3.6729320 103.8663590  71.6336940   2.8296440 105.0035990
  72.2642890   5.2380740 101.2214050  71.8570970   5.3795330 100.3667650
  73.1555900   4.9540900 101.0185260  88.2205030   5.6844650 109.5586290
  88.3468090   5.4456530 108.6403470  88.2626410   4.8529190 110.0308370
  82.0821770   9.3872650 108.1281100  82.5966440   9.2980660 108.9303530
  81.2390850   9.7332350 108.4209010  84.0576170   9.6727990  97.5565100
  83.8977310   9.3830930  98.4546930  83.8922880   8.8968120  97.0210330
  76.5364550   9.4526520  99.3336720  76.3607030   8.5362060  99.1204520
  75.6820290   9.8113810  99.5734520  83.7602300   7.1815550  96.1163100
  83.0667460   7.1792840  95.4565380  84.5025160   6.7574870  95.6857270
  83.3252230   8.8078260 100.1911590  83.7809180   8.0267640 100.5050210
  83.6644750   9.5185080 100.7352770  71.0754780   4.5794720 107.3502330
  71.2385820   4.1100080 106.5321700  71.5407230   4.0718280 108.0151170
  72.6493760   3.9546150 109.5098140  72.2648550   3.3139820 110.1081100
  72.9605950   4.6582270 110.0792870  75.1172060   4.0492320  97.9057820
  74.3434320   3.5089940  97.7456540  75.8466690   3.5298930  97.5675580
  85.8760040   3.0457680 103.6984210  86.5959160   3.5412970 103.3080320
  85.6741860   2.3675570 103.0538080  81.2578840   3.1166740 109.5853210
  81.1916150   2.1962410 109.3310800  80.6283980   3.2142180 110.2997850
  75.1609460   3.7172700 101.5436630  75.6788130   2.9140960 101.4893520
  74.7093480   3.6551840 102.3853460  80.0478960   4.9838980  96.8163930
  80.3894660   5.7281210  96.3207250  79.2191670   5.2970100  97.1788760
  81.1895570   5.9387310 109.3357010  81.2040110   5.0068270 109.1175920
  80.4820670   6.0247070 109.9746780  87.4006780   2.5794650 108.6825590
  86.6754970   3.1723430 108.4854980  87.9282240   2.5718190 107.8838960
  87.3519890   6.9769390  98.3337750  86.7096050   6.3225010  98.6081470
  86.9650550   7.3824480  97.5578420  82.9306370   4.3054820 102.1809440
  83.2830190   3.7082950 101.5210810  82.0468700   3.9799050 102.3517690
  79.0169650   5.0652510  99.5879850  79.7040780   5.6121720  99.9687440
  78.2302070   5.6093240  99.6229460  78.3196860   2.0698540  99.2005210
  78.7759640   2.8803790  99.4265400  77.9685070   1.7521680 100.0323700
  80.6229470   7.5804880 106.4297510  81.2671690   7.7864260 107.1070930
  80.9858910   6.8193280 105.9768360  81.8961550   5.5837230 105.1474960
  82.5383780   4.8830390 105.2607130  82.4210900   6.3635670 104.9671850
  85.7417270   5.8685850  94.8714100  85.5154850   5.1516290  95.4638740
  85.3513470   5.6198290  94.0335850  83.6699170   6.3832130 108.3511020
  84.0055410   6.9698820 109.0288940  82.7499510   6.2524840 108.5808810
  71.5233300   9.8952710  95.6458560  71.8830940  10.4942050  94.9915830
  71.3825640  10.4412600  96.4193590  85.3233520   3.7857790  96.5328260
  85.0355220   4.2470480  97.3206140  86.1185690   3.3255560  96.8012480
  71.5075160   8.1607570 110.1200960  71.6166280   7.2202310 109.9796350
  70.8555720   8.4262320 109.4714690  77.5401920   7.2783910  96.4632230
  77.5312020   8.0113600  95.8476740  76.6200280   7.0315490  96.5559190
  73.1408560   2.4998800  97.2078990  72.5336510   3.2397700  97.2174290
  73.6157910   2.5898160  96.3817190  80.5261520   7.3412150  95.1257420
  80.6273500   7.1376140  94.1959400  79.6263260   7.0870430  95.3305200
  79.1679630   9.8598470  99.8205090  79.4221130   9.8219860  98.8984460
  78.2192110   9.7331800  99.8133340  75.1513850   2.4609950  94.9567560
  75.9177120   2.3491310  95.5192990  75.2288540   1.7647920  94.3044330
  87.1757790   7.9499200 103.0717860  87.3005210   8.7730370 103.5441670
  88.0423350   7.7389930 102.7242010  74.6475320  10.0430410 102.7434990
  75.3837800   9.4945870 103.0143560  75.0316240  10.9086420 102.6040980
  71.5320800   6.1103980  98.6176500  70.6060580   6.3525120  98.6081910
  71.9977230   6.9378240  98.4961250  77.7577630   9.2160720  94.5660560
  78.5506240   9.5049550  94.1142350  77.2381980   8.7852890  93.8873040
  86.8107800   8.4430850  95.9897300  86.5249310   8.0295990  95.1751480
  86.6127350   9.3718560  95.8697820  78.2755030   4.4364130  94.4302910
  78.1705670   3.8216480  95.1564290  78.1079250   3.9130020  93.6465920
  78.4269350   3.1220930 110.4092140  77.6615020   3.6905930 110.3246810
  78.6085310   2.8297140 109.5160370  81.5157760   3.4984160  95.0344900
  80.9667860   3.9453460  95.6787640  82.1377020   2.9933410  95.5582570
  85.5692700   4.8526260 110.9667160  86.3102170   5.1902020 110.4634620
  84.8065380   5.0218320 110.4136930  77.1832880   2.4575080  96.9310200
  77.6049300   2.2914950  97.7741590  77.3083720   1.6475310  96.4365340
  84.2438360   2.9041090 109.5022370  84.6579380   3.0586170 110.3512790
  83.3089360   3.0296310 109.6648150  79.0053590   2.8561570 107.4718300
  79.4241700   3.6994300 107.2994540  78.0862220   2.9933610 107.2425080
  76.8561010   9.1614580 108.5876030  76.3182100   9.8860640 108.2684730
  77.1094970   8.6844920 107.7973370  79.7123220  10.3965790 108.8462680
  79.6381920  11.3000930 109.1535050  78.8102060  10.0777690 108.8184750
  80.2608550   9.5624300  96.4689040  81.1559340   9.9009270  96.4907800
  80.2926180   8.8403710  95.8413320  73.9004710   4.9351350  94.6976040
  74.3379580   5.4781020  95.3533620  74.3852440   4.1098300  94.7072380
  71.1150510   7.7240380 102.1496300  71.4453520   6.8561440 101.9174940
  71.5441510   7.9298900 102.9801260  75.7112430   6.0549390  99.8098270
  75.4107970   5.9314360 100.7102180  75.6049920   5.1957980  99.4014000
  71.6040720   8.5910970 104.8877930  71.1671710   8.7711770 105.7202080
  72.1718400   9.3485590 104.7459650  87.2402900   8.0927970 109.1755240
  86.6404890   8.1520530 108.4319160  87.3696800   7.1532950 109.3052090
  88.4804350   5.8345790  94.5124950  87.6497310   5.9022440  94.9832180
  88.6576180   6.7249910  94.2091810  87.9360810   2.5793270  97.0159150
  88.6979720   3.1489920  97.1218840  87.9515180   2.0120470  97.7867460
  88.9420780   3.4343370 101.8601080  89.3129610   2.6510690 101.4537050
  89.5822710   4.1232470 101.6818380  85.9254540   4.8179950 107.2731400
  85.1114380   5.2477110 107.5357190  86.3328740   5.4298360 106.6600450
  87.9879980   2.8727640  94.1731670  88.2628820   3.7806520  94.0450890
  87.7990720   2.8090170  95.1093660  85.9830590   9.5698550 100.7999670
  86.5789660   9.2483120 100.1234090  86.2408740   9.0970370 101.5912940
  77.5899190   7.5576050 106.5500020  77.3490550   7.8250610 105.6630540
  78.5301830   7.7281780 106.6050880  88.8503350   9.5770430 107.3510660
  88.3561630   9.9739300 106.6337790  88.2416640   8.9519640 107.7447940
  73.7281190   8.9478710 108.0688080  73.1341510   8.8163410 108.8078120
  73.7205030   8.1116850 107.6030180  86.5342800  10.2193850 104.6297400
  86.0745770  10.9709660 104.2555420  85.9055260   9.5000320 104.5712200
  73.3593420   6.3137090 107.0196120  72.6327480   5.6942380 106.9522070
  73.4202570   6.7077700 106.1494200  76.9638520   8.5282090 103.8045530
  77.4803540   7.9169450 103.2793790  77.6135900   9.0310870 104.2956540
  79.7034020   9.4190580 104.6314510  79.9911830   9.1644880 103.7547520
  80.2157240   8.8667940 105.2220080  71.6423420   9.6311480 100.2292880
  71.4745460   8.9982160 100.9274770  70.7757930   9.8370880  99.8787070
  73.2486120   8.3244710  97.6743020  72.7233740   8.7052740  96.9704980
  73.1730700   8.9495480  98.3952730  88.0051440   9.8832250  98.9956960
  88.1803630   9.1969990  98.3517880  87.3073010  10.4079300  98.6033630
  75.8479090  10.2727090  96.5492270  76.5797910   9.9886370  96.0016160
  76.1072760  10.0340370  97.4391650  75.0093880   6.3891820  96.5538600
  74.3802760   6.8576920  97.1024430  75.1241710   5.5441040  96.9884790
  80.5961640   2.2176500  84.5849070  79.8203740   1.7376940  84.8747640
  81.2474570   1.5382150  84.4105230  74.6127470   2.5296310  85.4624830
  73.7812350   2.2745020  85.8621340  75.2208450   2.6007080  86.1982750
  84.6169070   6.6236690  83.3648200  84.1550600   5.8523930  83.6935370
  85.4294620   6.6502760  83.8700650  74.5928730   6.5636400  85.6582850
  74.8956770   5.6734140  85.4793070  75.3372320   7.1206620  85.4305100
  80.8432380   8.9094700  82.9852190  80.2243820   9.3652200  82.4146630
  81.6984160   9.0646160  82.5841890  80.0370630   4.8933690  84.5919230
  79.9678910   3.9523630  84.4308360  80.7990490   4.9835100  85.1641800
  81.7095730   3.7933940  80.3784100  81.0913000   4.2583390  79.8146820
  82.2218980   4.4861420  80.7953610  76.5727490   3.3209810  87.0567700
  76.2396870   3.9478730  87.6988770  76.7494170   3.8471690  86.2769370
  75.7846590   5.2890610  88.8716880  76.4020590   5.9641690  88.5901330
  74.9239710   5.6978590  88.7804380  71.0778930   4.4790470  77.7523730
  70.7006910   4.9677570  77.0208630  71.3352000   5.1515750  78.3830260
  86.7024180   6.7530020  86.7871520  86.0187700   7.4229130  86.7788190
  87.2418470   6.9510670  86.0216380  84.2382920   8.5974150  85.5016700
  84.2510080   8.1936440  84.6338960  83.6858140   9.3721440  85.3978130
  85.5328340   5.3190370  80.5906870  85.4224670   4.3764700  80.7156290
  85.5296590   5.6806010  81.4769630  83.6368360   3.5003990  86.8299310
  84.0537150   3.2864100  85.9952770  84.3608180   3.7576780  87.4007930
  87.5830460   1.8991210  86.9215550  86.7549090   1.9684300  86.4465680
  88.1780940   2.4845520  86.4531380  85.1045910   2.5075990  80.4504610
  84.4858330   2.1695540  79.8030910  85.0870360   1.8635750  81.1583800
  77.1486960   5.1587990  84.8928300  76.8515250   4.5533460  84.2136080
  78.0986780   5.1965300  84.7817660  85.2372570   8.7319860  88.5551400
  84.7603130   9.5392050  88.3624010  84.5534360   8.0798190  88.7077610
  76.2405390   4.8969680  91.5436100  75.3433920   5.1209650  91.7909500
  76.2658260   5.0204620  90.5947500  75.0676610   1.7683000  90.1193470
  74.9284380   2.6405800  90.4880870  74.1857970   1.4255810  89.9741410
  81.3905990   6.6858870  81.4258600  81.8301900   7.4283200  81.0113990
  81.3292880   6.9285440  82.3497560  76.8656960   7.7104700  92.3278620
  76.8372390   8.1147650  91.4607050  76.7021930   6.7815060  92.1650220
  88.8171780   8.4931800  93.6242790  89.2931500   8.9714690  94.3031870
  89.4378940   8.4249290  92.8988290  71.0195260   3.5380550  86.0364380
  71.0975680   3.6729320  85.0920100  71.6336940   2.8296440  86.2292500
  72.2642890   5.2380740  82.4470560  71.8570970   5.3795330  81.5924160
  73.1555900   4.9540900  82.2441770  88.2205030   5.6844650  90.7842800
  88.3468090   5.4456530  89.8659980  88.2626410   4.8529190  91.2564880
  82.0821770   9.3872650  89.3537610  82.5966440   9.2980660  90.1560040
  81.2390850   9.7332350  89.6465520  84.0576170   9.6727990  78.7821610
  83.8977310   9.3830930  79.6803440  83.8922880   8.8968120  78.2466840
  76.5364550   9.4526520  80.5593230  76.3607030   8.5362060  80.3461030
  75.6820290   9.8113810  80.7991030  83.7602300   7.1815550  77.3419610
  83.0667460   7.1792840  76.6821890  84.5025160   6.7574870  76.9113780
  83.3252230   8.8078260  81.4168100  83.7809180   8.0267640  81.7306720
  83.6644750   9.5185080  81.9609280  71.0754780   4.5794720  88.5758840
  71.2385820   4.1100080  87.7578210  71.5407230   4.0718280  89.2407680
  72.6493760   3.9546150  90.7354650  72.2648550   3.3139820  91.3337610
  72.9605950   4.6582270  91.3049380  75.1172060   4.0492320  79.1314330
  74.3434320   3.5089940  78.9713050  75.8466690   3.5298930  78.7932090
  85.8760040   3.0457680  84.9240720  86.5959160   3.5412970  84.5336830
  85.6741860   2.3675570  84.2794590  81.2578840   3.1166740  90.8109720
  81.1916150   2.1962410  90.5567310  80.6283980   3.2142180  91.5254360
  75.1609460   3.7172700  82.7693140  75.6788130   2.9140960  82.7150030
  74.7093480   3.6551840  83.6109970  80.0478960   4.9838980  78.0420440
  80.3894660   5.7281210  77.5463760  79.2191670   5.2970100  78.4045270
  81.1895570   5.9387310  90.5613520  81.2040110   5.0068270  90.3432430
  80.4820670   6.0247070  91.2003290  87.4006780   2.5794650  89.9082100
  86.6754970   3.1723430  89.7111490  87.9282240   2.5718190  89.1095470
  87.3519890   6.9769390  79.5594260  86.7096050   6.3225010  79.8337980
  86.9650550   7.3824480  78.7834930  82.9306370   4.3054820  83.4065950
  83.2830190   3.7082950  82.7467320  82.0468700   3.9799050  83.5774200
  79.0169650   5.0652510  80.8136360  79.7040780   5.6121720  81.1943950
  78.2302070   5.6093240  80.8485970  78.3196860   2.0698540  80.4261720
  78.7759640   2.8803790  80.6521910  77.9685070   1.7521680  81.2580210
  80.6229470   7.5804880  87.6554020  81.2671690   7.7864260  88.3327440
  80.9858910   6.8193280  87.2024870  81.8961550   5.5837230  86.3731470
  82.5383780   4.8830390  86.4863640  82.4210900   6.3635670  86.1928360
  85.7417270   5.8685850  76.0970610  85.5154850   5.1516290  76.6895250
  85.3513470   5.6198290  75.2592360  83.6699170   6.3832130  89.5767530
  84.0055410   6.9698820  90.2545450  82.7499510   6.2524840  89.8065320
  71.5233300   9.8952710  76.8715070  71.8830940  10.4942050  76.2172340
  71.3825640  10.4412600  77.6450100  85.3233520   3.7857790  77.7584770
  85.0355220   4.2470480  78.5462650  86.1185690   3.3255560  78.0268990
  71.5075160   8.1607570  91.3457470  71.6166280   7.2202310  91.2052860
  70.8555720   8.4262320  90.6971200  79.4987750   6.4323460  92.7455590
  79.1784620   5.7132700  93.2901280  78.8246110   7.1078530  92.8191650
  77.5401920   7.2783910  77.6888740  77.5312020   8.0113600  77.0733250
  76.6200280   7.0315490  77.7815700  73.1408560   2.4998800  78.4335500
  72.5336510   3.2397700  78.4430800  73.6157910   2.5898160  77.6073700
  80.5261520   7.3412150  76.3513930  80.6273500   7.1376140  75.4215910
  79.6263260   7.0870430  76.5561710  79.1679630   9.8598470  81.0461600
  79.4221130   9.8219860  80.1240970  78.2192110   9.7331800  81.0389850
  75.1513850   2.4609950  76.1824070  75.9177120   2.3491310  76.7449500
  75.2288540   1.7647920  75.5300840  87.1757790   7.9499200  84.2974370
  87.3005210   8.7730370  84.7698180  88.0423350   7.7389930  83.9498520
  74.6475320  10.0430410  83.9691500  75.3837800   9.4945870  84.2400070
  75.0316240  10.9086420  83.8297490  71.5320800   6.1103980  79.8433010
  70.6060580   6.3525120  79.8338420  71.9977230   6.9378240  79.7217760
  73.6533600   9.2276480  93.1577080  74.4546330   9.5488530  93.5712480
  73.1385420   8.8672060  93.8796990  77.7577630   9.2160720  75.7917070
  78.5506240   9.5049550  75.3398860  77.2381980   8.7852890  75.1129550
  82.4898230   5.3356350  93.1052490  81.8836390   5.3587950  92.3648240
  82.1852340   4.6039390  93.6419740  83.9198600   9.0636640  91.7161900
  84.8720350   8.9794660  91.6662140  83.7726820   9.7278350  92.3895690
  86.8107800   8.4430850  77.2153810  86.5249310   8.0295990  76.4007990
  86.6127350   9.3718560  77.0954330  78.2755030   4.4364130  75.6559420
  78.1705670   3.8216480  76.3820800  78.1079250   3.9130020  74.8722430
  78.4269350   3.1220930  91.6348650  77.6615020   3.6905930  91.5503320
  78.6085310   2.8297140  90.7416880  81.5157760   3.4984160  76.2601410
  80.9667860   3.9453460  76.9044150  82.1377020   2.9933410  76.7839080
  85.5692700   4.8526260  92.1923670  86.3102170   5.1902020  91.6891130
  84.8065380   5.0218320  91.6393440  77.1832880   2.4575080  78.1566710
  77.6049300   2.2914950  78.9998100  77.3083720   1.6475310  77.6621850
  84.2438360   2.9041090  90.7278880  84.6579380   3.0586170  91.5769300
  83.3089360   3.0296310  90.8904660  79.0053590   2.8561570  88.6974810
  79.4241700   3.6994300  88.5251050  78.0862220   2.9933610  88.4681590
  76.8561010   9.1614580  89.8132540  76.3182100   9.8860640  89.4941240
  77.1094970   8.6844920  89.0229880  79.7123220  10.3965790  90.0719190
  79.6381920  11.3000930  90.3791560  78.8102060  10.0777690  90.0441260
  80.2608550   9.5624300  77.6945550  81.1559340   9.9009270  77.7164310
  80.2926180   8.8403710  77.0669830  73.9004710   4.9351350  75.9232550
  74.3379580   5.4781020  76.5790130  74.3852440   4.1098300  75.9328890
  71.1150510   7.7240380  83.3752810  71.4453520   6.8561440  83.1431450
  71.5441510   7.9298900  84.2057770  75.7112430   6.0549390  81.0354780
  75.4107970   5.9314360  81.9358690  75.6049920   5.1957980  80.6270510
  71.6040720   8.5910970  86.1134440  71.1671710   8.7711770  86.9458590
  72.1718400   9.3485590  85.9716160  87.2402900   8.0927970  90.4011750
  86.6404890   8.1520530  89.6575670  87.3696800   7.1532950  90.5308600
  88.4804350   5.8345790  75.7381460  87.6497310   5.9022440  76.2088690
  88.6576180   6.7249910  75.4348320  87.9360810   2.5793270  78.2415660
  88.6979720   3.1489920  78.3475350  87.9515180   2.0120470  79.0123970
  88.9420780   3.4343370  83.0857590  89.3129610   2.6510690  82.6793560
  89.5822710   4.1232470  82.9074890  85.9254540   4.8179950  88.4987910
  85.1114380   5.2477110  88.7613700  86.3328740   5.4298360  87.8856960
  87.9879980   2.8727640  75.3988180  88.2628820   3.7806520  75.2707400
  87.7990720   2.8090170  76.3350170  85.9830590   9.5698550  82.0256180
  86.5789660   9.2483120  81.3490600  86.2408740   9.0970370  82.8169450
  73.8893160   6.0016460  92.1746810  73.8462790   5.6309370  93.0561270
  74.0204170   6.9394030  92.3148630  77.5899190   7.5576050  87.7756530
  77.3490550   7.8250610  86.8887050  78.5301830   7.7281780  87.8307390
  88.8503350   9.5770430  88.5767170  88.3561630   9.9739300  87.8594300
  88.2416640   8.9519640  88.9704450  73.7281190   8.9478710  89.2944590
  73.1341510   8.8163410  90.0334630  73.7205030   8.1116850  88.8286690
  86.5342800  10.2193850  85.8553910  86.0745770  10.9709660  85.4811930
  85.9055260   9.5000320  85.7968710  73.3593420   6.3137090  88.2452630
  72.6327480   5.6942380  88.1778580  73.4202570   6.7077700  87.3750710
  76.9638520   8.5282090  85.0302040  77.4803540   7.9169450  84.5050300
  77.6135900   9.0310870  85.5213050  79.7034020   9.4190580  85.8571020
  79.9911830   9.1644880  84.9804030  80.2157240   8.8667940  86.4476590
  71.6423420   9.6311480  81.4549390  71.4745460   8.9982160  82.1531280
  70.7757930   9.8370880  81.1043580  73.2486120   8.3244710  78.8999530
  72.7233740   8.7052740  78.1961490  73.1730700   8.9495480  79.6209240
  79.7706380  10.3406680  93.2239220  80.6973690  10.1050950  93.2675180
  79.7556810  11.1678680  92.7425250  88.0051440   9.8832250  80.2213470
  88.1803630   9.1969990  79.5774390  87.3073010  10.4079300  79.8290140
  75.8479090  10.2727090  77.7748780  76.5797910   9.9886370  77.2272670
  76.1072760  10.0340370  78.6648160  75.0093880   6.3891820  77.7795110
  74.3802760   6.8576920  78.3280940  75.1241710   5.5441040  78.2141300
  86.3383940   9.5676540  93.0480260  87.1309260   9.0725770  92.8406220
  86.6317090  10.2466680  93.6555870  80.5961640   2.2176500  65.8105580
  79.8203740   1.7376940  66.1004150  81.2474570   1.5382150  65.6361740
  74.6127470   2.5296310  66.6881340  73.7812350   2.2745020  67.0877850
  75.2208450   2.6007080  67.4239260  84.6169070   6.6236690  64.5904710
  84.1550600   5.8523930  64.9191880  85.4294620   6.6502760  65.0957160
  74.5928730   6.5636400  66.8839360  74.8956770   5.6734140  66.7049580
  75.3372320   7.1206620  66.6561610  80.8432380   8.9094700  64.2108700
  80.2243820   9.3652200  63.6403140  81.6984160   9.0646160  63.8098400
  80.0370630   4.8933690  65.8175740  79.9678910   3.9523630  65.6564870
  80.7990490   4.9835100  66.3898310  81.7095730   3.7933940  61.6040610
  81.0913000   4.2583390  61.0403330  82.2218980   4.4861420  62.0210120
  76.5727490   3.3209810  68.2824210  76.2396870   3.9478730  68.9245280
  76.7494170   3.8471690  67.5025880  75.7846590   5.2890610  70.0973390
  76.4020590   5.9641690  69.8157840  74.9239710   5.6978590  70.0060890
  71.0778930   4.4790470  58.9780240  70.7006910   4.9677570  58.2465140
  71.3352000   5.1515750  59.6086770  86.7024180   6.7530020  68.0128030
  86.0187700   7.4229130  68.0044700  87.2418470   6.9510670  67.2472890
  84.2382920   8.5974150  66.7273210  84.2510080   8.1936440  65.8595470
  83.6858140   9.3721440  66.6234640  85.5328340   5.3190370  61.8163380
  85.4224670   4.3764700  61.9412800  85.5296590   5.6806010  62.7026140
  83.6368360   3.5003990  68.0555820  84.0537150   3.2864100  67.2209280
  84.3608180   3.7576780  68.6264440  87.5830460   1.8991210  68.1472060
  86.7549090   1.9684300  67.6722190  88.1780940   2.4845520  67.6787890
  85.1045910   2.5075990  61.6761120  84.4858330   2.1695540  61.0287420
  85.0870360   1.8635750  62.3840310  77.1486960   5.1587990  66.1184810
  76.8515250   4.5533460  65.4392590  78.0986780   5.1965300  66.0074170
  85.2372570   8.7319860  69.7807910  84.7603130   9.5392050  69.5880520
  84.5534360   8.0798190  69.9334120  76.2405390   4.8969680  72.7692610
  75.3433920   5.1209650  73.0166010  76.2658260   5.0204620  71.8204010
  75.0676610   1.7683000  71.3449980  74.9284380   2.6405800  71.7137380
  74.1857970   1.4255810  71.1997920  81.3905990   6.6858870  62.6515110
  81.8301900   7.4283200  62.2370500  81.3292880   6.9285440  63.5754070
  76.8656960   7.7104700  73.5535130  76.8372390   8.1147650  72.6863560
  76.7021930   6.7815060  73.3906730  88.8171780   8.4931800  74.8499300
  89.2931500   8.9714690  75.5288380  89.4378940   8.4249290  74.1244800
  71.0195260   3.5380550  67.2620890  71.0975680   3.6729320  66.3176610
  71.6336940   2.8296440  67.4549010  72.2642890   5.2380740  63.6727070
  71.8570970   5.3795330  62.8180670  73.1555900   4.9540900  63.4698280
  88.2205030   5.6844650  72.0099310  88.3468090   5.4456530  71.0916490
  88.2626410   4.8529190  72.4821390  82.0821770   9.3872650  70.5794120
  82.5966440   9.2980660  71.3816550  81.2390850   9.7332350  70.8722030
  84.0576170   9.6727990  60.0078120  83.8977310   9.3830930  60.9059950
  83.8922880   8.8968120  59.4723350  76.5364550   9.4526520  61.7849740
  76.3607030   8.5362060  61.5717540  75.6820290   9.8113810  62.0247540
  83.7602300   7.1815550  58.5676120  83.0667460   7.1792840  57.9078400
  84.5025160   6.7574870  58.1370290  83.3252230   8.8078260  62.6424610
  83.7809180   8.0267640  62.9563230  83.6644750   9.5185080  63.1865790
  71.0754780   4.5794720  69.8015350  71.2385820   4.1100080  68.9834720
  71.5407230   4.0718280  70.4664190  72.6493760   3.9546150  71.9611160
  72.2648550   3.3139820  72.5594120  72.9605950   4.6582270  72.5305890
  75.1172060   4.0492320  60.3570840  74.3434320   3.5089940  60.1969560
  75.8466690   3.5298930  60.0188600  85.8760040   3.0457680  66.1497230
  86.5959160   3.5412970  65.7593340  85.6741860   2.3675570  65.5051100
  81.2578840   3.1166740  72.0366230  81.1916150   2.1962410  71.7823820
  80.6283980   3.2142180  72.7510870  75.1609460   3.7172700  63.9949650
  75.6788130   2.9140960  63.9406540  74.7093480   3.6551840  64.8366480
  80.0478960   4.9838980  59.2676950  80.3894660   5.7281210  58.7720270
  79.2191670   5.2970100  59.6301780  81.1895570   5.9387310  71.7870030
  81.2040110   5.0068270  71.5688940  80.4820670   6.0247070  72.4259800
  87.4006780   2.5794650  71.1338610  86.6754970   3.1723430  70.9368000
  87.9282240   2.5718190  70.3351980  87.3519890   6.9769390  60.7850770
  86.7096050   6.3225010  61.0594490  86.9650550   7.3824480  60.0091440
  82.9306370   4.3054820  64.6322460  83.2830190   3.7082950  63.9723830
  82.0468700   3.9799050  64.8030710  79.0169650   5.0652510  62.0392870
  79.7040780   5.6121720  62.4200460  78.2302070   5.6093240  62.0742480
  78.3196860   2.0698540  61.6518230  78.7759640   2.8803790  61.8778420
  77.9685070   1.7521680  62.4836720  80.6229470   7.5804880  68.8810530
  81.2671690   7.7864260  69.5583950  80.9858910   6.8193280  68.4281380
  81.8961550   5.5837230  67.5987980  82.5383780   4.8830390  67.7120150
  82.4210900   6.3635670  67.4184870  85.7417270   5.8685850  57.3227120
  85.5154850   5.1516290  57.9151760  85.3513470   5.6198290  56.4848870
  83.6699170   6.3832130  70.8024040  84.0055410   6.9698820  71.4801960
  82.7499510   6.2524840  71.0321830  71.5233300   9.8952710  58.0971580
  71.8830940  10.4942050  57.4428850  71.3825640  10.4412600  58.8706610
  85.3233520   3.7857790  58.9841280  85.0355220   4.2470480  59.7719160
  86.1185690   3.3255560  59.2525500  71.5075160   8.1607570  72.5713980
  71.6166280   7.2202310  72.4309370  70.8555720   8.4262320  71.9227710
  79.4987750   6.4323460  73.9712100  79.1784620   5.7132700  74.5157790
  78.8246110   7.1078530  74.0448160  77.5401920   7.2783910  58.9145250
  77.5312020   8.0113600  58.2989760  76.6200280   7.0315490  59.0072210
  73.1408560   2.4998800  59.6592010  72.5336510   3.2397700  59.6687310
  73.6157910   2.5898160  58.8330210  80.5261520   7.3412150  57.5770440
  80.6273500   7.1376140  56.6472420  79.6263260   7.0870430  57.7818220
  79.1679630   9.8598470  62.2718110  79.4221130   9.8219860  61.3497480
  78.2192110   9.7331800  62.2646360  75.1513850   2.4609950  57.4080580
  75.9177120   2.3491310  57.9706010  75.2288540   1.7647920  56.7557350
  87.1757790   7.9499200  65.5230880  87.3005210   8.7730370  65.9954690
  88.0423350   7.7389930  65.1755030  74.6475320  10.0430410  65.1948010
  75.3837800   9.4945870  65.4656580  75.0316240  10.9086420  65.0554000
  71.5320800   6.1103980  61.0689520  70.6060580   6.3525120  61.0594930
  71.9977230   6.9378240  60.9474270  73.6533600   9.2276480  74.3833590
  74.4546330   9.5488530  74.7968990  73.1385420   8.8672060  75.1053500
  77.7577630   9.2160720  57.0173580  78.5506240   9.5049550  56.5655370
  77.2381980   8.7852890  56.3386060  82.4898230   5.3356350  74.3309000
  81.8836390   5.3587950  73.5904750  82.1852340   4.6039390  74.8676250
  83.9198600   9.0636640  72.9418410  84.8720350   8.9794660  72.8918650
  83.7726820   9.7278350  73.6152200  86.8107800   8.4430850  58.4410320
  86.5249310   8.0295990  57.6264500  86.6127350   9.3718560  58.3210840
  78.2755030   4.4364130  56.8815930  78.1705670   3.8216480  57.6077310
  78.1079250   3.9130020  56.0978940  78.4269350   3.1220930  72.8605160
  77.6615020   3.6905930  72.7759830  78.6085310   2.8297140  71.9673390
  81.5157760   3.4984160  57.4857920  80.9667860   3.9453460  58.1300660
  82.1377020   2.9933410  58.0095590  85.5692700   4.8526260  73.4180180
  86.3102170   5.1902020  72.9147640  84.8065380   5.0218320  72.8649950
  77.1832880   2.4575080  59.3823220  77.6049300   2.2914950  60.2254610
  77.3083720   1.6475310  58.8878360  84.2438360   2.9041090  71.9535390
  84.6579380   3.0586170  72.8025810  83.3089360   3.0296310  72.1161170
  79.0053590   2.8561570  69.9231320  79.4241700   3.6994300  69.7507560
  78.0862220   2.9933610  69.6938100  76.8561010   9.1614580  71.0389050
  76.3182100   9.8860640  70.7197750  77.1094970   8.6844920  70.2486390
  79.7123220  10.3965790  71.2975700  79.6381920  11.3000930  71.6048070
  78.8102060  10.0777690  71.2697770  80.2608550   9.5624300  58.9202060
  81.1559340   9.9009270  58.9420820  80.2926180   8.8403710  58.2926340
  73.9004710   4.9351350  57.1489060  74.3379580   5.4781020  57.8046640
  74.3852440   4.1098300  57.1585400  71.1150510   7.7240380  64.6009320
  71.4453520   6.8561440  64.3687960  71.5441510   7.9298900  65.4314280
  75.7112430   6.0549390  62.2611290  75.4107970   5.9314360  63.1615200
  75.6049920   5.1957980  61.8527020  71.6040720   8.5910970  67.3390950
  71.1671710   8.7711770  68.1715100  72.1718400   9.3485590  67.1972670
  87.2402900   8.0927970  71.6268260  86.6404890   8.1520530  70.8832180
  87.3696800   7.1532950  71.7565110  88.4804350   5.8345790  56.9637970
  87.6497310   5.9022440  57.4345200  88.6576180   6.7249910  56.6604830
  87.9360810   2.5793270  59.4672170  88.6979720   3.1489920  59.5731860
  87.9515180   2.0120470  60.2380480  88.9420780   3.4343370  64.3114100
  89.3129610   2.6510690  63.9050070  89.5822710   4.1232470  64.1331400
  85.9254540   4.8179950  69.7244420  85.1114380   5.2477110  69.9870210
  86.3328740   5.4298360  69.1113470  87.9879980   2.8727640  56.6244690
  88.2628820   3.7806520  56.4963910  87.7990720   2.8090170  57.5606680
  85.9830590   9.5698550  63.2512690  86.5789660   9.2483120  62.5747110
  86.2408740   9.0970370  64.0425960  73.8893160   6.0016460  73.4003320
  73.8462790   5.6309370  74.2817780  74.0204170   6.9394030  73.5405140
  77.5899190   7.5576050  69.0013040  77.3490550   7.8250610  68.1143560
  78.5301830   7.7281780  69.0563900  88.8503350   9.5770430  69.8023680
  88.3561630   9.9739300  69.0850810  88.2416640   8.9519640  70.1960960
  73.7281190   8.9478710  70.5201100  73.1341510   8.8163410  71.2591140
  73.7205030   8.1116850  70.0543200  86.5342800  10.2193850  67.0810420
  86.0745770  10.9709660  66.7068440  85.9055260   9.5000320  67.0225220
  73.3593420   6.3137090  69.4709140  72.6327480   5.6942380  69.4035090
  73.4202570   6.7077700  68.6007220  76.9638520   8.5282090  66.2558550
  77.4803540   7.9169450  65.7306810  77.6135900   9.0310870  66.7469560
  79.7034020   9.4190580  67.0827530  79.9911830   9.1644880  66.2060540
  80.2157240   8.8667940  67.6733100  71.6423420   9.6311480  62.6805900
  71.4745460   8.9982160  63.3787790  70.7757930   9.8370880  62.3300090
  73.2486120   8.3244710  60.1256040  72.7233740   8.7052740  59.4218000
  73.1730700   8.9495480  60.8465750  79.7706380  10.3406680  74.4495730
  80.6973690  10.1050950  74.4931690  79.7556810  11.1678680  73.9681760
  88.0051440   9.8832250  61.4469980  88.1803630   9.1969990  60.8030900
  87.3073010  10.4079300  61.0546650  75.8479090  10.2727090  59.0005290
  76.5797910   9.9886370  58.4529180  76.1072760  10.0340370  59.8904670
  75.0093880   6.3891820  59.0051620  74.3802760   6.8576920  59.5537450
  75.1241710   5.5441040  59.4397810  86.3383940   9.5676540  74.2736770
  87.1309260   9.0725770  74.0662730  86.6317090  10.2466680  74.8812380
  80.5961640   2.2176500  47.0362090  79.8203740   1.7376940  47.3260660
  81.2474570   1.5382150  46.8618250  74.6127470   2.5296310  47.9137850
  73.7812350   2.2745020  48.3134360  75.2208450   2.6007080  48.6495770
  84.6169070   6.6236690  45.8161220  84.1550600   5.8523930  46.1448390
  85.4294620   6.6502760  46.3213670  74.5928730   6.5636400  48.1095870
  74.8956770   5.6734140  47.9306090  75.3372320   7.1206620  47.8818120
  80.8432380   8.9094700  45.4365210  80.2243820   9.3652200  44.8659650
  81.6984160   9.0646160  45.0354910  80.0370630   4.8933690  47.0432250
  79.9678910   3.9523630  46.8821380  80.7990490   4.9835100  47.6154820
  81.7095730   3.7933940  42.8297120  81.0913000   4.2583390  42.2659840
  82.2218980   4.4861420  43.2466630  76.5727490   3.3209810  49.5080720
  76.2396870   3.9478730  50.1501790  76.7494170   3.8471690  48.7282390
  75.7846590   5.2890610  51.3229900  76.4020590   5.9641690  51.0414350
  74.9239710   5.6978590  51.2317400  71.0778930   4.4790470  40.2036750
  70.7006910   4.9677570  39.4721650  71.3352000   5.1515750  40.8343280
  86.7024180   6.7530020  49.2384540  86.0187700   7.4229130  49.2301210
  87.2418470   6.9510670  48.4729400  84.2382920   8.5974150  47.9529720
  84.2510080   8.1936440  47.0851980  83.6858140   9.3721440  47.8491150
  85.5328340   5.3190370  43.0419890  85.4224670   4.3764700  43.1669310
  85.5296590   5.6806010  43.9282650  83.6368360   3.5003990  49.2812330
  84.0537150   3.2864100  48.4465790  84.3608180   3.7576780  49.8520950
  87.5830460   1.8991210  49.3728570  86.7549090   1.9684300  48.8978700
  88.1780940   2.4845520  48.9044400  85.1045910   2.5075990  42.9017630
  84.4858330   2.1695540  42.2543930  85.0870360   1.8635750  43.6096820
  77.1486960   5.1587990  47.3441320  76.8515250   4.5533460  46.6649100
  78.0986780   5.1965300  47.2330680  85.2372570   8.7319860  51.0064420
  84.7603130   9.5392050  50.8137030  84.5534360   8.0798190  51.1590630
  76.2405390   4.8969680  53.9949120  75.3433920   5.1209650  54.2422520
  76.2658260   5.0204620  53.0460520  75.0676610   1.7683000  52.5706490
  74.9284380   2.6405800  52.9393890  74.1857970   1.4255810  52.4254430
  81.3905990   6.6858870  43.8771620  81.8301900   7.4283200  43.4627010
  81.3292880   6.9285440  44.8010580  76.8656960   7.7104700  54.7791640
  76.8372390   8.1147650  53.9120070  76.7021930   6.7815060  54.6163240
  88.8171780   8.4931800  56.0755810  89.2931500   8.9714690  56.7544890
  89.4378940   8.4249290  55.3501310  71.0195260   3.5380550  48.4877400
  71.0975680   3.6729320  47.5433120  71.6336940   2.8296440  48.6805520
  72.2642890   5.2380740  44.8983580  71.8570970   5.3795330  44.0437180
  73.1555900   4.9540900  44.6954790  88.2205030   5.6844650  53.2355820
  88.3468090   5.4456530  52.3173000  88.2626410   4.8529190  53.7077900
  82.0821770   9.3872650  51.8050630  82.5966440   9.2980660  52.6073060
  81.2390850   9.7332350  52.0978540  84.0576170   9.6727990  41.2334630
  83.8977310   9.3830930  42.1316460  83.8922880   8.8968120  40.6979860
  76.5364550   9.4526520  43.0106250  76.3607030   8.5362060  42.7974050
  75.6820290   9.8113810  43.2504050  83.7602300   7.1815550  39.7932630
  83.0667460   7.1792840  39.1334910  84.5025160   6.7574870  39.3626800
  83.3252230   8.8078260  43.8681120  83.7809180   8.0267640  44.1819740
  83.6644750   9.5185080  44.4122300  71.0754780   4.5794720  51.0271860
  71.2385820   4.1100080  50.2091230  71.5407230   4.0718280  51.6920700
  72.6493760   3.9546150  53.1867670  72.2648550   3.3139820  53.7850630
  72.9605950   4.6582270  53.7562400  75.1172060   4.0492320  41.5827350
  74.3434320   3.5089940  41.4226070  75.8466690   3.5298930  41.2445110
  85.8760040   3.0457680  47.3753740  86.5959160   3.5412970  46.9849850
  85.6741860   2.3675570  46.7307610  81.2578840   3.1166740  53.2622740
  81.1916150   2.1962410  53.0080330  80.6283980   3.2142180  53.9767380
  75.1609460   3.7172700  45.2206160  75.6788130   2.9140960  45.1663050
  74.7093480   3.6551840  46.0622990  80.0478960   4.9838980  40.4933460
  80.3894660   5.7281210  39.9976780  79.2191670   5.2970100  40.8558290
  81.1895570   5.9387310  53.0126540  81.2040110   5.0068270  52.7945450
  80.4820670   6.0247070  53.6516310  87.4006780   2.5794650  52.3595120
  86.6754970   3.1723430  52.1624510  87.9282240   2.5718190  51.5608490
  87.3519890   6.9769390  42.0107280  86.7096050   6.3225010  42.2851000
  86.9650550   7.3824480  41.2347950  82.9306370   4.3054820  45.8578970
  83.2830190   3.7082950  45.1980340  82.0468700   3.9799050  46.0287220
  79.0169650   5.0652510  43.2649380  79.7040780   5.6121720  43.6456970
  78.2302070   5.6093240  43.2998990  78.3196860   2.0698540  42.8774740
  78.7759640   2.8803790  43.1034930  77.9685070   1.7521680  43.7093230
  80.6229470   7.5804880  50.1067040  81.2671690   7.7864260  50.7840460
  80.9858910   6.8193280  49.6537890  81.8961550   5.5837230  48.8244490
  82.5383780   4.8830390  48.9376660  82.4210900   6.3635670  48.6441380
  85.7417270   5.8685850  38.5483630  85.5154850   5.1516290  39.1408270
  85.3513470   5.6198290  37.7105380  83.6699170   6.3832130  52.0280550
  84.0055410   6.9698820  52.7058470  82.7499510   6.2524840  52.2578340
  71.5233300   9.8952710  39.3228090  71.8830940  10.4942050  38.6685360
  71.3825640  10.4412600  40.0963120  85.3233520   3.7857790  40.2097790
  85.0355220   4.2470480  40.9975670  86.1185690   3.3255560  40.4782010
  71.5075160   8.1607570  53.7970490  71.6166280   7.2202310  53.6565880
  70.8555720   8.4262320  53.1484220  79.4987750   6.4323460  55.1968610
  79.1784620   5.7132700  55.7414300  78.8246110   7.1078530  55.2704670
  77.5401920   7.2783910  40.1401760  77.5312020   8.0113600  39.5246270
  76.6200280   7.0315490  40.2328720  73.1408560   2.4998800  40.8848520
  72.5336510   3.2397700  40.8943820  73.6157910   2.5898160  40.0586720
  80.5261520   7.3412150  38.8026950  80.6273500   7.1376140  37.8728930
  79.6263260   7.0870430  39.0074730  79.1679630   9.8598470  43.4974620
  79.4221130   9.8219860  42.5753990  78.2192110   9.7331800  43.4902870
  75.1513850   2.4609950  38.6337090  75.9177120   2.3491310  39.1962520
  75.2288540   1.7647920  37.9813860  87.1757790   7.9499200  46.7487390
  87.3005210   8.7730370  47.2211200  88.0423350   7.7389930  46.4011540
  74.6475320  10.0430410  46.4204520  75.3837800   9.4945870  46.6913090
  75.0316240  10.9086420  46.2810510  71.5320800   6.1103980  42.2946030
  70.6060580   6.3525120  42.2851440  71.9977230   6.9378240  42.1730780
  73.6533600   9.2276480  55.6090100  74.4546330   9.5488530  56.0225500
  73.1385420   8.8672060  56.3310010  77.7577630   9.2160720  38.2430090
  78.5506240   9.5049550  37.7911880  77.2381980   8.7852890  37.5642570
  82.4898230   5.3356350  55.5565510  81.8836390   5.3587950  54.8161260
  82.1852340   4.6039390  56.0932760  83.9198600   9.0636640  54.1674920
  84.8720350   8.9794660  54.1175160  83.7726820   9.7278350  54.8408710
  86.8107800   8.4430850  39.6666830  86.5249310   8.0295990  38.8521010
  86.6127350   9.3718560  39.5467350  78.2755030   4.4364130  38.1072440
  78.1705670   3.8216480  38.8333820  78.1079250   3.9130020  37.3235450
  78.4269350   3.1220930  54.0861670  77.6615020   3.6905930  54.0016340
  78.6085310   2.8297140  53.1929900  81.5157760   3.4984160  38.7114430
  80.9667860   3.9453460  39.3557170  82.1377020   2.9933410  39.2352100
  85.5692700   4.8526260  54.6436690  86.3102170   5.1902020  54.1404150
  84.8065380   5.0218320  54.0906460  77.1832880   2.4575080  40.6079730
  77.6049300   2.2914950  41.4511120  77.3083720   1.6475310  40.1134870
  84.2438360   2.9041090  53.1791900  84.6579380   3.0586170  54.0282320
  83.3089360   3.0296310  53.3417680  79.0053590   2.8561570  51.1487830
  79.4241700   3.6994300  50.9764070  78.0862220   2.9933610  50.9194610
  76.8561010   9.1614580  52.2645560  76.3182100   9.8860640  51.9454260
  77.1094970   8.6844920  51.4742900  79.7123220  10.3965790  52.5232210
  79.6381920  11.3000930  52.8304580  78.8102060  10.0777690  52.4954280
  80.2608550   9.5624300  40.1458570  81.1559340   9.9009270  40.1677330
  80.2926180   8.8403710  39.5182850  73.9004710   4.9351350  38.3745570
  74.3379580   5.4781020  39.0303150  74.3852440   4.1098300  38.3841910
  71.1150510   7.7240380  45.8265830  71.4453520   6.8561440  45.5944470
  71.5441510   7.9298900  46.6570790  75.7112430   6.0549390  43.4867800
  75.4107970   5.9314360  44.3871710  75.6049920   5.1957980  43.0783530
  71.6040720   8.5910970  48.5647460  71.1671710   8.7711770  49.3971610
  72.1718400   9.3485590  48.4229180  87.2402900   8.0927970  52.8524770
  86.6404890   8.1520530  52.1088690  87.3696800   7.1532950  52.9821620
  88.4804350   5.8345790  38.1894480  87.6497310   5.9022440  38.6601710
  88.6576180   6.7249910  37.8861340  87.9360810   2.5793270  40.6928680
  88.6979720   3.1489920  40.7988370  87.9515180   2.0120470  41.4636990
  88.9420780   3.4343370  45.5370610  89.3129610   2.6510690  45.1306580
  89.5822710   4.1232470  45.3587910  85.9254540   4.8179950  50.9500930
  85.1114380   5.2477110  51.2126720  86.3328740   5.4298360  50.3369980
  87.9879980   2.8727640  37.8501200  88.2628820   3.7806520  37.7220420
  87.7990720   2.8090170  38.7863190  85.9830590   9.5698550  44.4769200
  86.5789660   9.2483120  43.8003620  86.2408740   9.0970370  45.2682470
  73.8893160   6.0016460  54.6259830  73.8462790   5.6309370  55.5074290
  74.0204170   6.9394030  54.7661650  77.5899190   7.5576050  50.2269550
  77.3490550   7.8250610  49.3400070  78.5301830   7.7281780  50.2820410
  88.8503350   9.5770430  51.0280190  88.3561630   9.9739300  50.3107320
  88.2416640   8.9519640  51.4217470  73.7281190   8.9478710  51.7457610
  73.1341510   8.8163410  52.4847650  73.7205030   8.1116850  51.2799710
  86.5342800  10.2193850  48.3066930  86.0745770  10.9709660  47.9324950
  85.9055260   9.5000320  48.2481730  73.3593420   6.3137090  50.6965650
  72.6327480   5.6942380  50.6291600  73.4202570   6.7077700  49.8263730
  76.9638520   8.5282090  47.4815060  77.4803540   7.9169450  46.9563320
  77.6135900   9.0310870  47.9726070  79.7034020   9.4190580  48.3084040
  79.9911830   9.1644880  47.4317050  80.2157240   8.8667940  48.8989610
  71.6423420   9.6311480  43.9062410  71.4745460   8.9982160  44.6044300
  70.7757930   9.8370880  43.5556600  73.2486120   8.3244710  41.3512550
  72.7233740   8.7052740  40.6474510  73.1730700   8.9495480  42.0722260
  79.7706380  10.3406680  55.6752240  80.6973690  10.1050950  55.7188200
  79.7556810  11.1678680  55.1938270  88.0051440   9.8832250  42.6726490
  88.1803630   9.1969990  42.0287410  87.3073010  10.4079300  42.2803160
  75.8479090  10.2727090  40.2261800  76.5797910   9.9886370  39.6785690
  76.1072760  10.0340370  41.1161180  75.0093880   6.3891820  40.2308130
  74.3802760   6.8576920  40.7793960  75.1241710   5.5441040  40.6654320
  86.3383940   9.5676540  55.4993280  87.1309260   9.0725770  55.2919240
  86.6317090  10.2466680  56.1068890  80.5961640   2.2176500  28.2618600
  79.8203740   1.7376940  28.5517170  81.2474570   1.5382150  28.0874760
  74.6127470   2.5296310  29.1394360  73.7812350   2.2745020  29.5390870
  75.2208450   2.6007080  29.8752280  84.6169070   6.6236690  27.0417730
  84.1550600   5.8523930  27.3704900  85.4294620   6.6502760  27.5470180
  74.5928730   6.5636400  29.3352380  74.8956770   5.6734140  29.1562600
  75.3372320   7.1206620  29.1074630  80.8432380   8.9094700  26.6621720
  80.2243820   9.3652200  26.0916160  81.6984160   9.0646160  26.2611420
  80.0370630   4.8933690  28.2688760  79.9678910   3.9523630  28.1077890
  80.7990490   4.9835100  28.8411330  81.7095730   3.7933940  24.0553630
  81.0913000   4.2583390  23.4916350  82.2218980   4.4861420  24.4723140
  76.5727490   3.3209810  30.7337230  76.2396870   3.9478730  31.3758300
  76.7494170   3.8471690  29.9538900  75.7846590   5.2890610  32.5486410
  76.4020590   5.9641690  32.2670860  74.9239710   5.6978590  32.4573910
  71.0778930   4.4790470  21.4293260  70.7006910   4.9677570  20.6978160
  71.3352000   5.1515750  22.0599790  86.7024180   6.7530020  30.4641050
  86.0187700   7.4229130  30.4557720  87.2418470   6.9510670  29.6985910
  84.2382920   8.5974150  29.1786230  84.2510080   8.1936440  28.3108490
  83.6858140   9.3721440  29.0747660  85.5328340   5.3190370  24.2676400
  85.4224670   4.3764700  24.3925820  85.5296590   5.6806010  25.1539160
  83.6368360   3.5003990  30.5068840  84.0537150   3.2864100  29.6722300
  84.3608180   3.7576780  31.0777460  87.5830460   1.8991210  30.5985080
  86.7549090   1.9684300  30.1235210  88.1780940   2.4845520  30.1300910
  85.1045910   2.5075990  24.1274140  84.4858330   2.1695540  23.4800440
  85.0870360   1.8635750  24.8353330  77.1486960   5.1587990  28.5697830
  76.8515250   4.5533460  27.8905610  78.0986780   5.1965300  28.4587190
  85.2372570   8.7319860  32.2320930  84.7603130   9.5392050  32.0393540
  84.5534360   8.0798190  32.3847140  76.2405390   4.8969680  35.2205630
  75.3433920   5.1209650  35.4679030  76.2658260   5.0204620  34.2717030
  75.0676610   1.7683000  33.7963000  74.9284380   2.6405800  34.1650400
  74.1857970   1.4255810  33.6510940  81.3905990   6.6858870  25.1028130
  81.8301900   7.4283200  24.6883520  81.3292880   6.9285440  26.0267090
  76.8656960   7.7104700  36.0048150  76.8372390   8.1147650  35.1376580
  76.7021930   6.7815060  35.8419750  88.8171780   8.4931800  37.3012320
  89.2931500   8.9714690  37.9801400  89.4378940   8.4249290  36.5757820
  71.0195260   3.5380550  29.7133910  71.0975680   3.6729320  28.7689630
  71.6336940   2.8296440  29.9062030  72.2642890   5.2380740  26.1240090
  71.8570970   5.3795330  25.2693690  73.1555900   4.9540900  25.9211300
  88.2205030   5.6844650  34.4612330  88.3468090   5.4456530  33.5429510
  88.2626410   4.8529190  34.9334410  82.0821770   9.3872650  33.0307140
  82.5966440   9.2980660  33.8329570  81.2390850   9.7332350  33.3235050
  84.0576170   9.6727990  22.4591140  83.8977310   9.3830930  23.3572970
  83.8922880   8.8968120  21.9236370  76.5364550   9.4526520  24.2362760
  76.3607030   8.5362060  24.0230560  75.6820290   9.8113810  24.4760560
  83.7602300   7.1815550  21.0189140  83.0667460   7.1792840  20.3591420
  84.5025160   6.7574870  20.5883310  83.3252230   8.8078260  25.0937630
  83.7809180   8.0267640  25.4076250  83.6644750   9.5185080  25.6378810
  71.0754780   4.5794720  32.2528370  71.2385820   4.1100080  31.4347740
  71.5407230   4.0718280  32.9177210  72.6493760   3.9546150  34.4124180
  72.2648550   3.3139820  35.0107140  72.9605950   4.6582270  34.9818910
  75.1172060   4.0492320  22.8083860  74.3434320   3.5089940  22.6482580
  75.8466690   3.5298930  22.4701620  85.8760040   3.0457680  28.6010250
  86.5959160   3.5412970  28.2106360  85.6741860   2.3675570  27.9564120
  81.2578840   3.1166740  34.4879250  81.1916150   2.1962410  34.2336840
  80.6283980   3.2142180  35.2023890  75.1609460   3.7172700  26.4462670
  75.6788130   2.9140960  26.3919560  74.7093480   3.6551840  27.2879500
  80.0478960   4.9838980  21.7189970  80.3894660   5.7281210  21.2233290
  79.2191670   5.2970100  22.0814800  81.1895570   5.9387310  34.2383050
  81.2040110   5.0068270  34.0201960  80.4820670   6.0247070  34.8772820
  87.4006780   2.5794650  33.5851630  86.6754970   3.1723430  33.3881020
  87.9282240   2.5718190  32.7865000  87.3519890   6.9769390  23.2363790
  86.7096050   6.3225010  23.5107510  86.9650550   7.3824480  22.4604460
  82.9306370   4.3054820  27.0835480  83.2830190   3.7082950  26.4236850
  82.0468700   3.9799050  27.2543730  79.0169650   5.0652510  24.4905890
  79.7040780   5.6121720  24.8713480  78.2302070   5.6093240  24.5255500
  78.3196860   2.0698540  24.1031250  78.7759640   2.8803790  24.3291440
  77.9685070   1.7521680  24.9349740  80.6229470   7.5804880  31.3323550
  81.2671690   7.7864260  32.0096970  80.9858910   6.8193280  30.8794400
  81.8961550   5.5837230  30.0501000  82.5383780   4.8830390  30.1633170
  82.4210900   6.3635670  29.8697890  85.7417270   5.8685850  19.7740140
  85.5154850   5.1516290  20.3664780  85.3513470   5.6198290  18.9361890
  83.6699170   6.3832130  33.2537060  84.0055410   6.9698820  33.9314980
  82.7499510   6.2524840  33.4834850  71.5233300   9.8952710  20.5484600
  71.8830940  10.4942050  19.8941870  71.3825640  10.4412600  21.3219630
  85.3233520   3.7857790  21.4354300  85.0355220   4.2470480  22.2232180
  86.1185690   3.3255560  21.7038520  71.5075160   8.1607570  35.0227000
  71.6166280   7.2202310  34.8822390  70.8555720   8.4262320  34.3740730
  79.4987750   6.4323460  36.4225120  79.1784620   5.7132700  36.9670810
  78.8246110   7.1078530  36.4961180  77.5401920   7.2783910  21.3658270
  77.5312020   8.0113600  20.7502780  76.6200280   7.0315490  21.4585230
  73.1408560   2.4998800  22.1105030  72.5336510   3.2397700  22.1200330
  73.6157910   2.5898160  21.2843230  80.5261520   7.3412150  20.0283460
  80.6273500   7.1376140  19.0985440  79.6263260   7.0870430  20.2331240
  79.1679630   9.8598470  24.7231130  79.4221130   9.8219860  23.8010500
  78.2192110   9.7331800  24.7159380  75.1513850   2.4609950  19.8593600
  75.9177120   2.3491310  20.4219030  75.2288540   1.7647920  19.2070370
  87.1757790   7.9499200  27.9743900  87.3005210   8.7730370  28.4467710
  88.0423350   7.7389930  27.6268050  74.6475320  10.0430410  27.6461030
  75.3837800   9.4945870  27.9169600  75.0316240  10.9086420  27.5067020
  71.5320800   6.1103980  23.5202540  70.6060580   6.3525120  23.5107950
  71.9977230   6.9378240  23.3987290  73.6533600   9.2276480  36.8346610
  74.4546330   9.5488530  37.2482010  73.1385420   8.8672060  37.5566520
  77.7577630   9.2160720  19.4686600  78.5506240   9.5049550  19.0168390
  77.2381980   8.7852890  18.7899080  82.4898230   5.3356350  36.7822020
  81.8836390   5.3587950  36.0417770  82.1852340   4.6039390  37.3189270
  83.9198600   9.0636640  35.3931430  84.8720350   8.9794660  35.3431670
  83.7726820   9.7278350  36.0665220  86.8107800   8.4430850  20.8923340
  86.5249310   8.0295990  20.0777520  86.6127350   9.3718560  20.7723860
  78.2755030   4.4364130  19.3328950  78.1705670   3.8216480  20.0590330
  78.1079250   3.9130020  18.5491960  78.4269350   3.1220930  35.3118180
  77.6615020   3.6905930  35.2272850  78.6085310   2.8297140  34.4186410
  81.5157760   3.4984160  19.9370940  80.9667860   3.9453460  20.5813680
  82.1377020   2.9933410  20.4608610  85.5692700   4.8526260  35.8693200
  86.3102170   5.1902020  35.3660660  84.8065380   5.0218320  35.3162970
  77.1832880   2.4575080  21.8336240  77.6049300   2.2914950  22.6767630
  77.3083720   1.6475310  21.3391380  84.2438360   2.9041090  34.4048410
  84.6579380   3.0586170  35.2538830  83.3089360   3.0296310  34.5674190
  79.0053590   2.8561570  32.3744340  79.4241700   3.6994300  32.2020580
  78.0862220   2.9933610  32.1451120  76.8561010   9.1614580  33.4902070
  76.3182100   9.8860640  33.1710770  77.1094970   8.6844920  32.6999410
  79.7123220  10.3965790  33.7488720  79.6381920  11.3000930  34.0561090
  78.8102060  10.0777690  33.7210790  80.2608550   9.5624300  21.3715080
  81.1559340   9.9009270  21.3933840  80.2926180   8.8403710  20.7439360
  73.9004710   4.9351350  19.6002080  74.3379580   5.4781020  20.2559660
  74.3852440   4.1098300  19.6098420  71.1150510   7.7240380  27.0522340
  71.4453520   6.8561440  26.8200980  71.5441510   7.9298900  27.8827300
  75.7112430   6.0549390  24.7124310  75.4107970   5.9314360  25.6128220
  75.6049920   5.1957980  24.3040040  71.6040720   8.5910970  29.7903970
  71.1671710   8.7711770  30.6228120  72.1718400   9.3485590  29.6485690
  87.2402900   8.0927970  34.0781280  86.6404890   8.1520530  33.3345200
  87.3696800   7.1532950  34.2078130  88.4804350   5.8345790  19.4150990
  87.6497310   5.9022440  19.8858220  88.6576180   6.7249910  19.1117850
  87.9360810   2.5793270  21.9185190  88.6979720   3.1489920  22.0244880
  87.9515180   2.0120470  22.6893500  88.9420780   3.4343370  26.7627120
  89.3129610   2.6510690  26.3563090  89.5822710   4.1232470  26.5844420
  85.9254540   4.8179950  32.1757440  85.1114380   5.2477110  32.4383230
  86.3328740   5.4298360  31.5626490  87.9879980   2.8727640  19.0757710
  88.2628820   3.7806520  18.9476930  87.7990720   2.8090170  20.0119700
  85.9830590   9.5698550  25.7025710  86.5789660   9.2483120  25.0260130
  86.2408740   9.0970370  26.4938980  73.8893160   6.0016460  35.8516340
  73.8462790   5.6309370  36.7330800  74.0204170   6.9394030  35.9918160
  77.5899190   7.5576050  31.4526060  77.3490550   7.8250610  30.5656580
  78.5301830   7.7281780  31.5076920  88.8503350   9.5770430  32.2536700
  88.3561630   9.9739300  31.5363830  88.2416640   8.9519640  32.6473980
  73.7281190   8.9478710  32.9714120  73.1341510   8.8163410  33.7104160
  73.7205030   8.1116850  32.5056220  86.5342800  10.2193850  29.5323440
  86.0745770  10.9709660  29.1581460  85.9055260   9.5000320  29.4738240
  73.3593420   6.3137090  31.9222160  72.6327480   5.6942380  31.8548110
  73.4202570   6.7077700  31.0520240  76.9638520   8.5282090  28.7071570
  77.4803540   7.9169450  28.1819830  77.6135900   9.0310870  29.1982580
  79.7034020   9.4190580  29.5340550  79.9911830   9.1644880  28.6573560
  80.2157240   8.8667940  30.1246120  71.6423420   9.6311480  25.1318920
  71.4745460   8.9982160  25.8300810  70.7757930   9.8370880  24.7813110
  73.2486120   8.3244710  22.5769060  72.7233740   8.7052740  21.8731020
  73.1730700   8.9495480  23.2978770  79.7706380  10.3406680  36.9008750
  80.6973690  10.1050950  36.9444710  79.7556810  11.1678680  36.4194780
  88.0051440   9.8832250  23.8983000  88.1803630   9.1969990  23.2543920
  87.3073010  10.4079300  23.5059670  75.8479090  10.2727090  21.4518310
  76.5797910   9.9886370  20.9042200  76.1072760  10.0340370  22.3417690
  75.0093880   6.3891820  21.4564640  74.3802760   6.8576920  22.0050470
  75.1241710   5.5441040  21.8910830  86.3383940   9.5676540  36.7249790
  87.1309260   9.0725770  36.5175750  86.6317090  10.2466680  37.3325400
  80.5961640   2.2176500   9.4875110  79.8203740   1.7376940   9.7773680
  81.2474570   1.5382150   9.3131270  74.6127470   2.5296310  10.3650870
  73.7812350   2.2745020  10.7647380  75.2208450   2.6007080  11.1008790
  84.6169070   6.6236690   8.2674240  84.1550600   5.8523930   8.5961410
  85.4294620   6.6502760   8.7726690  74.5928730   6.5636400  10.5608890
  74.8956770   5.6734140  10.3819110  75.3372320   7.1206620  10.3331140
  80.8432380   8.9094700   7.8878230  80.2243820   9.3652200   7.3172670
  81.6984160   9.0646160   7.4867930  80.0370630   4.8933690   9.4945270
  79.9678910   3.9523630   9.3334400  80.7990490   4.9835100  10.0667840
  81.7095730   3.7933940   5.2810140  81.0913000   4.2583390   4.7172860
  82.2218980   4.4861420   5.6979650  76.5727490   3.3209810  11.9593740
  76.2396870   3.9478730  12.6014810  76.7494170   3.8471690  11.1795410
  75.7846590   5.2890610  13.7742920  76.4020590   5.9641690  13.4927370
  74.9239710   5.6978590  13.6830420  71.0778930   4.4790470   2.6549770
  70.7006910   4.9677570   1.9234670  71.3352000   5.1515750   3.2856300
  86.7024180   6.7530020  11.6897560  86.0187700   7.4229130  11.6814230
  87.2418470   6.9510670  10.9242420  84.2382920   8.5974150  10.4042740
  84.2510080   8.1936440   9.5365000  83.6858140   9.3721440  10.3004170
  85.5328340   5.3190370   5.4932910  85.4224670   4.3764700   5.6182330
  85.5296590   5.6806010   6.3795670  83.6368360   3.5003990  11.7325350
  84.0537150   3.2864100  10.8978810  84.3608180   3.7576780  12.3033970
  87.5830460   1.8991210  11.8241590  86.7549090   1.9684300  11.3491720
  88.1780940   2.4845520  11.3557420  85.1045910   2.5075990   5.3530650
  84.4858330   2.1695540   4.7056950  85.0870360   1.8635750   6.0609840
  77.1486960   5.1587990   9.7954340  76.8515250   4.5533460   9.1162120
  78.0986780   5.1965300   9.6843700  85.2372570   8.7319860  13.4577440
  84.7603130   9.5392050  13.2650050  84.5534360   8.0798190  13.6103650
  76.2405390   4.8969680  16.4462140  75.3433920   5.1209650  16.6935540
  76.2658260   5.0204620  15.4973540  75.0676610   1.7683000  15.0219510
  74.9284380   2.6405800  15.3906910  74.1857970   1.4255810  14.8767450
  81.3905990   6.6858870   6.3284640  81.8301900   7.4283200   5.9140030
  81.3292880   6.9285440   7.2523600  76.8656960   7.7104700  17.2304660
  76.8372390   8.1147650  16.3633090  76.7021930   6.7815060  17.0676260
  88.8171780   8.4931800  18.5268830  89.2931500   8.9714690  19.2057910
  89.4378940   8.4249290  17.8014330  71.0195260   3.5380550  10.9390420
  71.0975680   3.6729320   9.9946140  71.6336940   2.8296440  11.1318540
  72.2642890   5.2380740   7.3496600  71.8570970   5.3795330   6.4950200
  73.1555900   4.9540900   7.1467810  88.2205030   5.6844650  15.6868840
  88.3468090   5.4456530  14.7686020  88.2626410   4.8529190  16.1590920
  82.0821770   9.3872650  14.2563650  82.5966440   9.2980660  15.0586080
  81.2390850   9.7332350  14.5491560  84.0576170   9.6727990   3.6847650
  83.8977310   9.3830930   4.5829480  83.8922880   8.8968120   3.1492880
  76.5364550   9.4526520   5.4619270  76.3607030   8.5362060   5.2487070
  75.6820290   9.8113810   5.7017070  83.7602300   7.1815550   2.2445650
  83.0667460   7.1792840   1.5847930  84.5025160   6.7574870   1.8139820
  83.3252230   8.8078260   6.3194140  83.7809180   8.0267640   6.6332760
  83.6644750   9.5185080   6.8635320  71.0754780   4.5794720  13.4784880
  71.2385820   4.1100080  12.6604250  71.5407230   4.0718280  14.1433720
  72.6493760   3.9546150  15.6380690  72.2648550   3.3139820  16.2363650
  72.9605950   4.6582270  16.2075420  75.1172060   4.0492320   4.0340370
  74.3434320   3.5089940   3.8739090  75.8466690   3.5298930   3.6958130
  85.8760040   3.0457680   9.8266760  86.5959160   3.5412970   9.4362870
  85.6741860   2.3675570   9.1820630  81.2578840   3.1166740  15.7135760
  81.1916150   2.1962410  15.4593350  80.6283980   3.2142180  16.4280400
  75.1609460   3.7172700   7.6719180  75.6788130   2.9140960   7.6176070
  74.7093480   3.6551840   8.5136010  80.0478960   4.9838980   2.9446480
  80.3894660   5.7281210   2.4489800  79.2191670   5.2970100   3.3071310
  81.1895570   5.9387310  15.4639560  81.2040110   5.0068270  15.2458470
  80.4820670   6.0247070  16.1029330  87.4006780   2.5794650  14.8108140
  86.6754970   3.1723430  14.6137530  87.9282240   2.5718190  14.0121510
  87.3519890   6.9769390   4.4620300  86.7096050   6.3225010   4.7364020
  86.9650550   7.3824480   3.6860970  82.9306370   4.3054820   8.3091990
  83.2830190   3.7082950   7.6493360  82.0468700   3.9799050   8.4800240
  79.0169650   5.0652510   5.7162400  79.7040780   5.6121720   6.0969990
  78.2302070   5.6093240   5.7512010  78.3196860   2.0698540   5.3287760
  78.7759640   2.8803790   5.5547950  77.9685070   1.7521680   6.1606250
  80.6229470   7.5804880  12.5580060  81.2671690   7.7864260  13.2353480
  80.9858910   6.8193280  12.1050910  81.8961550   5.5837230  11.2757510
  82.5383780   4.8830390  11.3889680  82.4210900   6.3635670  11.0954400
  83.6699170   6.3832130  14.4793570  84.0055410   6.9698820  15.1571490
  82.7499510   6.2524840  14.7091360  85.3233520   3.7857790   2.6610810
  85.0355220   4.2470480   3.4488690  86.1185690   3.3255560   2.9295030
  71.5075160   8.1607570  16.2483510  71.6166280   7.2202310  16.1078900
  70.8555720   8.4262320  15.5997240  79.4987750   6.4323460  17.6481630
  79.1784620   5.7132700  18.1927320  78.8246110   7.1078530  17.7217690
  77.5401920   7.2783910   2.5914780  77.5312020   8.0113600   1.9759290
  76.6200280   7.0315490   2.6841740  73.1408560   2.4998800   3.3361540
  72.5336510   3.2397700   3.3456840  73.6157910   2.5898160   2.5099740
  79.1679630   9.8598470   5.9487640  79.4221130   9.8219860   5.0267010
  78.2192110   9.7331800   5.9415890  87.1757790   7.9499200   9.2000410
  87.3005210   8.7730370   9.6724220  88.0423350   7.7389930   8.8524560
  74.6475320  10.0430410   8.8717540  75.3837800   9.4945870   9.1426110
  75.0316240  10.9086420   8.7323530  71.5320800   6.1103980   4.7459050
  70.6060580   6.3525120   4.7364460  71.9977230   6.9378240   4.6243800
  73.6533600   9.2276480  18.0603120  74.4546330   9.5488530  18.4738520
  73.1385420   8.8672060  18.7823030  82.4898230   5.3356350  18.0078530
  81.8836390   5.3587950  17.2674280  82.1852340   4.6039390  18.5445780
  83.9198600   9.0636640  16.6187940  84.8720350   8.9794660  16.5688180
  83.7726820   9.7278350  17.2921730  86.8107800   8.4430850   2.1179850
  86.5249310   8.0295990   1.3034030  86.6127350   9.3718560   1.9980370
  78.4269350   3.1220930  16.5374690  77.6615020   3.6905930  16.4529360
  78.6085310   2.8297140  15.6442920  85.5692700   4.8526260  17.0949710
  86.3102170   5.1902020  16.5917170  84.8065380   5.0218320  16.5419480
  77.1832880   2.4575080   3.0592750  77.6049300   2.2914950   3.9024140
  77.3083720   1.6475310   2.5647890  84.2438360   2.9041090  15.6304920
  84.6579380   3.0586170  16.4795340  83.3089360   3.0296310  15.7930700
  79.0053590   2.8561570  13.6000850  79.4241700   3.6994300  13.4277090
  78.0862220   2.9933610  13.3707630  76.8561010   9.1614580  14.7158580
  76.3182100   9.8860640  14.3967280  77.1094970   8.6844920  13.9255920
  79.7123220  10.3965790  14.9745230  79.6381920  11.3000930  15.2817600
  78.8102060  10.0777690  14.9467300  80.2608550   9.5624300   2.5971590
  81.1559340   9.9009270   2.6190350  80.2926180   8.8403710   1.9695870
  71.1150510   7.7240380   8.2778850  71.4453520   6.8561440   8.0457490
  71.5441510   7.9298900   9.1083810  75.7112430   6.0549390   5.9380820
  75.4107970   5.9314360   6.8384730  75.6049920   5.1957980   5.5296550
  71.6040720   8.5910970  11.0160480  71.1671710   8.7711770  11.8484630
  72.1718400   9.3485590  10.8742200  87.2402900   8.0927970  15.3037790
  86.6404890   8.1520530  14.5601710  87.3696800   7.1532950  15.4334640
  87.9360810   2.5793270   3.1441700  88.6979720   3.1489920   3.2501390
  87.9515180   2.0120470   3.9150010  88.9420780   3.4343370   7.9883630
  89.3129610   2.6510690   7.5819600  89.5822710   4.1232470   7.8100930
  85.9254540   4.8179950  13.4013950  85.1114380   5.2477110  13.6639740
  86.3328740   5.4298360  12.7883000  85.9830590   9.5698550   6.9282220
  86.5789660   9.2483120   6.2516640  86.2408740   9.0970370   7.7195490
  73.8893160   6.0016460  17.0772850  73.8462790   5.6309370  17.9587310
  74.0204170   6.9394030  17.2174670  77.5899190   7.5576050  12.6782570
  77.3490550   7.8250610  11.7913090  78.5301830   7.7281780  12.7333430
  88.8503350   9.5770430  13.4793210  88.3561630   9.9739300  12.7620340
  88.2416640   8.9519640  13.8730490  73.7281190   8.9478710  14.1970630
  73.1341510   8.8163410  14.9360670  73.7205030   8.1116850  13.7312730
  86.5342800  10.2193850  10.7579950  86.0745770  10.9709660  10.3837970
  85.9055260   9.5000320  10.6994750  73.3593420   6.3137090  13.1478670
  72.6327480   5.6942380  13.0804620  73.4202570   6.7077700  12.2776750
  76.9638520   8.5282090   9.9328080  77.4803540   7.9169450   9.4076340
  77.6135900   9.0310870  10.4239090  79.7034020   9.4190580  10.7597060
  79.9911830   9.1644880   9.8830070  80.2157240   8.8667940  11.3502630
  71.6423420   9.6311480   6.3575430  71.4745460   8.9982160   7.0557320
  70.7757930   9.8370880   6.0069620  73.2486120   8.3244710   3.8025570
  72.7233740   8.7052740   3.0987530  73.1730700   8.9495480   4.5235280
  79.7706380  10.3406680  18.1265260  80.6973690  10.1050950  18.1701220
  79.7556810  11.1678680  17.6451290  88.0051440   9.8832250   5.1239510
  88.1803630   9.1969990   4.4800430  87.3073010  10.4079300   4.7316180
  75.8479090  10.2727090   2.6774820  76.5797910   9.9886370   2.1298710
  76.1072760  10.0340370   3.5674200  75.0093880   6.3891820   2.6821150
  74.3802760   6.8576920   3.2306980  75.1241710   5.5441040   3.1167340
  86.3383940   9.5676540  17.9506300  87.1309260   9.0725770  17.7432260
  86.6317090  10.2466680  18.5581910  63.6900110 113.0858420 101.4783290
  63.6094160 112.1713030 101.2075000  63.2764530 113.5825490 100.7723000
  54.2475930 110.1359140  98.0210710  53.3592630 110.4775110  97.9190590
  54.5317120 109.9359460  97.1291540  52.2108940 112.7364790 103.9050410
  52.7825050 111.9686990 103.9054050  52.2110480 113.0353550 102.9957020
  53.4533810 108.1449150 105.6919340  53.2736650 107.2474900 105.9722100
  53.0513890 108.6921020 106.3666290  62.2932310 110.3465010 103.5931650
  62.6697130 109.4736890 103.4805320  62.1951820 110.6823710 102.7022090
  56.4237320 108.7190640  99.0549090  56.5304070 109.6194370  99.3617850
  55.5129680 108.6708610  98.7643740  66.0756430 107.8415450 100.5259990
  66.8966050 107.3512020 100.5685470  66.1090510 108.4313110 101.2791830
  54.0720480 110.6409650 104.3001680  54.7530590 110.9048020 104.9189080
  53.7568530 109.8010520 104.6339690  58.2645050 111.6877010 103.3874270
  58.7723270 112.1857980 104.0279290  58.7958290 110.9112210 103.2113630
  70.3655980 109.8582200 107.0903620  69.6608150 110.2463910 106.5718730
  70.6313900 110.5532490 107.6924550  56.5481150 106.3275570 107.6537690
  56.5499590 106.8447960 106.8483590  55.7185460 105.8505750 107.6307620
  66.3117910 109.7815830 103.2987530  65.6073480 110.0700720 103.8790640
  66.6730070 110.5915940 102.9387090  56.2296480 108.0385530 105.6608140
  56.5713290 108.8827580 105.3662010  55.2912290 108.1869270 105.7773480
  69.3804830 109.2270620 103.6896740  68.4329740 109.2609600 103.8212170
  69.7054820 110.0409570 104.0746100  59.9124370 105.5267800 101.9852730
  60.2199350 104.9714690 101.2688230  58.9825070 105.6612260 101.8025720
  62.2874210 109.8633630  95.7180010  61.3477880 110.0247590  95.8032470
  62.6057470 110.5819310  95.1716000  65.7728980 111.3321470 106.6413910
  65.3600160 112.1575180 106.8953900  65.0404930 110.7466510 106.4490270
  56.6190390 110.8924580 105.2831620  57.1704980 111.0019920 104.5084870
  57.1333900 111.2662180 105.9986850  68.0884260 105.6466550  94.5461890
  67.7756920 105.7393380  95.4460960  68.8496730 106.2247580  94.4959320
  54.6066400 113.0126350  99.0039230  54.4864000 113.7388440  98.3920500
  54.2967290 112.2429260  98.5267140  69.2985550 110.3838050 110.5236030
  68.6829820 110.8917720 109.9951490  68.9781970 109.4836380 110.4661970
  57.0730060 106.3561420 102.3862900  56.6298210 107.1370960 102.0547420
  57.6315050 106.6791310 103.0933840  61.3599870 109.2229940 107.9898220
  60.8979240 109.4312960 108.8018160  60.9577980 108.4089290 107.6868890
  66.3604380 110.4438890 109.1194880  65.5097970 110.1444640 109.4403950
  66.2006170 110.6880900 108.2078700  60.1888880 105.9772120  97.2668730
  59.5643060 105.9731990  97.9922040  60.1019000 105.1103080  96.8704700
  59.1105960 106.9008750 104.2452500  59.4078290 107.8071580 104.1644520
  59.6591520 106.4127530 103.6312070  56.8644280 111.4794990 100.1144150
  56.6385200 111.2632160 101.0190770  56.0836810 111.9123450  99.7690120
  64.0942040 111.4858360  98.7134800  63.4950930 112.2094160  98.5298420
  64.6421650 111.4235140  97.9311250  59.3043490 112.3780570 110.7804420
  59.2087090 111.4375300 110.6304820  60.1475470 112.5995640 110.3852490
  62.7006910 110.1221900 100.7438080  63.0936480 110.4394100  99.9306770
  63.0623760 109.2433780 100.8582600  54.4354030 108.7894240 108.9338200
  54.0417420 109.6369450 109.1410980  53.7472430 108.1520610 109.1246840
  51.7371080 106.7122700 102.9668280  51.4484130 107.2825560 103.6793260
  52.4816840 106.2327150 103.3299510  51.9241310 110.6542820  94.1771000
  51.8415980 111.5973580  94.3185990  51.5724370 110.5117730  93.2983350
  63.2862050 112.7127650 104.8388860  62.5543170 113.2214460 105.1878960
  62.8886390 111.8957630 104.5377640  59.7239440 109.3881850 103.2441350
  59.7275500 108.9471800 102.3945890  60.6190560 109.7099180 103.3513170
  55.5741820 109.2708340 102.2035560  55.2341870 109.7483570 102.9602610
  54.8119140 108.8173460 101.8436660  59.7859590 110.3893930  96.2348110
  59.9072410 110.3480410  97.1833930  59.4008100 111.2518080  96.0794840
  63.7487960 108.1661330 104.2511800  63.7660700 108.6169980 105.0953650
  63.5003540 107.2666970 104.4645240  58.7981090 112.6995070  95.6331410
  58.2297990 112.2513320  95.0067320  59.5070090 113.0587850  95.0996560
  67.1758710 105.5793510 110.0898180  67.5004480 104.8483170 110.6156160
  67.2115220 105.2607150 109.1879170  52.8887900 108.1927320 101.1200230
  52.6034820 107.8282990 101.9578850  52.8266760 107.4607780 100.5063370
  57.8146780 112.4892270 107.3090970  57.5103850 113.3684250 107.5341330
  58.7693240 112.5492060 107.3448410  62.5626490 107.0856580  97.8413600
  61.7491100 106.5869750  97.7658910  62.3688440 107.9254830  97.4249950
  65.2774880 111.4576230  96.1375760  66.1654500 111.7693460  95.9627100
  65.2479970 110.5848480  95.7456340  67.5489150 112.7688070  95.6055620
  67.4652870 113.2002290  94.7552060  68.2683340 113.2286420  96.0382440
  55.4465150 105.0597130  99.6727730  55.3179780 105.0515030 100.6212650
  54.6227170 105.3980220  99.3218740  52.4459080 106.8188250 109.1334430
  51.7317600 107.0185170 109.7387040  52.8654120 106.0427820 109.5049230
  63.9397860 109.3110560 106.8835880  64.3078680 108.4905770 107.2115450
  63.0796060 109.3712450 107.2991530  67.3059890 108.2667500  97.6923440
  66.6773050 108.3713170  96.9781670  66.8111810 108.4864280  98.4817320
  59.2743920 110.5453450  99.1081320  58.5660070 111.0139790  99.5494930
  59.5588400 109.8875460  99.7426510  60.8999850 111.9650150 107.1073850
  61.3985100 112.4395970 107.7725700  61.0422800 111.0413670 107.3143880
  63.3059350 107.2704110 100.5477110  63.1827130 107.2890240  99.5986620
  64.2543910 107.3183050 100.6675510  57.4778940 108.8538530  96.4832030
  58.3269470 109.2908680  96.4172220  57.1110210 109.1658790  97.3104090
  68.1066710 108.1818110 107.9502240  67.6040310 108.9223510 108.2896050
  68.9223370 108.5702110 107.6339030  66.3988720 113.4251290 101.3963600
  65.4578860 113.4401520 101.5711290  66.7132790 112.6387250 101.8423900
  55.0717120 112.5395960  95.6400450  55.1520710 111.5923470  95.7517850
  55.9636870 112.8702840  95.7461110  56.5716810 111.0832570 109.7381180
  56.0413270 110.5923520 109.1104520  57.2404880 111.5116770 109.2039110
  57.0589110 108.0494940 109.8178470  56.9645980 107.4315690 109.0929340
  56.4786500 108.7761230 109.5908380  59.8250550 106.6068180 106.8505860
  59.3767850 106.6292440 106.0051410  59.1915750 106.2087200 107.4476160
  62.5674000 113.2338690 108.8556140  62.6870210 112.6379830 109.5950980
  63.4268000 113.2708380 108.4357440  57.3048290 111.1769250  93.8768360
  57.1037350 110.3136610  94.2381700  57.1340340 111.0902610  92.9389960
  59.3342770 109.7760040 110.1131960  59.9242460 109.4675890 110.8009780
  58.5163010 109.3039790 110.2691860  64.1536200 109.3925850 110.3464980
  63.4651720 108.7307390 110.2814970  64.8742220 108.9464120 110.7913440
  64.7836600 105.9877480  96.4055240  65.0638890 105.1445380  96.7614660
  64.0102330 106.2200590  96.9193990  56.1031090 108.2769870  93.8646240
  56.4056990 108.2837300  92.9565390  56.8425680 107.9267730  94.3613900
  59.3216020 107.2204490  94.8502440  58.9738020 106.5428480  94.2704890
  59.5228790 106.7594000  95.6645830  52.6621660 113.7492140 101.2466810
  52.0070500 113.4803780 100.6026510  53.4999610 113.6396620 100.7968790
  65.6112100 108.5433430  95.4685300  66.0296980 108.3564410  94.6281960
  65.3048160 107.6912480  95.7788230  69.1101830 113.4557570  99.1661100
  68.7345430 112.6885500  98.7342390  68.3804950 113.8380270  99.6536030
  68.5001450 112.6029090 108.8000620  68.2687540 112.3741840 107.8998570
  68.7606000 113.5228640 108.7545510  53.2513590 111.0453800 109.6928570
  52.3569640 111.0120560 110.0322280  53.7911140 111.2440590 110.4579820
  51.8759740 110.9591070  97.1892140  50.9723820 111.2221270  97.0143800
  52.3600360 111.2302240  96.4092100  68.3852790 111.6815060 102.4668340
  68.9090270 111.1877710 101.8358510  68.9712210 111.8165420 103.2115910
  68.5642510 111.7654930 105.9887890  67.6145220 111.7318470 106.1032880
  68.7455520 112.6755040 105.7537660  54.4186950 110.0156610  95.0986520
  55.1278650 109.5939830  94.6133800  53.7026890 110.0831840  94.4669870
  54.0661110 106.0695940  94.1389170  54.7889240 106.6104880  94.4570390
  54.3385630 105.7959360  93.2630710  67.8752760 110.9388410  98.4060750
  68.3711880 110.7059280  99.1909630  67.6768830 110.1000250  97.9898390
  53.7553300 105.3202130 104.0411790  54.4029490 104.7699510 103.6006950
  54.1755140 105.5745280 104.8627600  69.3039920 109.5749360 100.9398430
  69.1939200 109.4205400 101.8780700  70.0647510 109.0470300 100.6973840
  67.6505640 105.5143490 107.3981430  68.2877860 106.1277630 107.7640620
  67.7980530 105.5504150 106.4530660  70.1930190 107.4057280  94.1804570
  71.1179500 107.2738460  93.9722860  70.1705980 107.4850100  95.1341020
  70.2668680 108.1767940  96.8061280  69.4720180 108.1113060  97.3354190
  70.4711960 109.1118580  96.7946630  53.5085300 105.4757800 106.7837110
  53.1600120 105.9321620 107.5495290  53.1773000 104.5814930 106.8659540
  63.6584680 106.3239740 109.9448820  64.2725090 106.6419030 109.2829900
  64.2034240 105.8388330 110.5644680  54.1805940 105.0034000 110.0587880
  54.7288930 104.8222050 109.2953990  54.2461250 104.2128110 110.5944190
  64.3992720 104.8871880 106.2718110  63.5252560 105.2206990 106.0691040
  64.2903470 104.4145060 107.0969980  65.3064700 107.0942750 107.6559830
  64.9778060 106.2794510 107.2761560  66.2547000 107.0512560 107.5325520
  62.1467540 105.8041720 105.2111020  61.3639330 106.2787220 105.4907780
  61.8530470 104.8996550 105.1024200  66.6988610 106.5064820 103.2560110
  67.1396700 106.4509920 102.4081710  66.4296200 107.4222830 103.3270290
  68.5627180 106.1380060 101.2668930  68.5015580 105.1941280 101.1199950
  69.3419210 106.2460150 101.8122390  53.4907950 106.1089200  97.7324740
  54.2487310 106.2218080  97.1588770  53.0285120 106.9458400  97.6868170
  60.0321760 108.2228470 100.7227050  59.2196270 107.8485360 100.3822930
  60.5363400 107.4673550 101.0248240  64.5346740 104.8870920 101.9610120
  65.1376110 105.4591130 102.4358640  63.7939730 105.4510360 101.7384020
  67.6781340 105.2892480  97.2350400  67.8731970 106.1875930  97.5017830
  66.8911210 105.0579560  97.7283350  55.8633100 106.6353250  96.2726710
  56.3925860 105.8483050  96.1434660  56.4961420 107.3144440  96.5062240
  58.0570940 106.3728390  99.3272100  57.4273680 105.6715700  99.4942230
  57.5176080 107.1332520  99.1105260  63.6900110 113.0858420  82.7039800
  63.6094160 112.1713030  82.4331510  63.2764530 113.5825490  81.9979510
  54.2475930 110.1359140  79.2467220  53.3592630 110.4775110  79.1447100
  54.5317120 109.9359460  78.3548050  52.2108940 112.7364790  85.1306920
  52.7825050 111.9686990  85.1310560  52.2110480 113.0353550  84.2213530
  53.4533810 108.1449150  86.9175850  53.2736650 107.2474900  87.1978610
  53.0513890 108.6921020  87.5922800  62.2932310 110.3465010  84.8188160
  62.6697130 109.4736890  84.7061830  62.1951820 110.6823710  83.9278600
  56.4237320 108.7190640  80.2805600  56.5304070 109.6194370  80.5874360
  55.5129680 108.6708610  79.9900250  66.0756430 107.8415450  81.7516500
  66.8966050 107.3512020  81.7941980  66.1090510 108.4313110  82.5048340
  54.0720480 110.6409650  85.5258190  54.7530590 110.9048020  86.1445590
  53.7568530 109.8010520  85.8596200  58.2645050 111.6877010  84.6130780
  58.7723270 112.1857980  85.2535800  58.7958290 110.9112210  84.4370140
  70.3655980 109.8582200  88.3160130  69.6608150 110.2463910  87.7975240
  70.6313900 110.5532490  88.9181060  56.5481150 106.3275570  88.8794200
  56.5499590 106.8447960  88.0740100  55.7185460 105.8505750  88.8564130
  66.3117910 109.7815830  84.5244040  65.6073480 110.0700720  85.1047150
  66.6730070 110.5915940  84.1643600  56.2296480 108.0385530  86.8864650
  56.5713290 108.8827580  86.5918520  55.2912290 108.1869270  87.0029990
  69.3804830 109.2270620  84.9153250  68.4329740 109.2609600  85.0468680
  69.7054820 110.0409570  85.3002610  59.9124370 105.5267800  83.2109240
  60.2199350 104.9714690  82.4944740  58.9825070 105.6612260  83.0282230
  62.2874210 109.8633630  76.9436520  61.3477880 110.0247590  77.0288980
  62.6057470 110.5819310  76.3972510  65.7728980 111.3321470  87.8670420
  65.3600160 112.1575180  88.1210410  65.0404930 110.7466510  87.6746780
  56.6190390 110.8924580  86.5088130  57.1704980 111.0019920  85.7341380
  57.1333900 111.2662180  87.2243360  68.0884260 105.6466550  75.7718400
  67.7756920 105.7393380  76.6717470  68.8496730 106.2247580  75.7215830
  54.6066400 113.0126350  80.2295740  54.4864000 113.7388440  79.6177010
  54.2967290 112.2429260  79.7523650  69.2985550 110.3838050  91.7492540
  68.6829820 110.8917720  91.2208000  68.9781970 109.4836380  91.6918480
  57.0730060 106.3561420  83.6119410  56.6298210 107.1370960  83.2803930
  57.6315050 106.6791310  84.3190350  61.3599870 109.2229940  89.2154730
  60.8979240 109.4312960  90.0274670  60.9577980 108.4089290  88.9125400
  66.3604380 110.4438890  90.3451390  65.5097970 110.1444640  90.6660460
  66.2006170 110.6880900  89.4335210  63.4554090 111.9440640  92.4450180
  63.7807500 111.1104390  92.1052410  64.2434420 112.4669160  92.5928510
  60.1888880 105.9772120  78.4925240  59.5643060 105.9731990  79.2178550
  60.1019000 105.1103080  78.0961210  59.1105960 106.9008750  85.4709010
  59.4078290 107.8071580  85.3901030  59.6591520 106.4127530  84.8568580
  56.8644280 111.4794990  81.3400660  56.6385200 111.2632160  82.2447280
  56.0836810 111.9123450  80.9946630  64.0942040 111.4858360  79.9391310
  63.4950930 112.2094160  79.7554930  64.6421650 111.4235140  79.1567760
  59.3043490 112.3780570  92.0060930  59.2087090 111.4375300  91.8561330
  60.1475470 112.5995640  91.6109000  62.7006910 110.1221900  81.9694590
  63.0936480 110.4394100  81.1563280  63.0623760 109.2433780  82.0839110
  54.4354030 108.7894240  90.1594710  54.0417420 109.6369450  90.3667490
  53.7472430 108.1520610  90.3503350  61.0099080 108.8729210  93.2291450
  60.3197400 108.6801410  93.8637540  61.7531380 109.1563850  93.7615750
  51.7371080 106.7122700  84.1924790  51.4484130 107.2825560  84.9049770
  52.4816840 106.2327150  84.5556020  51.9241310 110.6542820  75.4027510
  51.8415980 111.5973580  75.5442500  51.5724370 110.5117730  74.5239860
  63.2862050 112.7127650  86.0645370  62.5543170 113.2214460  86.4135470
  62.8886390 111.8957630  85.7634150  59.7239440 109.3881850  84.4697860
  59.7275500 108.9471800  83.6202400  60.6190560 109.7099180  84.5769680
  55.5741820 109.2708340  83.4292070  55.2341870 109.7483570  84.1859120
  54.8119140 108.8173460  83.0693170  59.7859590 110.3893930  77.4604620
  59.9072410 110.3480410  78.4090440  59.4008100 111.2518080  77.3051350
  63.7487960 108.1661330  85.4768310  63.7660700 108.6169980  86.3210160
  63.5003540 107.2666970  85.6901750  58.7981090 112.6995070  76.8587920
  58.2297990 112.2513320  76.2323830  59.5070090 113.0587850  76.3253070
  67.1758710 105.5793510  91.3154690  67.5004480 104.8483170  91.8412670
  67.2115220 105.2607150  90.4135680  52.8887900 108.1927320  82.3456740
  52.6034820 107.8282990  83.1835360  52.8266760 107.4607780  81.7319880
  57.8146780 112.4892270  88.5347480  57.5103850 113.3684250  88.7597840
  58.7693240 112.5492060  88.5704920  62.5626490 107.0856580  79.0670110
  61.7491100 106.5869750  78.9915420  62.3688440 107.9254830  78.6506460
  65.2774880 111.4576230  77.3632270  66.1654500 111.7693460  77.1883610
  65.2479970 110.5848480  76.9712850  67.5489150 112.7688070  76.8312130
  67.4652870 113.2002290  75.9808570  68.2683340 113.2286420  77.2638950
  55.4465150 105.0597130  80.8984240  55.3179780 105.0515030  81.8469160
  54.6227170 105.3980220  80.5475250  52.4459080 106.8188250  90.3590940
  51.7317600 107.0185170  90.9643550  52.8654120 106.0427820  90.7305740
  63.9397860 109.3110560  88.1092390  64.3078680 108.4905770  88.4371960
  63.0796060 109.3712450  88.5248040  67.3059890 108.2667500  78.9179950
  66.6773050 108.3713170  78.2038180  66.8111810 108.4864280  79.7073830
  59.2743920 110.5453450  80.3337830  58.5660070 111.0139790  80.7751440
  59.5588400 109.8875460  80.9683020  60.8999850 111.9650150  88.3330360
  61.3985100 112.4395970  88.9982210  61.0422800 111.0413670  88.5400390
  63.3059350 107.2704110  81.7733620  63.1827130 107.2890240  80.8243130
  64.2543910 107.3183050  81.8932020  57.4778940 108.8538530  77.7088540
  58.3269470 109.2908680  77.6428730  57.1110210 109.1658790  78.5360600
  68.1066710 108.1818110  89.1758750  67.6040310 108.9223510  89.5152560
  68.9223370 108.5702110  88.8595540  66.3988720 113.4251290  82.6220110
  65.4578860 113.4401520  82.7967800  66.7132790 112.6387250  83.0680410
  55.0717120 112.5395960  76.8656960  55.1520710 111.5923470  76.9774360
  55.9636870 112.8702840  76.9717620  54.6311000 112.5040470  92.9963200
  54.6716340 112.2054340  93.9048430  55.4856500 112.9048080  92.8370720
  56.5716810 111.0832570  90.9637690  56.0413270 110.5923520  90.3361030
  57.2404880 111.5116770  90.4295620  65.9417040 112.8898190  92.7318030
  66.5237810 112.1350510  92.6438510  66.1178810 113.4205630  91.9549510
  57.0589110 108.0494940  91.0434980  56.9645980 107.4315690  90.3185850
  56.4786500 108.7761230  90.8164890  59.8250550 106.6068180  88.0762370
  59.3767850 106.6292440  87.2307920  59.1915750 106.2087200  88.6732670
  62.5674000 113.2338690  90.0812650  62.6870210 112.6379830  90.8207490
  63.4268000 113.2708380  89.6613950  57.3048290 111.1769250  75.1024870
  57.1037350 110.3136610  75.4638210  57.1340340 111.0902610  74.1646470
  59.3342770 109.7760040  91.3388470  59.9242460 109.4675890  92.0266290
  58.5163010 109.3039790  91.4948370  64.1536200 109.3925850  91.5721490
  63.4651720 108.7307390  91.5071480  64.8742220 108.9464120  92.0169950
  64.7836600 105.9877480  77.6311750  65.0638890 105.1445380  77.9871170
  64.0102330 106.2200590  78.1450500  56.1031090 108.2769870  75.0902750
  56.4056990 108.2837300  74.1821900  56.8425680 107.9267730  75.5870410
  59.3216020 107.2204490  76.0758950  58.9738020 106.5428480  75.4961400
  59.5228790 106.7594000  76.8902340  52.6621660 113.7492140  82.4723320
  52.0070500 113.4803780  81.8283020  53.4999610 113.6396620  82.0225300
  65.6112100 108.5433430  76.6941810  66.0296980 108.3564410  75.8538470
  65.3048160 107.6912480  77.0044740  69.1101830 113.4557570  80.3917610
  68.7345430 112.6885500  79.9598900  68.3804950 113.8380270  80.8792540
  68.5001450 112.6029090  90.0257130  68.2687540 112.3741840  89.1255080
  68.7606000 113.5228640  89.9802020  53.2513590 111.0453800  90.9185080
  52.3569640 111.0120560  91.2578790  53.7911140 111.2440590  91.6836330
  66.9389520 107.8285520  92.8036830  67.8159700 107.8368920  93.1870830
  66.9510360 107.0916360  92.1929180  51.8759740 110.9591070  78.4148650
  50.9723820 111.2221270  78.2400310  52.3600360 111.2302240  77.6348610
  68.3852790 111.6815060  83.6924850  68.9090270 111.1877710  83.0615020
  68.9712210 111.8165420  84.4372420  68.5642510 111.7654930  87.2144400
  67.6145220 111.7318470  87.3289390  68.7455520 112.6755040  86.9794170
  54.4186950 110.0156610  76.3243030  55.1278650 109.5939830  75.8390310
  53.7026890 110.0831840  75.6926380  54.0661110 106.0695940  75.3645680
  54.7889240 106.6104880  75.6826900  54.3385630 105.7959360  74.4887220
  67.8752760 110.9388410  79.6317260  68.3711880 110.7059280  80.4166140
  67.6768830 110.1000250  79.2154900  53.7553300 105.3202130  85.2668300
  54.4029490 104.7699510  84.8263460  54.1755140 105.5745280  86.0884110
  69.3039920 109.5749360  82.1654940  69.1939200 109.4205400  83.1037210
  70.0647510 109.0470300  81.9230350  67.6505640 105.5143490  88.6237940
  68.2877860 106.1277630  88.9897130  67.7980530 105.5504150  87.6787170
  70.1930190 107.4057280  75.4061080  71.1179500 107.2738460  75.1979370
  70.1705980 107.4850100  76.3597530  70.2668680 108.1767940  78.0317790
  69.4720180 108.1113060  78.5610700  70.4711960 109.1118580  78.0203140
  53.5085300 105.4757800  88.0093620  53.1600120 105.9321620  88.7751800
  53.1773000 104.5814930  88.0916050  61.0210120 106.6669680  91.5313040
  60.9599010 107.2591510  92.2808450  61.9610500 106.5595640  91.3863300
  63.6584680 106.3239740  91.1705330  64.2725090 106.6419030  90.5086410
  64.2034240 105.8388330  91.7901190  54.1805940 105.0034000  91.2844390
  54.7288930 104.8222050  90.5210500  54.2461250 104.2128110  91.8200700
  64.3992720 104.8871880  87.4974620  63.5252560 105.2206990  87.2947550
  64.2903470 104.4145060  88.3226490  65.3064700 107.0942750  88.8816340
  64.9778060 106.2794510  88.5018070  66.2547000 107.0512560  88.7582030
  62.1467540 105.8041720  86.4367530  61.3639330 106.2787220  86.7164290
  61.8530470 104.8996550  86.3280710  66.6988610 106.5064820  84.4816620
  67.1396700 106.4509920  83.6338220  66.4296200 107.4222830  84.5526800
  68.5627180 106.1380060  82.4925440  68.5015580 105.1941280  82.3456460
  69.3419210 106.2460150  83.0378900  53.4907950 106.1089200  78.9581250
  54.2487310 106.2218080  78.3845280  53.0285120 106.9458400  78.9124680
  60.0321760 108.2228470  81.9483560  59.2196270 107.8485360  81.6079440
  60.5363400 107.4673550  82.2504750  64.5346740 104.8870920  83.1866630
  65.1376110 105.4591130  83.6615150  63.7939730 105.4510360  82.9640530
  67.6781340 105.2892480  78.4606910  67.8731970 106.1875930  78.7274340
  66.8911210 105.0579560  78.9539860  55.8633100 106.6353250  77.4983220
  56.3925860 105.8483050  77.3691170  56.4961420 107.3144440  77.7318750
  58.0570940 106.3728390  80.5528610  57.4273680 105.6715700  80.7198740
  57.5176080 107.1332520  80.3361770  58.1826500 105.6512370  92.9881100
  57.9010770 106.1545970  92.2241920  58.5646200 104.8534120  92.6223230
  64.7841960 105.0665950  93.5661570  64.6707410 105.3860560  94.4613090
  65.6011700 105.4678460  93.2698850  63.6900110 113.0858420  63.9296310
  63.6094160 112.1713030  63.6588020  63.2764530 113.5825490  63.2236020
  54.2475930 110.1359140  60.4723730  53.3592630 110.4775110  60.3703610
  54.5317120 109.9359460  59.5804560  52.2108940 112.7364790  66.3563430
  52.7825050 111.9686990  66.3567070  52.2110480 113.0353550  65.4470040
  53.4533810 108.1449150  68.1432360  53.2736650 107.2474900  68.4235120
  53.0513890 108.6921020  68.8179310  62.2932310 110.3465010  66.0444670
  62.6697130 109.4736890  65.9318340  62.1951820 110.6823710  65.1535110
  56.4237320 108.7190640  61.5062110  56.5304070 109.6194370  61.8130870
  55.5129680 108.6708610  61.2156760  66.0756430 107.8415450  62.9773010
  66.8966050 107.3512020  63.0198490  66.1090510 108.4313110  63.7304850
  54.0720480 110.6409650  66.7514700  54.7530590 110.9048020  67.3702100
  53.7568530 109.8010520  67.0852710  58.2645050 111.6877010  65.8387290
  58.7723270 112.1857980  66.4792310  58.7958290 110.9112210  65.6626650
  70.3655980 109.8582200  69.5416640  69.6608150 110.2463910  69.0231750
  70.6313900 110.5532490  70.1437570  56.5481150 106.3275570  70.1050710
  56.5499590 106.8447960  69.2996610  55.7185460 105.8505750  70.0820640
  66.3117910 109.7815830  65.7500550  65.6073480 110.0700720  66.3303660
  66.6730070 110.5915940  65.3900110  56.2296480 108.0385530  68.1121160
  56.5713290 108.8827580  67.8175030  55.2912290 108.1869270  68.2286500
  69.3804830 109.2270620  66.1409760  68.4329740 109.2609600  66.2725190
  69.7054820 110.0409570  66.5259120  59.9124370 105.5267800  64.4365750
  60.2199350 104.9714690  63.7201250  58.9825070 105.6612260  64.2538740
  62.2874210 109.8633630  58.1693030  61.3477880 110.0247590  58.2545490
  62.6057470 110.5819310  57.6229020  65.7728980 111.3321470  69.0926930
  65.3600160 112.1575180  69.3466920  65.0404930 110.7466510  68.9003290
  56.6190390 110.8924580  67.7344640  57.1704980 111.0019920  66.9597890
  57.1333900 111.2662180  68.4499870  68.0884260 105.6466550  56.9974910
  67.7756920 105.7393380  57.8973980  68.8496730 106.2247580  56.9472340
  54.6066400 113.0126350  61.4552250  54.4864000 113.7388440  60.8433520
  54.2967290 112.2429260  60.9780160  69.2985550 110.3838050  72.9749050
  68.6829820 110.8917720  72.4464510  68.9781970 109.4836380  72.9174990
  57.0730060 106.3561420  64.8375920  56.6298210 107.1370960  64.5060440
  57.6315050 106.6791310  65.5446860  61.3599870 109.2229940  70.4411240
  60.8979240 109.4312960  71.2531180  60.9577980 108.4089290  70.1381910
  66.3604380 110.4438890  71.5707900  65.5097970 110.1444640  71.8916970
  66.2006170 110.6880900  70.6591720  63.4554090 111.9440640  73.6706690
  63.7807500 111.1104390  73.3308920  64.2434420 112.4669160  73.8185020
  60.1888880 105.9772120  59.7181750  59.5643060 105.9731990  60.4435060
  60.1019000 105.1103080  59.3217720  59.1105960 106.9008750  66.6965520
  59.4078290 107.8071580  66.6157540  59.6591520 106.4127530  66.0825090
  56.8644280 111.4794990  62.5657170  56.6385200 111.2632160  63.4703790
  56.0836810 111.9123450  62.2203140  64.0942040 111.4858360  61.1647820
  63.4950930 112.2094160  60.9811440  64.6421650 111.4235140  60.3824270
  59.3043490 112.3780570  73.2317440  59.2087090 111.4375300  73.0817840
  60.1475470 112.5995640  72.8365510  62.7006910 110.1221900  63.1951100
  63.0936480 110.4394100  62.3819790  63.0623760 109.2433780  63.3095620
  54.4354030 108.7894240  71.3851220  54.0417420 109.6369450  71.5924000
  53.7472430 108.1520610  71.5759860  61.0099080 108.8729210  74.4547960
  60.3197400 108.6801410  75.0894050  61.7531380 109.1563850  74.9872260
  51.7371080 106.7122700  65.4181300  51.4484130 107.2825560  66.1306280
  52.4816840 106.2327150  65.7812530  51.9241310 110.6542820  56.6284020
  51.8415980 111.5973580  56.7699010  51.5724370 110.5117730  55.7496370
  63.2862050 112.7127650  67.2901880  62.5543170 113.2214460  67.6391980
  62.8886390 111.8957630  66.9890660  59.7239440 109.3881850  65.6954370
  59.7275500 108.9471800  64.8458910  60.6190560 109.7099180  65.8026190
  55.5741820 109.2708340  64.6548580  55.2341870 109.7483570  65.4115630
  54.8119140 108.8173460  64.2949680  59.7859590 110.3893930  58.6861130
  59.9072410 110.3480410  59.6346950  59.4008100 111.2518080  58.5307860
  63.7487960 108.1661330  66.7024820  63.7660700 108.6169980  67.5466670
  63.5003540 107.2666970  66.9158260  58.7981090 112.6995070  58.0844430
  58.2297990 112.2513320  57.4580340  59.5070090 113.0587850  57.5509580
  67.1758710 105.5793510  72.5411200  67.5004480 104.8483170  73.0669180
  67.2115220 105.2607150  71.6392190  52.8887900 108.1927320  63.5713250
  52.6034820 107.8282990  64.4091870  52.8266760 107.4607780  62.9576390
  57.8146780 112.4892270  69.7603990  57.5103850 113.3684250  69.9854350
  58.7693240 112.5492060  69.7961430  62.5626490 107.0856580  60.2926620
  61.7491100 106.5869750  60.2171930  62.3688440 107.9254830  59.8762970
  65.2774880 111.4576230  58.5888780  66.1654500 111.7693460  58.4140120
  65.2479970 110.5848480  58.1969360  67.5489150 112.7688070  58.0568640
  67.4652870 113.2002290  57.2065080  68.2683340 113.2286420  58.4895460
  55.4465150 105.0597130  62.1240750  55.3179780 105.0515030  63.0725670
  54.6227170 105.3980220  61.7731760  52.4459080 106.8188250  71.5847450
  51.7317600 107.0185170  72.1900060  52.8654120 106.0427820  71.9562250
  63.9397860 109.3110560  69.3348900  64.3078680 108.4905770  69.6628470
  63.0796060 109.3712450  69.7504550  67.3059890 108.2667500  60.1436460
  66.6773050 108.3713170  59.4294690  66.8111810 108.4864280  60.9330340
  59.2743920 110.5453450  61.5594340  58.5660070 111.0139790  62.0007950
  59.5588400 109.8875460  62.1939530  60.8999850 111.9650150  69.5586870
  61.3985100 112.4395970  70.2238720  61.0422800 111.0413670  69.7656900
  63.3059350 107.2704110  62.9990130  63.1827130 107.2890240  62.0499640
  64.2543910 107.3183050  63.1188530  57.4778940 108.8538530  58.9345050
  58.3269470 109.2908680  58.8685240  57.1110210 109.1658790  59.7617110
  68.1066710 108.1818110  70.4015260  67.6040310 108.9223510  70.7409070
  68.9223370 108.5702110  70.0852050  66.3988720 113.4251290  63.8476620
  65.4578860 113.4401520  64.0224310  66.7132790 112.6387250  64.2936920
  55.0717120 112.5395960  58.0913470  55.1520710 111.5923470  58.2030870
  55.9636870 112.8702840  58.1974130  54.6311000 112.5040470  74.2219710
  54.6716340 112.2054340  75.1304940  55.4856500 112.9048080  74.0627230
  56.5716810 111.0832570  72.1894200  56.0413270 110.5923520  71.5617540
  57.2404880 111.5116770  71.6552130  65.9417040 112.8898190  73.9574540
  66.5237810 112.1350510  73.8695020  66.1178810 113.4205630  73.1806020
  57.0589110 108.0494940  72.2691490  56.9645980 107.4315690  71.5442360
  56.4786500 108.7761230  72.0421400  59.8250550 106.6068180  69.3018880
  59.3767850 106.6292440  68.4564430  59.1915750 106.2087200  69.8989180
  62.5674000 113.2338690  71.3069160  62.6870210 112.6379830  72.0464000
  63.4268000 113.2708380  70.8870460  57.3048290 111.1769250  56.3281380
  57.1037350 110.3136610  56.6894720  57.1340340 111.0902610  55.3902980
  59.3342770 109.7760040  72.5644980  59.9242460 109.4675890  73.2522800
  58.5163010 109.3039790  72.7204880  64.1536200 109.3925850  72.7978000
  63.4651720 108.7307390  72.7327990  64.8742220 108.9464120  73.2426460
  64.7836600 105.9877480  58.8568260  65.0638890 105.1445380  59.2127680
  64.0102330 106.2200590  59.3707010  56.1031090 108.2769870  56.3159260
  56.4056990 108.2837300  55.4078410  56.8425680 107.9267730  56.8126920
  59.3216020 107.2204490  57.3015460  58.9738020 106.5428480  56.7217910
  59.5228790 106.7594000  58.1158850  52.6621660 113.7492140  63.6979830
  52.0070500 113.4803780  63.0539530  53.4999610 113.6396620  63.2481810
  65.6112100 108.5433430  57.9198320  66.0296980 108.3564410  57.0794980
  65.3048160 107.6912480  58.2301250  69.1101830 113.4557570  61.6174120
  68.7345430 112.6885500  61.1855410  68.3804950 113.8380270  62.1049050
  68.5001450 112.6029090  71.2513640  68.2687540 112.3741840  70.3511590
  68.7606000 113.5228640  71.2058530  53.2513590 111.0453800  72.1441590
  52.3569640 111.0120560  72.4835300  53.7911140 111.2440590  72.9092840
  66.9389520 107.8285520  74.0293340  67.8159700 107.8368920  74.4127340
  66.9510360 107.0916360  73.4185690  51.8759740 110.9591070  59.6405160
  50.9723820 111.2221270  59.4656820  52.3600360 111.2302240  58.8605120
  68.3852790 111.6815060  64.9181360  68.9090270 111.1877710  64.2871530
  68.9712210 111.8165420  65.6628930  68.5642510 111.7654930  68.4400910
  67.6145220 111.7318470  68.5545900  68.7455520 112.6755040  68.2050680
  54.4186950 110.0156610  57.5499540  55.1278650 109.5939830  57.0646820
  53.7026890 110.0831840  56.9182890  54.0661110 106.0695940  56.5902190
  54.7889240 106.6104880  56.9083410  54.3385630 105.7959360  55.7143730
  67.8752760 110.9388410  60.8573770  68.3711880 110.7059280  61.6422650
  67.6768830 110.1000250  60.4411410  53.7553300 105.3202130  66.4924810
  54.4029490 104.7699510  66.0519970  54.1755140 105.5745280  67.3140620
  69.3039920 109.5749360  63.3911450  69.1939200 109.4205400  64.3293720
  70.0647510 109.0470300  63.1486860  67.6505640 105.5143490  69.8494450
  68.2877860 106.1277630  70.2153640  67.7980530 105.5504150  68.9043680
  70.1930190 107.4057280  56.6317590  71.1179500 107.2738460  56.4235880
  70.1705980 107.4850100  57.5854040  70.2668680 108.1767940  59.2574300
  69.4720180 108.1113060  59.7867210  70.4711960 109.1118580  59.2459650
  53.5085300 105.4757800  69.2350130  53.1600120 105.9321620  70.0008310
  53.1773000 104.5814930  69.3172560  61.0210120 106.6669680  72.7569550
  60.9599010 107.2591510  73.5064960  61.9610500 106.5595640  72.6119810
  63.6584680 106.3239740  72.3961840  64.2725090 106.6419030  71.7342920
  64.2034240 105.8388330  73.0157700  54.1805940 105.0034000  72.5100900
  54.7288930 104.8222050  71.7467010  54.2461250 104.2128110  73.0457210
  64.3992720 104.8871880  68.7231130  63.5252560 105.2206990  68.5204060
  64.2903470 104.4145060  69.5483000  65.3064700 107.0942750  70.1072850
  64.9778060 106.2794510  69.7274580  66.2547000 107.0512560  69.9838540
  62.1467540 105.8041720  67.6624040  61.3639330 106.2787220  67.9420800
  61.8530470 104.8996550  67.5537220  66.6988610 106.5064820  65.7073130
  67.1396700 106.4509920  64.8594730  66.4296200 107.4222830  65.7783310
  68.5627180 106.1380060  63.7181950  68.5015580 105.1941280  63.5712970
  69.3419210 106.2460150  64.2635410  53.4907950 106.1089200  60.1837760
  54.2487310 106.2218080  59.6101790  53.0285120 106.9458400  60.1381190
  60.0321760 108.2228470  63.1740070  59.2196270 107.8485360  62.8335950
  60.5363400 107.4673550  63.4761260  64.5346740 104.8870920  64.4123140
  65.1376110 105.4591130  64.8871660  63.7939730 105.4510360  64.1897040
  67.6781340 105.2892480  59.6863420  67.8731970 106.1875930  59.9530850
  66.8911210 105.0579560  60.1796370  55.8633100 106.6353250  58.7239730
  56.3925860 105.8483050  58.5947680  56.4961420 107.3144440  58.9575260
  58.0570940 106.3728390  61.7785120  57.4273680 105.6715700  61.9455250
  57.5176080 107.1332520  61.5618280  58.1826500 105.6512370  74.2137610
  57.9010770 106.1545970  73.4498430  58.5646200 104.8534120  73.8479740
  64.7841960 105.0665950  74.7918080  64.6707410 105.3860560  75.6869600
  65.6011700 105.4678460  74.4955360  63.6900110 113.0858420  45.1552820
  63.6094160 112.1713030  44.8844530  63.2764530 113.5825490  44.4492530
  54.2475930 110.1359140  41.6980240  53.3592630 110.4775110  41.5960120
  54.5317120 109.9359460  40.8061070  52.2108940 112.7364790  47.5819940
  52.7825050 111.9686990  47.5823580  52.2110480 113.0353550  46.6726550
  53.4533810 108.1449150  49.3688870  53.2736650 107.2474900  49.6491630
  53.0513890 108.6921020  50.0435820  62.2932310 110.3465010  47.2701180
  62.6697130 109.4736890  47.1574850  62.1951820 110.6823710  46.3791620
  56.4237320 108.7190640  42.7318620  56.5304070 109.6194370  43.0387380
  55.5129680 108.6708610  42.4413270  66.0756430 107.8415450  44.2029520
  66.8966050 107.3512020  44.2455000  66.1090510 108.4313110  44.9561360
  54.0720480 110.6409650  47.9771210  54.7530590 110.9048020  48.5958610
  53.7568530 109.8010520  48.3109220  58.2645050 111.6877010  47.0643800
  58.7723270 112.1857980  47.7048820  58.7958290 110.9112210  46.8883160
  70.3655980 109.8582200  50.7673150  69.6608150 110.2463910  50.2488260
  70.6313900 110.5532490  51.3694080  56.5481150 106.3275570  51.3307220
  56.5499590 106.8447960  50.5253120  55.7185460 105.8505750  51.3077150
  66.3117910 109.7815830  46.9757060  65.6073480 110.0700720  47.5560170
  66.6730070 110.5915940  46.6156620  56.2296480 108.0385530  49.3377670
  56.5713290 108.8827580  49.0431540  55.2912290 108.1869270  49.4543010
  69.3804830 109.2270620  47.3666270  68.4329740 109.2609600  47.4981700
  69.7054820 110.0409570  47.7515630  59.9124370 105.5267800  45.6622260
  60.2199350 104.9714690  44.9457760  58.9825070 105.6612260  45.4795250
  62.2874210 109.8633630  39.3949540  61.3477880 110.0247590  39.4802000
  62.6057470 110.5819310  38.8485530  65.7728980 111.3321470  50.3183440
  65.3600160 112.1575180  50.5723430  65.0404930 110.7466510  50.1259800
  56.6190390 110.8924580  48.9601150  57.1704980 111.0019920  48.1854400
  57.1333900 111.2662180  49.6756380  68.0884260 105.6466550  38.2231420
  67.7756920 105.7393380  39.1230490  68.8496730 106.2247580  38.1728850
  54.6066400 113.0126350  42.6808760  54.4864000 113.7388440  42.0690030
  54.2967290 112.2429260  42.2036670  69.2985550 110.3838050  54.2005560
  68.6829820 110.8917720  53.6721020  68.9781970 109.4836380  54.1431500
  57.0730060 106.3561420  46.0632430  56.6298210 107.1370960  45.7316950
  57.6315050 106.6791310  46.7703370  61.3599870 109.2229940  51.6667750
  60.8979240 109.4312960  52.4787690  60.9577980 108.4089290  51.3638420
  66.3604380 110.4438890  52.7964410  65.5097970 110.1444640  53.1173480
  66.2006170 110.6880900  51.8848230  63.4554090 111.9440640  54.8963200
  63.7807500 111.1104390  54.5565430  64.2434420 112.4669160  55.0441530
  60.1888880 105.9772120  40.9438260  59.5643060 105.9731990  41.6691570
  60.1019000 105.1103080  40.5474230  59.1105960 106.9008750  47.9222030
  59.4078290 107.8071580  47.8414050  59.6591520 106.4127530  47.3081600
  56.8644280 111.4794990  43.7913680  56.6385200 111.2632160  44.6960300
  56.0836810 111.9123450  43.4459650  64.0942040 111.4858360  42.3904330
  63.4950930 112.2094160  42.2067950  64.6421650 111.4235140  41.6080780
  59.3043490 112.3780570  54.4573950  59.2087090 111.4375300  54.3074350
  60.1475470 112.5995640  54.0622020  62.7006910 110.1221900  44.4207610
  63.0936480 110.4394100  43.6076300  63.0623760 109.2433780  44.5352130
  54.4354030 108.7894240  52.6107730  54.0417420 109.6369450  52.8180510
  53.7472430 108.1520610  52.8016370  61.0099080 108.8729210  55.6804470
  60.3197400 108.6801410  56.3150560  61.7531380 109.1563850  56.2128770
  51.7371080 106.7122700  46.6437810  51.4484130 107.2825560  47.3562790
  52.4816840 106.2327150  47.0069040  51.9241310 110.6542820  37.8540530
  51.8415980 111.5973580  37.9955520  51.5724370 110.5117730  36.9752880
  63.2862050 112.7127650  48.5158390  62.5543170 113.2214460  48.8648490
  62.8886390 111.8957630  48.2147170  59.7239440 109.3881850  46.9210880
  59.7275500 108.9471800  46.0715420  60.6190560 109.7099180  47.0282700
  55.5741820 109.2708340  45.8805090  55.2341870 109.7483570  46.6372140
  54.8119140 108.8173460  45.5206190  59.7859590 110.3893930  39.9117640
  59.9072410 110.3480410  40.8603460  59.4008100 111.2518080  39.7564370
  63.7487960 108.1661330  47.9281330  63.7660700 108.6169980  48.7723180
  63.5003540 107.2666970  48.1414770  58.7981090 112.6995070  39.3100940
  58.2297990 112.2513320  38.6836850  59.5070090 113.0587850  38.7766090
  67.1758710 105.5793510  53.7667710  67.5004480 104.8483170  54.2925690
  67.2115220 105.2607150  52.8648700  52.8887900 108.1927320  44.7969760
  52.6034820 107.8282990  45.6348380  52.8266760 107.4607780  44.1832900
  57.8146780 112.4892270  50.9860500  57.5103850 113.3684250  51.2110860
  58.7693240 112.5492060  51.0217940  62.5626490 107.0856580  41.5183130
  61.7491100 106.5869750  41.4428440  62.3688440 107.9254830  41.1019480
  65.2774880 111.4576230  39.8145290  66.1654500 111.7693460  39.6396630
  65.2479970 110.5848480  39.4225870  67.5489150 112.7688070  39.2825150
  67.4652870 113.2002290  38.4321590  68.2683340 113.2286420  39.7151970
  55.4465150 105.0597130  43.3497260  55.3179780 105.0515030  44.2982180
  54.6227170 105.3980220  42.9988270  52.4459080 106.8188250  52.8103960
  51.7317600 107.0185170  53.4156570  52.8654120 106.0427820  53.1818760
  63.9397860 109.3110560  50.5605410  64.3078680 108.4905770  50.8884980
  63.0796060 109.3712450  50.9761060  67.3059890 108.2667500  41.3692970
  66.6773050 108.3713170  40.6551200  66.8111810 108.4864280  42.1586850
  59.2743920 110.5453450  42.7850850  58.5660070 111.0139790  43.2264460
  59.5588400 109.8875460  43.4196040  60.8999850 111.9650150  50.7843380
  61.3985100 112.4395970  51.4495230  61.0422800 111.0413670  50.9913410
  63.3059350 107.2704110  44.2246640  63.1827130 107.2890240  43.2756150
  64.2543910 107.3183050  44.3445040  57.4778940 108.8538530  40.1601560
  58.3269470 109.2908680  40.0941750  57.1110210 109.1658790  40.9873620
  68.1066710 108.1818110  51.6271770  67.6040310 108.9223510  51.9665580
  68.9223370 108.5702110  51.3108560  66.3988720 113.4251290  45.0733130
  65.4578860 113.4401520  45.2480820  66.7132790 112.6387250  45.5193430
  55.0717120 112.5395960  39.3169980  55.1520710 111.5923470  39.4287380
  55.9636870 112.8702840  39.4230640  54.6311000 112.5040470  55.4476220
  54.6716340 112.2054340  56.3561450  55.4856500 112.9048080  55.2883740
  56.5716810 111.0832570  53.4150710  56.0413270 110.5923520  52.7874050
  57.2404880 111.5116770  52.8808640  65.9417040 112.8898190  55.1831050
  66.5237810 112.1350510  55.0951530  66.1178810 113.4205630  54.4062530
  57.0589110 108.0494940  53.4948000  56.9645980 107.4315690  52.7698870
  56.4786500 108.7761230  53.2677910  59.8250550 106.6068180  50.5275390
  59.3767850 106.6292440  49.6820940  59.1915750 106.2087200  51.1245690
  62.5674000 113.2338690  52.5325670  62.6870210 112.6379830  53.2720510
  63.4268000 113.2708380  52.1126970  57.3048290 111.1769250  37.5537890
  57.1037350 110.3136610  37.9151230  57.1340340 111.0902610  36.6159490
  59.3342770 109.7760040  53.7901490  59.9242460 109.4675890  54.4779310
  58.5163010 109.3039790  53.9461390  64.1536200 109.3925850  54.0234510
  63.4651720 108.7307390  53.9584500  64.8742220 108.9464120  54.4682970
  64.7836600 105.9877480  40.0824770  65.0638890 105.1445380  40.4384190
  64.0102330 106.2200590  40.5963520  56.1031090 108.2769870  37.5415770
  56.4056990 108.2837300  36.6334920  56.8425680 107.9267730  38.0383430
  59.3216020 107.2204490  38.5271970  58.9738020 106.5428480  37.9474420
  59.5228790 106.7594000  39.3415360  52.6621660 113.7492140  44.9236340
  52.0070500 113.4803780  44.2796040  53.4999610 113.6396620  44.4738320
  65.6112100 108.5433430  39.1454830  66.0296980 108.3564410  38.3051490
  65.3048160 107.6912480  39.4557760  69.1101830 113.4557570  42.8430630
  68.7345430 112.6885500  42.4111920  68.3804950 113.8380270  43.3305560
  68.5001450 112.6029090  52.4770150  68.2687540 112.3741840  51.5768100
  68.7606000 113.5228640  52.4315040  53.2513590 111.0453800  53.3698100
  52.3569640 111.0120560  53.7091810  53.7911140 111.2440590  54.1349350
  66.9389520 107.8285520  55.2549850  67.8159700 107.8368920  55.6383850
  66.9510360 107.0916360  54.6442200  51.8759740 110.9591070  40.8661670
  50.9723820 111.2221270  40.6913330  52.3600360 111.2302240  40.0861630
  68.3852790 111.6815060  46.1437870  68.9090270 111.1877710  45.5128040
  68.9712210 111.8165420  46.8885440  68.5642510 111.7654930  49.6657420
  67.6145220 111.7318470  49.7802410  68.7455520 112.6755040  49.4307190
  54.4186950 110.0156610  38.7756050  55.1278650 109.5939830  38.2903330
  53.7026890 110.0831840  38.1439400  54.0661110 106.0695940  37.8158700
  54.7889240 106.6104880  38.1339920  54.3385630 105.7959360  36.9400240
  67.8752760 110.9388410  42.0830280  68.3711880 110.7059280  42.8679160
  67.6768830 110.1000250  41.6667920  53.7553300 105.3202130  47.7181320
  54.4029490 104.7699510  47.2776480  54.1755140 105.5745280  48.5397130
  69.3039920 109.5749360  44.6167960  69.1939200 109.4205400  45.5550230
  70.0647510 109.0470300  44.3743370  67.6505640 105.5143490  51.0750960
  68.2877860 106.1277630  51.4410150  67.7980530 105.5504150  50.1300190
  70.1930190 107.4057280  37.8574100  71.1179500 107.2738460  37.6492390
  70.1705980 107.4850100  38.8110550  70.2668680 108.1767940  40.4830810
  69.4720180 108.1113060  41.0123720  70.4711960 109.1118580  40.4716160
  53.5085300 105.4757800  50.4606640  53.1600120 105.9321620  51.2264820
  53.1773000 104.5814930  50.5429070  61.0210120 106.6669680  53.9826060
  60.9599010 107.2591510  54.7321470  61.9610500 106.5595640  53.8376320
  63.6584680 106.3239740  53.6218350  64.2725090 106.6419030  52.9599430
  64.2034240 105.8388330  54.2414210  54.1805940 105.0034000  53.7357410
  54.7288930 104.8222050  52.9723520  54.2461250 104.2128110  54.2713720
  65.3064700 107.0942750  51.3329360  64.9778060 106.2794510  50.9531090
  66.2547000 107.0512560  51.2095050  62.1467540 105.8041720  48.8880550
  61.3639330 106.2787220  49.1677310  61.8530470 104.8996550  48.7793730
  66.6988610 106.5064820  46.9329640  67.1396700 106.4509920  46.0851240
  66.4296200 107.4222830  47.0039820  68.5627180 106.1380060  44.9438460
  68.5015580 105.1941280  44.7969480  69.3419210 106.2460150  45.4891920
  53.4907950 106.1089200  41.4094270  54.2487310 106.2218080  40.8358300
  53.0285120 106.9458400  41.3637700  60.0321760 108.2228470  44.3996580
  59.2196270 107.8485360  44.0592460  60.5363400 107.4673550  44.7017770
  64.5346740 104.8870920  45.6379650  65.1376110 105.4591130  46.1128170
  63.7939730 105.4510360  45.4153550  67.6781340 105.2892480  40.9119930
  67.8731970 106.1875930  41.1787360  66.8911210 105.0579560  41.4052880
  55.8633100 106.6353250  39.9496240  56.3925860 105.8483050  39.8204190
  56.4961420 107.3144440  40.1831770  58.0570940 106.3728390  43.0041630
  57.4273680 105.6715700  43.1711760  57.5176080 107.1332520  42.7874790
  58.1826500 105.6512370  55.4394120  57.9010770 106.1545970  54.6754940
  58.5646200 104.8534120  55.0736250  64.7841960 105.0665950  56.0174590
  64.6707410 105.3860560  56.9126110  65.6011700 105.4678460  55.7211870
  63.6900110 113.0858420  26.3809330  63.6094160 112.1713030  26.1101040
  63.2764530 113.5825490  25.6749040  54.2475930 110.1359140  22.9236750
  53.3592630 110.4775110  22.8216630  54.5317120 109.9359460  22.0317580
  52.2108940 112.7364790  28.8076450  52.7825050 111.9686990  28.8080090
  52.2110480 113.0353550  27.8983060  53.4533810 108.1449150  30.5945380
  53.2736650 107.2474900  30.8748140  53.0513890 108.6921020  31.2692330
  62.2932310 110.3465010  28.4957690  62.6697130 109.4736890  28.3831360
  62.1951820 110.6823710  27.6048130  56.4237320 108.7190640  23.9575130
  56.5304070 109.6194370  24.2643890  55.5129680 108.6708610  23.6669780
  66.0756430 107.8415450  25.4286030  66.8966050 107.3512020  25.4711510
  66.1090510 108.4313110  26.1817870  54.0720480 110.6409650  29.2027720
  54.7530590 110.9048020  29.8215120  53.7568530 109.8010520  29.5365730
  58.2645050 111.6877010  28.2900310  58.7723270 112.1857980  28.9305330
  58.7958290 110.9112210  28.1139670  70.3655980 109.8582200  31.9929660
  69.6608150 110.2463910  31.4744770  70.6313900 110.5532490  32.5950590
  56.5481150 106.3275570  32.5563730  56.5499590 106.8447960  31.7509630
  55.7185460 105.8505750  32.5333660  66.3117910 109.7815830  28.2013570
  65.6073480 110.0700720  28.7816680  66.6730070 110.5915940  27.8413130
  56.2296480 108.0385530  30.5634180  56.5713290 108.8827580  30.2688050
  55.2912290 108.1869270  30.6799520  69.3804830 109.2270620  28.5922780
  68.4329740 109.2609600  28.7238210  69.7054820 110.0409570  28.9772140
  59.9124370 105.5267800  26.8878770  60.2199350 104.9714690  26.1714270
  58.9825070 105.6612260  26.7051760  62.2874210 109.8633630  20.6206050
  61.3477880 110.0247590  20.7058510  62.6057470 110.5819310  20.0742040
  65.7728980 111.3321470  31.5439950  65.3600160 112.1575180  31.7979940
  65.0404930 110.7466510  31.3516310  56.6190390 110.8924580  30.1857660
  57.1704980 111.0019920  29.4110910  57.1333900 111.2662180  30.9012890
  68.0884260 105.6466550  19.4487930  67.7756920 105.7393380  20.3487000
  68.8496730 106.2247580  19.3985360  54.6066400 113.0126350  23.9065270
  54.4864000 113.7388440  23.2946540  54.2967290 112.2429260  23.4293180
  69.2985550 110.3838050  35.4262070  68.6829820 110.8917720  34.8977530
  68.9781970 109.4836380  35.3688010  57.0730060 106.3561420  27.2888940
  56.6298210 107.1370960  26.9573460  57.6315050 106.6791310  27.9959880
  61.3599870 109.2229940  32.8924260  60.8979240 109.4312960  33.7044200
  60.9577980 108.4089290  32.5894930  66.3604380 110.4438890  34.0220920
  65.5097970 110.1444640  34.3429990  66.2006170 110.6880900  33.1104740
  63.4554090 111.9440640  36.1219710  63.7807500 111.1104390  35.7821940
  64.2434420 112.4669160  36.2698040  60.1888880 105.9772120  22.1694770
  59.5643060 105.9731990  22.8948080  60.1019000 105.1103080  21.7730740
  59.1105960 106.9008750  29.1478540  59.4078290 107.8071580  29.0670560
  59.6591520 106.4127530  28.5338110  56.8644280 111.4794990  25.0170190
  56.6385200 111.2632160  25.9216810  56.0836810 111.9123450  24.6716160
  64.0942040 111.4858360  23.6160840  63.4950930 112.2094160  23.4324460
  64.6421650 111.4235140  22.8337290  59.3043490 112.3780570  35.6830460
  59.2087090 111.4375300  35.5330860  60.1475470 112.5995640  35.2878530
  62.7006910 110.1221900  25.6464120  63.0936480 110.4394100  24.8332810
  63.0623760 109.2433780  25.7608640  54.4354030 108.7894240  33.8364240
  54.0417420 109.6369450  34.0437020  53.7472430 108.1520610  34.0272880
  61.0099080 108.8729210  36.9060980  60.3197400 108.6801410  37.5407070
  61.7531380 109.1563850  37.4385280  51.7371080 106.7122700  27.8694320
  51.4484130 107.2825560  28.5819300  52.4816840 106.2327150  28.2325550
  51.9241310 110.6542820  19.0797040  51.8415980 111.5973580  19.2212030
  51.5724370 110.5117730  18.2009390  63.2862050 112.7127650  29.7414900
  62.5543170 113.2214460  30.0905000  62.8886390 111.8957630  29.4403680
  59.7239440 109.3881850  28.1467390  59.7275500 108.9471800  27.2971930
  60.6190560 109.7099180  28.2539210  55.5741820 109.2708340  27.1061600
  55.2341870 109.7483570  27.8628650  54.8119140 108.8173460  26.7462700
  59.7859590 110.3893930  21.1374150  59.9072410 110.3480410  22.0859970
  59.4008100 111.2518080  20.9820880  63.7487960 108.1661330  29.1537840
  63.7660700 108.6169980  29.9979690  63.5003540 107.2666970  29.3671280
  58.7981090 112.6995070  20.5357450  58.2297990 112.2513320  19.9093360
  59.5070090 113.0587850  20.0022600  67.1758710 105.5793510  34.9924220
  67.5004480 104.8483170  35.5182200  67.2115220 105.2607150  34.0905210
  52.8887900 108.1927320  26.0226270  52.6034820 107.8282990  26.8604890
  52.8266760 107.4607780  25.4089410  57.8146780 112.4892270  32.2117010
  57.5103850 113.3684250  32.4367370  58.7693240 112.5492060  32.2474450
  62.5626490 107.0856580  22.7439640  61.7491100 106.5869750  22.6684950
  62.3688440 107.9254830  22.3275990  65.2774880 111.4576230  21.0401800
  66.1654500 111.7693460  20.8653140  65.2479970 110.5848480  20.6482380
  67.5489150 112.7688070  20.5081660  67.4652870 113.2002290  19.6578100
  68.2683340 113.2286420  20.9408480  55.4465150 105.0597130  24.5753770
  55.3179780 105.0515030  25.5238690  54.6227170 105.3980220  24.2244780
  52.4459080 106.8188250  34.0360470  51.7317600 107.0185170  34.6413080
  52.8654120 106.0427820  34.4075270  63.9397860 109.3110560  31.7861920
  64.3078680 108.4905770  32.1141490  63.0796060 109.3712450  32.2017570
  67.3059890 108.2667500  22.5949480  66.6773050 108.3713170  21.8807710
  66.8111810 108.4864280  23.3843360  59.2743920 110.5453450  24.0107360
  58.5660070 111.0139790  24.4520970  59.5588400 109.8875460  24.6452550
  60.8999850 111.9650150  32.0099890  61.3985100 112.4395970  32.6751740
  61.0422800 111.0413670  32.2169920  63.3059350 107.2704110  25.4503150
  63.1827130 107.2890240  24.5012660  64.2543910 107.3183050  25.5701550
  57.4778940 108.8538530  21.3858070  58.3269470 109.2908680  21.3198260
  57.1110210 109.1658790  22.2130130  68.1066710 108.1818110  32.8528280
  67.6040310 108.9223510  33.1922090  68.9223370 108.5702110  32.5365070
  66.3988720 113.4251290  26.2989640  65.4578860 113.4401520  26.4737330
  66.7132790 112.6387250  26.7449940  55.0717120 112.5395960  20.5426490
  55.1520710 111.5923470  20.6543890  55.9636870 112.8702840  20.6487150
  54.6311000 112.5040470  36.6732730  54.6716340 112.2054340  37.5817960
  55.4856500 112.9048080  36.5140250  56.5716810 111.0832570  34.6407220
  56.0413270 110.5923520  34.0130560  57.2404880 111.5116770  34.1065150
  65.9417040 112.8898190  36.4087560  66.5237810 112.1350510  36.3208040
  66.1178810 113.4205630  35.6319040  57.0589110 108.0494940  34.7204510
  56.9645980 107.4315690  33.9955380  56.4786500 108.7761230  34.4934420
  59.8250550 106.6068180  31.7531900  59.3767850 106.6292440  30.9077450
  59.1915750 106.2087200  32.3502200  62.5674000 113.2338690  33.7582180
  62.6870210 112.6379830  34.4977020  63.4268000 113.2708380  33.3383480
  57.3048290 111.1769250  18.7794400  57.1037350 110.3136610  19.1407740
  57.1340340 111.0902610  17.8416000  59.3342770 109.7760040  35.0158000
  59.9242460 109.4675890  35.7035820  58.5163010 109.3039790  35.1717900
  64.1536200 109.3925850  35.2491020  63.4651720 108.7307390  35.1841010
  64.8742220 108.9464120  35.6939480  64.7836600 105.9877480  21.3081280
  65.0638890 105.1445380  21.6640700  64.0102330 106.2200590  21.8220030
  56.1031090 108.2769870  18.7672280  56.4056990 108.2837300  17.8591430
  56.8425680 107.9267730  19.2639940  59.3216020 107.2204490  19.7528480
  58.9738020 106.5428480  19.1730930  59.5228790 106.7594000  20.5671870
  52.6621660 113.7492140  26.1492850  52.0070500 113.4803780  25.5052550
  53.4999610 113.6396620  25.6994830  65.6112100 108.5433430  20.3711340
  66.0296980 108.3564410  19.5308000  65.3048160 107.6912480  20.6814270
  69.1101830 113.4557570  24.0687140  68.7345430 112.6885500  23.6368430
  68.3804950 113.8380270  24.5562070  68.5001450 112.6029090  33.7026660
  68.2687540 112.3741840  32.8024610  68.7606000 113.5228640  33.6571550
  53.2513590 111.0453800  34.5954610  52.3569640 111.0120560  34.9348320
  53.7911140 111.2440590  35.3605860  66.9389520 107.8285520  36.4806360
  67.8159700 107.8368920  36.8640360  66.9510360 107.0916360  35.8698710
  51.8759740 110.9591070  22.0918180  50.9723820 111.2221270  21.9169840
  52.3600360 111.2302240  21.3118140  68.3852790 111.6815060  27.3694380
  68.9090270 111.1877710  26.7384550  68.9712210 111.8165420  28.1141950
  68.5642510 111.7654930  30.8913930  67.6145220 111.7318470  31.0058920
  68.7455520 112.6755040  30.6563700  54.4186950 110.0156610  20.0012560
  55.1278650 109.5939830  19.5159840  53.7026890 110.0831840  19.3695910
  54.0661110 106.0695940  19.0415210  54.7889240 106.6104880  19.3596430
  54.3385630 105.7959360  18.1656750  67.8752760 110.9388410  23.3086790
  68.3711880 110.7059280  24.0935670  67.6768830 110.1000250  22.8924430
  53.7553300 105.3202130  28.9437830  54.4029490 104.7699510  28.5032990
  54.1755140 105.5745280  29.7653640  69.3039920 109.5749360  25.8424470
  69.1939200 109.4205400  26.7806740  70.0647510 109.0470300  25.5999880
  67.6505640 105.5143490  32.3007470  68.2877860 106.1277630  32.6666660
  67.7980530 105.5504150  31.3556700  70.1930190 107.4057280  19.0830610
  71.1179500 107.2738460  18.8748900  70.1705980 107.4850100  20.0367060
  70.2668680 108.1767940  21.7087320  69.4720180 108.1113060  22.2380230
  70.4711960 109.1118580  21.6972670  53.5085300 105.4757800  31.6863150
  53.1600120 105.9321620  32.4521330  53.1773000 104.5814930  31.7685580
  61.0210120 106.6669680  35.2082570  60.9599010 107.2591510  35.9577980
  61.9610500 106.5595640  35.0632830  63.6584680 106.3239740  34.8474860
  64.2725090 106.6419030  34.1855940  64.2034240 105.8388330  35.4670720
  54.1805940 105.0034000  34.9613920  54.7288930 104.8222050  34.1980030
  54.2461250 104.2128110  35.4970230  64.3992720 104.8871880  31.1744150
  63.5252560 105.2206990  30.9717080  64.2903470 104.4145060  31.9996020
  65.3064700 107.0942750  32.5585870  64.9778060 106.2794510  32.1787600
  66.2547000 107.0512560  32.4351560  62.1467540 105.8041720  30.1137060
  61.3639330 106.2787220  30.3933820  61.8530470 104.8996550  30.0050240
  66.6988610 106.5064820  28.1586150  67.1396700 106.4509920  27.3107750
  66.4296200 107.4222830  28.2296330  68.5627180 106.1380060  26.1694970
  68.5015580 105.1941280  26.0225990  69.3419210 106.2460150  26.7148430
  53.4907950 106.1089200  22.6350780  54.2487310 106.2218080  22.0614810
  53.0285120 106.9458400  22.5894210  60.0321760 108.2228470  25.6253090
  59.2196270 107.8485360  25.2848970  60.5363400 107.4673550  25.9274280
  64.5346740 104.8870920  26.8636160  65.1376110 105.4591130  27.3384680
  63.7939730 105.4510360  26.6410060  67.6781340 105.2892480  22.1376440
  67.8731970 106.1875930  22.4043870  66.8911210 105.0579560  22.6309390
  55.8633100 106.6353250  21.1752750  56.3925860 105.8483050  21.0460700
  56.4961420 107.3144440  21.4088280  58.0570940 106.3728390  24.2298140
  57.4273680 105.6715700  24.3968270  57.5176080 107.1332520  24.0131300
  58.1826500 105.6512370  36.6650630  57.9010770 106.1545970  35.9011450
  58.5646200 104.8534120  36.2992760  64.7841960 105.0665950  37.2431100
  64.6707410 105.3860560  38.1382620  65.6011700 105.4678460  36.9468380
  63.6900110 113.0858420   7.6065840  63.6094160 112.1713030   7.3357550
  63.2764530 113.5825490   6.9005550  54.2475930 110.1359140   4.1493260
  53.3592630 110.4775110   4.0473140  54.5317120 109.9359460   3.2574090
  52.2108940 112.7364790  10.0332960  52.7825050 111.9686990  10.0336600
  52.2110480 113.0353550   9.1239570  53.4533810 108.1449150  11.8201890
  53.2736650 107.2474900  12.1004650  53.0513890 108.6921020  12.4948840
  62.2932310 110.3465010   9.7214200  62.6697130 109.4736890   9.6087870
  62.1951820 110.6823710   8.8304640  56.4237320 108.7190640   5.1831640
  56.5304070 109.6194370   5.4900400  55.5129680 108.6708610   4.8926290
  66.0756430 107.8415450   6.6542540  66.8966050 107.3512020   6.6968020
  66.1090510 108.4313110   7.4074380  54.0720480 110.6409650  10.4284230
  54.7530590 110.9048020  11.0471630  53.7568530 109.8010520  10.7622240
  58.2645050 111.6877010   9.5156820  58.7723270 112.1857980  10.1561840
  58.7958290 110.9112210   9.3396180  70.3655980 109.8582200  13.2186170
  69.6608150 110.2463910  12.7001280  70.6313900 110.5532490  13.8207100
  56.5481150 106.3275570  13.7820240  56.5499590 106.8447960  12.9766140
  55.7185460 105.8505750  13.7590170  66.3117910 109.7815830   9.4270080
  65.6073480 110.0700720  10.0073190  66.6730070 110.5915940   9.0669640
  56.2296480 108.0385530  11.7890690  56.5713290 108.8827580  11.4944560
  55.2912290 108.1869270  11.9056030  69.3804830 109.2270620   9.8179290
  68.4329740 109.2609600   9.9494720  69.7054820 110.0409570  10.2028650
  59.9124370 105.5267800   8.1135280  60.2199350 104.9714690   7.3970780
  58.9825070 105.6612260   7.9308270  62.2874210 109.8633630   1.8462560
  61.3477880 110.0247590   1.9315020  62.6057470 110.5819310   1.2998550
  65.7728980 111.3321470  12.7696460  65.3600160 112.1575180  13.0236450
  65.0404930 110.7466510  12.5772820  56.6190390 110.8924580  11.4114170
  57.1704980 111.0019920  10.6367420  57.1333900 111.2662180  12.1269400
  54.6066400 113.0126350   5.1321780  54.4864000 113.7388440   4.5203050
  54.2967290 112.2429260   4.6549690  69.2985550 110.3838050  16.6518580
  68.6829820 110.8917720  16.1234040  68.9781970 109.4836380  16.5944520
  57.0730060 106.3561420   8.5145450  56.6298210 107.1370960   8.1829970
  57.6315050 106.6791310   9.2216390  61.3599870 109.2229940  14.1180770
  60.8979240 109.4312960  14.9300710  60.9577980 108.4089290  13.8151440
  66.3604380 110.4438890  15.2477430  65.5097970 110.1444640  15.5686500
  66.2006170 110.6880900  14.3361250  63.4554090 111.9440640  17.3476220
  63.7807500 111.1104390  17.0078450  64.2434420 112.4669160  17.4954550
  60.1888880 105.9772120   3.3951280  59.5643060 105.9731990   4.1204590
  60.1019000 105.1103080   2.9987250  59.1105960 106.9008750  10.3735050
  59.4078290 107.8071580  10.2927070  59.6591520 106.4127530   9.7594620
  56.8644280 111.4794990   6.2426700  56.6385200 111.2632160   7.1473320
  56.0836810 111.9123450   5.8972670  64.0942040 111.4858360   4.8417350
  63.4950930 112.2094160   4.6580970  64.6421650 111.4235140   4.0593800
  59.3043490 112.3780570  16.9086970  59.2087090 111.4375300  16.7587370
  60.1475470 112.5995640  16.5135040  62.7006910 110.1221900   6.8720630
  63.0936480 110.4394100   6.0589320  63.0623760 109.2433780   6.9865150
  54.4354030 108.7894240  15.0620750  54.0417420 109.6369450  15.2693530
  53.7472430 108.1520610  15.2529390  61.0099080 108.8729210  18.1317490
  60.3197400 108.6801410  18.7663580  61.7531380 109.1563850  18.6641790
  51.7371080 106.7122700   9.0950830  51.4484130 107.2825560   9.8075810
  52.4816840 106.2327150   9.4582060  63.2862050 112.7127650  10.9671410
  62.5543170 113.2214460  11.3161510  62.8886390 111.8957630  10.6660190
  59.7239440 109.3881850   9.3723900  59.7275500 108.9471800   8.5228440
  60.6190560 109.7099180   9.4795720  55.5741820 109.2708340   8.3318110
  55.2341870 109.7483570   9.0885160  54.8119140 108.8173460   7.9719210
  59.7859590 110.3893930   2.3630660  59.9072410 110.3480410   3.3116480
  59.4008100 111.2518080   2.2077390  63.7487960 108.1661330  10.3794350
  63.7660700 108.6169980  11.2236200  63.5003540 107.2666970  10.5927790
  67.1758710 105.5793510  16.2180730  67.5004480 104.8483170  16.7438710
  67.2115220 105.2607150  15.3161720  52.8887900 108.1927320   7.2482780
  52.6034820 107.8282990   8.0861400  52.8266760 107.4607780   6.6345920
  57.8146780 112.4892270  13.4373520  57.5103850 113.3684250  13.6623880
  58.7693240 112.5492060  13.4730960  62.5626490 107.0856580   3.9696150
  61.7491100 106.5869750   3.8941460  62.3688440 107.9254830   3.5532500
  65.2774880 111.4576230   2.2658310  66.1654500 111.7693460   2.0909650
  65.2479970 110.5848480   1.8738890  55.4465150 105.0597130   5.8010280
  55.3179780 105.0515030   6.7495200  54.6227170 105.3980220   5.4501290
  52.4459080 106.8188250  15.2616980  51.7317600 107.0185170  15.8669590
  52.8654120 106.0427820  15.6331780  63.9397860 109.3110560  13.0118430
  64.3078680 108.4905770  13.3398000  63.0796060 109.3712450  13.4274080
  67.3059890 108.2667500   3.8205990  66.6773050 108.3713170   3.1064220
  66.8111810 108.4864280   4.6099870  59.2743920 110.5453450   5.2363870
  58.5660070 111.0139790   5.6777480  59.5588400 109.8875460   5.8709060
  60.8999850 111.9650150  13.2356400  61.3985100 112.4395970  13.9008250
  61.0422800 111.0413670  13.4426430  63.3059350 107.2704110   6.6759660
  63.1827130 107.2890240   5.7269170  64.2543910 107.3183050   6.7958060
  57.4778940 108.8538530   2.6114580  58.3269470 109.2908680   2.5454770
  57.1110210 109.1658790   3.4386640  68.1066710 108.1818110  14.0784790
  67.6040310 108.9223510  14.4178600  68.9223370 108.5702110  13.7621580
  66.3988720 113.4251290   7.5246150  65.4578860 113.4401520   7.6993840
  66.7132790 112.6387250   7.9706450  55.0717120 112.5395960   1.7683000
  55.1520710 111.5923470   1.8800400  55.9636870 112.8702840   1.8743660
  54.6311000 112.5040470  17.8989240  54.6716340 112.2054340  18.8074470
  55.4856500 112.9048080  17.7396760  56.5716810 111.0832570  15.8663730
  56.0413270 110.5923520  15.2387070  57.2404880 111.5116770  15.3321660
  65.9417040 112.8898190  17.6344070  66.5237810 112.1350510  17.5464550
  66.1178810 113.4205630  16.8575550  57.0589110 108.0494940  15.9461020
  56.9645980 107.4315690  15.2211890  56.4786500 108.7761230  15.7190930
  59.8250550 106.6068180  12.9788410  59.3767850 106.6292440  12.1333960
  59.1915750 106.2087200  13.5758710  62.5674000 113.2338690  14.9838690
  62.6870210 112.6379830  15.7233530  63.4268000 113.2708380  14.5639990
  59.3342770 109.7760040  16.2414510  59.9242460 109.4675890  16.9292330
  58.5163010 109.3039790  16.3974410  64.1536200 109.3925850  16.4747530
  63.4651720 108.7307390  16.4097520  64.8742220 108.9464120  16.9195990
  64.7836600 105.9877480   2.5337790  65.0638890 105.1445380   2.8897210
  64.0102330 106.2200590   3.0476540  52.6621660 113.7492140   7.3749360
  52.0070500 113.4803780   6.7309060  53.4999610 113.6396620   6.9251340
  69.1101830 113.4557570   5.2943650  68.7345430 112.6885500   4.8624940
  68.3804950 113.8380270   5.7818580  68.5001450 112.6029090  14.9283170
  68.2687540 112.3741840  14.0281120  68.7606000 113.5228640  14.8828060
  53.2513590 111.0453800  15.8211120  52.3569640 111.0120560  16.1604830
  53.7911140 111.2440590  16.5862370  66.9389520 107.8285520  17.7062870
  67.8159700 107.8368920  18.0896870  66.9510360 107.0916360  17.0955220
  51.8759740 110.9591070   3.3174690  50.9723820 111.2221270   3.1426350
  52.3600360 111.2302240   2.5374650  68.3852790 111.6815060   8.5950890
  68.9090270 111.1877710   7.9641060  68.9712210 111.8165420   9.3398460
  68.5642510 111.7654930  12.1170440  67.6145220 111.7318470  12.2315430
  68.7455520 112.6755040  11.8820210  67.8752760 110.9388410   4.5343300
  68.3711880 110.7059280   5.3192180  67.6768830 110.1000250   4.1180940
  53.7553300 105.3202130  10.1694340  54.4029490 104.7699510   9.7289500
  54.1755140 105.5745280  10.9910150  69.3039920 109.5749360   7.0680980
  69.1939200 109.4205400   8.0063250  70.0647510 109.0470300   6.8256390
  67.6505640 105.5143490  13.5263980  68.2877860 106.1277630  13.8923170
  67.7980530 105.5504150  12.5813210  70.2668680 108.1767940   2.9343830
  69.4720180 108.1113060   3.4636740  70.4711960 109.1118580   2.9229180
  53.5085300 105.4757800  12.9119660  53.1600120 105.9321620  13.6777840
  53.1773000 104.5814930  12.9942090  61.0210120 106.6669680  16.4339080
  60.9599010 107.2591510  17.1834490  61.9610500 106.5595640  16.2889340
  63.6584680 106.3239740  16.0731370  64.2725090 106.6419030  15.4112450
  64.2034240 105.8388330  16.6927230  54.1805940 105.0034000  16.1870430
  54.7288930 104.8222050  15.4236540  54.2461250 104.2128110  16.7226740
  64.3992720 104.8871880  12.4000660  63.5252560 105.2206990  12.1973590
  64.2903470 104.4145060  13.2252530  65.3064700 107.0942750  13.7842380
  64.9778060 106.2794510  13.4044110  66.2547000 107.0512560  13.6608070
  62.1467540 105.8041720  11.3393570  61.3639330 106.2787220  11.6190330
  61.8530470 104.8996550  11.2306750  66.6988610 106.5064820   9.3842660
  67.1396700 106.4509920   8.5364260  66.4296200 107.4222830   9.4552840
  68.5627180 106.1380060   7.3951480  68.5015580 105.1941280   7.2482500
  69.3419210 106.2460150   7.9404940  53.4907950 106.1089200   3.8607290
  54.2487310 106.2218080   3.2871320  53.0285120 106.9458400   3.8150720
  60.0321760 108.2228470   6.8509600  59.2196270 107.8485360   6.5105480
  60.5363400 107.4673550   7.1530790  64.5346740 104.8870920   8.0892670
  65.1376110 105.4591130   8.5641190  63.7939730 105.4510360   7.8666570
  67.6781340 105.2892480   3.3632950  67.8731970 106.1875930   3.6300380
  66.8911210 105.0579560   3.8565900  55.8633100 106.6353250   2.4009260
  56.3925860 105.8483050   2.2717210  56.4961420 107.3144440   2.6344790
  58.0570940 106.3728390   5.4554650  57.4273680 105.6715700   5.6224780
  57.5176080 107.1332520   5.2387810  58.1826500 105.6512370  17.8907140
  57.9010770 106.1545970  17.1267960  58.5646200 104.8534120  17.5249270
  64.7841960 105.0665950  18.4687610  64.6707410 105.3860560  19.3639130
  65.6011700 105.4678460  18.1724890  63.6900110  94.3114930 101.4783290
  63.6094160  93.3969540 101.2075000  63.2764530  94.8082000 100.7723000
  61.8218150  96.0893950 103.3592560  61.0460250  95.6094390 103.6491130
  62.4731080  95.4099600 103.1848720  55.8383980  96.4013760 104.2368320
  55.0068860  96.1462470 104.6364830  56.4464960  96.4724530 104.9726240
  65.8425580 100.4954140 102.1391690  65.3807110  99.7241380 102.4678860
  66.6551130 100.5220210 102.6444140  55.8185240 100.4353850 104.4326340
  56.1213280  99.5451590 104.2536560  56.5628830 100.9924070 104.2048590
  54.2475930  91.3615650  98.0210710  53.3592630  91.7031620  97.9190590
  54.5317120  91.1615970  97.1291540  52.2108940  93.9621300 103.9050410
  52.7825050  93.1943500 103.9054050  52.2110480  94.2610060 102.9957020
  62.0688890 102.7812150 101.7595680  61.4500330 103.2369650 101.1890120
  62.9240670 102.9363610 101.3585380  61.2627140  98.7651140 103.3662720
  61.1935420  97.8241080 103.2051850  62.0247000  98.8552550 103.9385290
  53.4533810  89.3705660 105.6919340  53.2736650  88.4731410 105.9722100
  53.0513890  89.9177530 106.3666290  62.2932310  91.5721520 103.5931650
  62.6697130  90.6993400 103.4805320  62.1951820  91.9080220 102.7022090
  56.4237320  89.9447150  99.0549090  56.5304070  90.8450880  99.3617850
  55.5129680  89.8965120  98.7643740  66.0756430  89.0671960 100.5259990
  66.8966050  88.5768530 100.5685470  66.1090510  89.6569620 101.2791830
  54.0720480  91.8666160 104.3001680  54.7530590  92.1304530 104.9189080
  53.7568530  91.0267030 104.6339690  58.2645050  92.9133520 103.3874270
  58.7723270  93.4114490 104.0279290  58.7958290  92.1368720 103.2113630
  70.3655980  91.0838710 107.0903620  69.6608150  91.4720420 106.5718730
  70.6313900  91.7789000 107.6924550  56.5481150  87.5532080 107.6537690
  56.5499590  88.0704470 106.8483590  55.7185460  87.0762260 107.6307620
  62.9352240  97.6651390  99.1527590  62.3169510  98.1300840  98.5890310
  63.4475490  98.3578870  99.5697100  57.7984000  97.1927260 105.8311190
  57.4653380  97.8196180 106.4732260  57.9750680  97.7189140 105.0512860
  66.3117910  91.0072340 103.2987530  65.6073480  91.2957230 103.8790640
  66.6730070  91.8172450 102.9387090  56.2296480  89.2642040 105.6608140
  56.5713290  90.1084090 105.3662010  55.2912290  89.4125780 105.7773480
  57.0103100  99.1608060 107.6460370  57.6277100  99.8359140 107.3644820
  56.1496220  99.5696040 107.5547870  52.3035440  98.3507920  96.5267220
  51.9263420  98.8395020  95.7952120  52.5608510  99.0233200  97.1573750
  67.9280690 100.6247470 105.5615010  67.2444210 101.2946580 105.5531680
  68.4674980 100.8228120 104.7959870  69.3804830  90.4527130 103.6896740
  68.4329740  90.4866110 103.8212170  69.7054820  91.2666080 104.0746100
  59.9124370  86.7524310 101.9852730  60.2199350  86.1971200 101.2688230
  58.9825070  86.8868770 101.8025720  65.4639430 102.4691600 104.2760190
  65.4766590 102.0653890 103.4082450  64.9114650 103.2438890 104.1721620
  66.7584850  99.1907820  99.3650360  66.6481180  98.2482150  99.4899780
  66.7553100  99.5523460 100.2513120  64.8624870  97.3721440 105.6042800
  65.2793660  97.1581550 104.7696260  65.5864690  97.6294230 106.1751420
  62.3005130  94.8173140  98.7212850  61.3734410  94.7510520  98.9501320
  62.4529950  95.7553270  98.6068090  62.2874210  91.0890140  95.7180010
  61.3477880  91.2504100  95.8032470  62.6057470  91.8075820  95.1716000
  68.8086970  95.7708660 105.6959040  67.9805600  95.8401750 105.2209170
  69.4037450  96.3562970 105.2274870  66.3302420  96.3793440  99.2248100
  65.7114840  96.0412990  98.5774400  66.3126870  95.7353200  99.9327290
  65.7728980  92.5577980 106.6413910  65.3600160  93.3831690 106.8953900
  65.0404930  91.9723020 106.4490270  57.9061770  95.3437880 101.5032580
  57.5018770  94.6315130 101.0078480  57.9924890  94.9991120 102.3920620
  58.3743470  99.0305440 103.6671790  58.0771760  98.4250910 102.9879570
  59.3243290  99.0682750 103.5561150  56.6190390  92.1181090 105.2831620
  57.1704980  92.2276430 104.5084870  57.1333900  92.4918690 105.9986850
  66.4629080 102.6037310 107.3294890  65.9859640 103.4109500 107.1367500
  65.7790870 101.9515640 107.4821100  57.4661900  98.7687130 110.3179590
  56.5690430  98.9927100 110.5652990  57.4914770  98.8922070 109.3690990
  64.5067120  95.6180250  96.2320850  64.9460400  94.7802680  96.0858670
  65.2195540  96.2509650  96.3184990  56.2933120  95.6400450 108.8936960
  56.1540890  96.5123250 109.2624360  55.4114480  95.2973260 108.7484900
  62.6162500 100.5576320 100.2002090  63.0558410 101.3000650  99.7857480
  62.5549390 100.8002890 101.1241050  68.0884260  86.8723060  94.5461890
  67.7756920  86.9649890  95.4460960  68.8496730  87.4504090  94.4959320
  54.6066400  94.2382860  99.0039230  54.4864000  94.9644950  98.3920500
  54.2967290  93.4685770  98.5267140  52.2451770  97.4098000 104.8107870
  52.3232190  97.5446770 103.8663590  52.8593450  96.7013890 105.0035990
  53.4899400  99.1098190 101.2214050  53.0827480  99.2512780 100.3667650
  54.3812410  98.8258350 101.0185260  69.4461540  99.5562100 109.5586290
  69.5724600  99.3173980 108.6403470  69.4882920  98.7246640 110.0308370
  63.3078280 103.2590100 108.1281100  63.8222950 103.1698110 108.9303530
  62.4647360 103.6049800 108.4209010  65.2832680 103.5445440  97.5565100
  65.1233820 103.2548380  98.4546930  65.1179390 102.7685570  97.0210330
  57.7621060 103.3243970  99.3336720  57.5863540 102.4079510  99.1204520
  56.9076800 103.6831260  99.5734520  64.9858810 101.0533000  96.1163100
  64.2923970 101.0510290  95.4565380  65.7281670 100.6292320  95.6857270
  64.5508740 102.6795710 100.1911590  65.0065690 101.8985090 100.5050210
  64.8901260 103.3902530 100.7352770  69.2985550  91.6094560 110.5236030
  68.6829820  92.1174230 109.9951490  68.9781970  90.7092890 110.4661970
  52.3011290  98.4512170 107.3502330  52.4642330  97.9817530 106.5321700
  52.7663740  97.9435730 108.0151170  57.0730060  87.5817930 102.3862900
  56.6298210  88.3627470 102.0547420  57.6315050  87.9047820 103.0933840
  61.3599870  90.4486450 107.9898220  60.8979240  90.6569470 108.8018160
  60.9577980  89.6345800 107.6868890  66.3604380  91.6695400 109.1194880
  65.5097970  91.3701150 109.4403950  66.2006170  91.9137410 108.2078700
  60.1888880  87.2028630  97.2668730  59.5643060  87.1988500  97.9922040
  60.1019000  86.3359590  96.8704700  59.1105960  88.1265260 104.2452500
  59.4078290  89.0328090 104.1644520  59.6591520  87.6384040 103.6312070
  56.8644280  92.7051500 100.1144150  56.6385200  92.4888670 101.0190770
  56.0836810  93.1379960  99.7690120  64.0942040  92.7114870  98.7134800
  63.4950930  93.4350670  98.5298420  64.6421650  92.6491650  97.9311250
  59.3043490  93.6037080 110.7804420  59.2087090  92.6631810 110.6304820
  60.1475470  93.8252150 110.3852490  62.7006910  91.3478410 100.7438080
  63.0936480  91.6650610  99.9306770  63.0623760  90.4690290 100.8582600
  54.4354030  90.0150750 108.9338200  54.0417420  90.8625960 109.1410980
  53.7472430  89.3777120 109.1246840  51.7371080  87.9379210 102.9668280
  51.4484130  88.5082070 103.6793260  52.4816840  87.4583660 103.3299510
  51.9241310  91.8799330  94.1771000  51.8415980  92.8230090  94.3185990
  51.5724370  91.7374240  93.2983350  63.2862050  93.9384160 104.8388860
  62.5543170  94.4470970 105.1878960  62.8886390  93.1214140 104.5377640
  59.7239440  90.6138360 103.2441350  59.7275500  90.1728310 102.3945890
  60.6190560  90.9355690 103.3513170  55.5741820  90.4964850 102.2035560
  55.2341870  90.9740080 102.9602610  54.8119140  90.0429970 101.8436660
  59.7859590  91.6150440  96.2348110  59.9072410  91.5736920  97.1833930
  59.4008100  92.4774590  96.0794840  63.7487960  89.3917840 104.2511800
  63.7660700  89.8426490 105.0953650  63.5003540  88.4923480 104.4645240
  58.7981090  93.9251580  95.6331410  58.2297990  93.4769830  95.0067320
  59.5070090  94.2844360  95.0996560  67.1758710  86.8050020 110.0898180
  67.5004480  86.0739680 110.6156160  67.2115220  86.4863660 109.1879170
  53.8750270  97.8263600 109.5098140  53.4905060  97.1857270 110.1081100
  54.1862460  98.5299720 110.0792870  60.0247410  94.6740140 104.9906760
  60.3917540  94.1998710 105.7368100  59.8352470  95.5481710 105.3315100
  52.8887900  89.4183830 101.1200230  52.6034820  89.0539500 101.9578850
  52.8266760  88.6864290 100.5063370  57.8146780  93.7148780 107.3090970
  57.5103850  94.5940760 107.5341330  58.7693240  93.7748570 107.3448410
  56.3428570  97.9209770  97.9057820  55.5690830  97.3807390  97.7456540
  57.0723200  97.4016380  97.5675580  67.1016550  96.9175130 103.6984210
  67.8215670  97.4130420 103.3080320  66.8998370  96.2393020 103.0538080
  62.5626490  88.3113090  97.8413600  61.7491100  87.8126260  97.7658910
  62.3688440  89.1511340  97.4249950  62.4835350  96.9884190 109.5853210
  62.4172660  96.0679860 109.3310800  61.8540490  97.0859630 110.2997850
  65.2774880  92.6832740  96.1375760  66.1654500  92.9949970  95.9627100
  65.2479970  91.8104990  95.7456340  56.3865970  97.5890150 101.5436630
  56.9044640  96.7858410 101.4893520  55.9349990  97.5269290 102.3853460
  61.2735470  98.8556430  96.8163930  61.6151170  99.5998660  96.3207250
  60.4448180  99.1687550  97.1788760  53.8710510  94.5551520 108.4562330
  53.5125450  95.2205370 109.0435670  53.5765070  93.7235070 108.8274950
  62.4152080  99.8104760 109.3357010  62.4296620  98.8785720 109.1175920
  61.7077180  99.8964520 109.9746780  67.5489150  93.9944580  95.6055620
  67.4652870  94.4258800  94.7552060  68.2683340  94.4542930  96.0382440
  68.6263290  96.4512100 108.6825590  67.9011480  97.0440880 108.4854980
  69.1538750  96.4435640 107.8838960  68.5776400 100.8486840  98.3337750
  67.9352560 100.1942460  98.6081470  68.1907060 101.2541930  97.5578420
  64.1562880  98.1772270 102.1809440  64.5086700  97.5800400 101.5210810
  63.2725210  97.8516500 102.3517690  60.2426160  98.9369960  99.5879850
  60.9297290  99.4839170  99.9687440  59.4558580  99.4810690  99.6229460
  52.3818560  94.5542780  95.0796930  53.2513410  94.8367580  95.3632850
  51.8908880  95.3678650  94.9645740  59.5453370  95.9415990  99.2005210
  60.0016150  96.7521240  99.4265400  59.1941580  95.6239130 100.0323700
  61.8485980 101.4522330 106.4297510  62.4928200 101.6581710 107.1070930
  62.2115420 100.6910730 105.9768360  55.4465150  86.2853640  99.6727730
  55.3179780  86.2771540 100.6212650  54.6227170  86.6236730  99.3218740
  63.1218060  99.4554680 105.1474960  63.7640290  98.7547840 105.2607130
  63.6467410 100.2353120 104.9671850  66.9673780  99.7403300  94.8714100
  66.7411360  99.0233740  95.4638740  66.5769980  99.4915740  94.0335850
  64.8955680 100.2549580 108.3511020  65.2311920 100.8416270 109.0288940
  63.9756020 100.1242290 108.5808810  52.7489810 103.7670160  95.6458560
  53.1087450 104.3659500  94.9915830  52.6082150 104.3130050  96.4193590
  52.4459080  88.0444760 109.1334430  51.7317600  88.2441680 109.7387040
  52.8654120  87.2684330 109.5049230  66.5490030  97.6575240  96.5328260
  66.2611730  98.1187930  97.3206140  67.3442200  97.1973010  96.8012480
  52.7331670 102.0325020 110.1200960  52.8422790 101.0919760 109.9796350
  52.0812230 102.2979770 109.4714690  58.7658430 101.1501360  96.4632230
  58.7568530 101.8831050  95.8476740  57.8456790 100.9032940  96.5559190
  54.3665070  96.3716250  97.2078990  53.7593020  97.1115150  97.2174290
  54.8414420  96.4615610  96.3817190  63.9397860  90.5367070 106.8835880
  64.3078680  89.7162280 107.2115450  63.0796060  90.5968960 107.2991530
  67.3059890  89.4924010  97.6923440  66.6773050  89.5969680  96.9781670
  66.8111810  89.7120790  98.4817320  61.7518030 101.2129600  95.1257420
  61.8530010 101.0093590  94.1959400  60.8519770 100.9587880  95.3305200
  59.2743920  91.7709960  99.1081320  58.5660070  92.2396300  99.5494930
  59.5588400  91.1131970  99.7426510  60.8999850  93.1906660 107.1073850
  61.3985100  93.6652480 107.7725700  61.0422800  92.2670180 107.3143880
  63.3059350  88.4960620 100.5477110  63.1827130  88.5146750  99.5986620
  64.2543910  88.5439560 100.6675510  60.3936140 103.7315920  99.8205090
  60.6477640 103.6937310  98.8984460  59.4448620 103.6049250  99.8133340
  57.4778940  90.0795040  96.4832030  58.3269470  90.5165190  96.4172220
  57.1110210  90.3915300  97.3104090  68.1066710  89.4074620 107.9502240
  67.6040310  90.1480020 108.2896050  68.9223370  89.7958620 107.6339030
  66.3988720  94.6507800 101.3963600  65.4578860  94.6658030 101.5711290
  66.7132790  93.8643760 101.8423900  56.3770360  96.3327400  94.9567560
  57.1433630  96.2208760  95.5192990  56.4545050  95.6365370  94.3044330
  55.0717120  93.7652470  95.6400450  55.1520710  92.8179980  95.7517850
  55.9636870  94.0959350  95.7461110  68.4014300 101.8216650 103.0717860
  68.5261720 102.6447820 103.5441670  69.2679860 101.6107380 102.7242010
  55.8731830 103.9147860 102.7434990  56.6094310 103.3663320 103.0143560
  56.2572750 104.7803870 102.6040980  52.7577310  99.9821430  98.6176500
  51.8317090 100.2242570  98.6081910  53.2233740 100.8095690  98.4961250
  58.9834140 103.0878170  94.5660560  59.7762750 103.3767000  94.1142350
  58.4638490 102.6570340  93.8873040  68.0364310 102.3148300  95.9897300
  67.7505820 101.9013440  95.1751480  67.8383860 103.2436010  95.8697820
  59.5011540  98.3081580  94.4302910  59.3962180  97.6933930  95.1564290
  59.3335760  97.7847470  93.6465920  59.6525860  96.9938380 110.4092140
  58.8871530  97.5623380 110.3246810  59.8341820  96.7014590 109.5160370
  62.7414270  97.3701610  95.0344900  62.1924370  97.8170910  95.6787640
  63.3633530  96.8650860  95.5582570  66.7949210  98.7243710 110.9667160
  67.5358680  99.0619470 110.4634620  66.0321890  98.8935770 110.4136930
  58.4089390  96.3292530  96.9310200  58.8305810  96.1632400  97.7741590
  58.5340230  95.5192760  96.4365340  56.5716810  92.3089080 109.7381180
  56.0413270  91.8180030 109.1104520  57.2404880  92.7373280 109.2039110
  60.9217030  95.3530140  94.1787300  61.4422690  94.6379160  93.8128450
  61.5685430  95.9916010  94.4787810  65.4694870  96.7758540 109.5022370
  65.8835890  96.9303620 110.3512790  64.5345870  96.9013760 109.6648150
  57.0589110  89.2751450 109.8178470  56.9645980  88.6572200 109.0929340
  56.4786500  90.0017740 109.5908380  59.8250550  87.8324690 106.8505860
  59.3767850  87.8548950 106.0051410  59.1915750  87.4343710 107.4476160
  60.2310100  96.7279020 107.4718300  60.6498210  97.5711750 107.2994540
  59.3118730  96.8651060 107.2425080  62.5674000  94.4595200 108.8556140
  62.6870210  93.8636340 109.5950980  63.4268000  94.4964890 108.4357440
  64.9061900  95.0132390 107.4318650  64.3797120  95.5375010 106.8283790
  65.2493240  95.6459780 108.0628380  57.3048290  92.4025760  93.8768360
  57.1037350  91.5393120  94.2381700  57.1340340  92.3159120  92.9389960
  58.0817520 103.0332030 108.5876030  57.5438610 103.7578090 108.2684730
  58.3351480 102.5562370 107.7973370  59.3342770  91.0016550 110.1131960
  59.9242460  90.6932400 110.8009780  58.5163010  90.5296300 110.2691860
  64.1536200  90.6182360 110.3464980  63.4651720  89.9563900 110.2814970
  64.8742220  90.1720630 110.7913440  64.7836600  87.2133990  96.4055240
  65.0638890  86.3701890  96.7614660  64.0102330  87.4457100  96.9193990
  56.1031090  89.5026380  93.8646240  56.4056990  89.5093810  92.9565390
  56.8425680  89.1524240  94.3613900  60.9379730 104.2683240 108.8462680
  60.8638430 105.1718380 109.1535050  60.0358570 103.9495140 108.8184750
  59.3216020  88.4461000  94.8502440  58.9738020  87.7684990  94.2704890
  59.5228790  87.9850510  95.6645830  61.4865060 103.4341750  96.4689040
  62.3815850 103.7726720  96.4907800  61.5182690 102.7121160  95.8413320
  55.1261220  98.8068800  94.6976040  55.5636090  99.3498470  95.3533620
  55.6108950  97.9815750  94.7072380  52.3407020 101.5957830 102.1496300
  52.6710030 100.7278890 101.9174940  52.7698020 101.8016350 102.9801260
  56.9368940  99.9266840  99.8098270  56.6364480  99.8031810 100.7102180
  56.8306430  99.0675430  99.4014000  52.8297230 102.4628420 104.8877930
  52.3928220 102.6429220 105.7202080  53.3974910 103.2203040 104.7459650
  68.4659410 101.9645420 109.1755240  67.8661400 102.0237980 108.4319160
  68.5953310 101.0250400 109.3052090  69.7060860  99.7063240  94.5124950
  68.8753820  99.7739890  94.9832180  69.8832690 100.5967360  94.2091810
  69.1617320  96.4510720  97.0159150  69.9236230  97.0207370  97.1218840
  69.1771690  95.8837920  97.7867460  52.6621660  94.9748650 101.2466810
  52.0070500  94.7060290 100.6026510  53.4999610  94.8653130 100.7968790
  70.1677290  97.3060820 101.8601080  70.5386120  96.5228140 101.4537050
  70.8079220  97.9949920 101.6818380  67.1511050  98.6897400 107.2731400
  66.3370890  99.1194560 107.5357190  67.5585250  99.3015810 106.6600450
  69.2136490  96.7445090  94.1731670  69.4885330  97.6523970  94.0450890
  69.0247230  96.6807620  95.1093660  65.6112100  89.7689940  95.4685300
  66.0296980  89.5820920  94.6281960  65.3048160  88.9168990  95.7788230
  69.1101830  94.6814080  99.1661100  68.7345430  93.9142010  98.7342390
  68.3804950  95.0636780  99.6536030  53.6997590  95.3601220 105.7870150
  54.0670630  95.2728620 106.6666170  53.1308410  94.5967770 105.6877010
  68.5001450  93.8285600 108.8000620  68.2687540  93.5998350 107.8998570
  68.7606000  94.7485150 108.7545510  53.2513590  92.2710310 109.6928570
  52.3569640  92.2377070 110.0322280  53.7911140  92.4697100 110.4579820
  51.8759740  92.1847580  97.1892140  50.9723820  92.4477780  97.0143800
  52.3600360  92.4558750  96.4092100  68.3852790  92.9071570 102.4668340
  68.9090270  92.4134220 101.8358510  68.9712210  93.0421930 103.2115910
  68.5642510  92.9911440 105.9887890  67.6145220  92.9574980 106.1032880
  68.7455520  93.9011550 105.7537660  54.4186950  91.2413120  95.0986520
  55.1278650  90.8196340  94.6133800  53.7026890  91.3088350  94.4669870
  54.0661110  87.2952450  94.1389170  54.7889240  87.8361390  94.4570390
  54.3385630  87.0215870  93.2630710  67.8752760  92.1644920  98.4060750
  68.3711880  91.9315790  99.1909630  67.6768830  91.3256760  97.9898390
  53.7553300  86.5458640 104.0411790  54.4029490  85.9956020 103.6006950
  54.1755140  86.8001790 104.8627600  69.3039920  90.8005870 100.9398430
  69.1939200  90.6461910 101.8780700  70.0647510  90.2726810 100.6973840
  67.6505640  86.7400000 107.3981430  68.2877860  87.3534140 107.7640620
  67.7980530  86.7760660 106.4530660  70.1930190  88.6313790  94.1804570
  71.1179500  88.4994970  93.9722860  70.1705980  88.7106610  95.1341020
  70.2668680  89.4024450  96.8061280  69.4720180  89.3369570  97.3354190
  70.4711960  90.3375090  96.7946630  67.2087100 103.4416000 100.7999670
  67.8046170 103.1200570 100.1234090  67.4665250 102.9687820 101.5912940
  53.5085300  86.7014310 106.7837110  53.1600120  87.1578130 107.5495290
  53.1773000  85.8071440 106.8659540  58.8155700 101.4293500 106.5500020
  58.5747060 101.6968060 105.6630540  59.7558340 101.5999230 106.6050880
  63.6584680  87.5496250 109.9448820  64.2725090  87.8675540 109.2829900
  64.2034240  87.0644840 110.5644680  70.0759860 103.4487880 107.3510660
  69.5818140 103.8456750 106.6337790  69.4673150 102.8237090 107.7447940
  54.1805940  86.2290510 110.0587880  54.7288930  86.0478560 109.2953990
  54.2461250  85.4384620 110.5944190  54.9537700 102.8196160 108.0688080
  54.3598020 102.6880860 108.8078120  54.9461540 101.9834300 107.6030180
  64.3992720  86.1128390 106.2718110  63.5252560  86.4463500 106.0691040
  64.2903470  85.6401570 107.0969980  65.3064700  88.3199260 107.6559830
  64.9778060  87.5051020 107.2761560  66.2547000  88.2769070 107.5325520
  67.7599310 104.0911300 104.6297400  67.3002280 104.8427110 104.2555420
  67.1311770 103.3717770 104.5712200  54.5849930 100.1854540 107.0196120
  53.8583990  99.5659830 106.9522070  54.6459080 100.5795150 106.1494200
  58.1895030 102.3999540 103.8045530  58.7060050 101.7886900 103.2793790
  58.8392410 102.9028320 104.2956540  60.9290530 103.2908030 104.6314510
  61.2168340 103.0362330 103.7547520  61.4413750 102.7385390 105.2220080
  62.1467540  87.0298230 105.2111020  61.3639330  87.5043730 105.4907780
  61.8530470  86.1253060 105.1024200  66.6988610  87.7321330 103.2560110
  67.1396700  87.6766430 102.4081710  66.4296200  88.6479340 103.3270290
  68.5627180  87.3636570 101.2668930  68.5015580  86.4197790 101.1199950
  69.3419210  87.4716660 101.8122390  52.8679930 103.5028930 100.2292880
  52.7001970 102.8699610 100.9274770  52.0014440 103.7088330  99.8787070
  53.4907950  87.3345710  97.7324740  54.2487310  87.4474590  97.1588770
  53.0285120  88.1714910  97.6868170  60.0321760  89.4484980 100.7227050
  59.2196270  89.0741870 100.3822930  60.5363400  88.6930060 101.0248240
  64.5346740  86.1127430 101.9610120  65.1376110  86.6847640 102.4358640
  63.7939730  86.6766870 101.7384020  67.6781340  86.5148990  97.2350400
  67.8731970  87.4132440  97.5017830  66.8911210  86.2836070  97.7283350
  54.4742630 102.1962160  97.6743020  53.9490250 102.5770190  96.9704980
  54.3987210 102.8212930  98.3952730  55.8633100  87.8609760  96.2726710
  56.3925860  87.0739560  96.1434660  56.4961420  88.5400950  96.5062240
  58.0570940  87.5984900  99.3272100  57.4273680  86.8972210  99.4942230
  57.5176080  88.3589030  99.1105260  69.2307950 103.7549700  98.9956960
  69.4060140 103.0687440  98.3517880  68.5329520 104.2796750  98.6033630
  57.0735600 104.1444540  96.5492270  57.8054420 103.8603820  96.0016160
  57.3329270 103.9057820  97.4391650  56.2350390 100.2609270  96.5538600
  55.6059270 100.7294370  97.1024430  56.3498220  99.4158490  96.9884790
  63.6900110  94.3114930  82.7039800  63.6094160  93.3969540  82.4331510
  63.2764530  94.8082000  81.9979510  61.8218150  96.0893950  84.5849070
  61.0460250  95.6094390  84.8747640  62.4731080  95.4099600  84.4105230
  55.8383980  96.4013760  85.4624830  55.0068860  96.1462470  85.8621340
  56.4464960  96.4724530  86.1982750  65.8425580 100.4954140  83.3648200
  65.3807110  99.7241380  83.6935370  66.6551130 100.5220210  83.8700650
  55.8185240 100.4353850  85.6582850  56.1213280  99.5451590  85.4793070
  56.5628830 100.9924070  85.4305100  54.2475930  91.3615650  79.2467220
  53.3592630  91.7031620  79.1447100  54.5317120  91.1615970  78.3548050
  52.2108940  93.9621300  85.1306920  52.7825050  93.1943500  85.1310560
  52.2110480  94.2610060  84.2213530  62.0688890 102.7812150  82.9852190
  61.4500330 103.2369650  82.4146630  62.9240670 102.9363610  82.5841890
  61.2627140  98.7651140  84.5919230  61.1935420  97.8241080  84.4308360
  62.0247000  98.8552550  85.1641800  53.4533810  89.3705660  86.9175850
  53.2736650  88.4731410  87.1978610  53.0513890  89.9177530  87.5922800
  62.2932310  91.5721520  84.8188160  62.6697130  90.6993400  84.7061830
  62.1951820  91.9080220  83.9278600  56.4237320  89.9447150  80.2805600
  56.5304070  90.8450880  80.5874360  55.5129680  89.8965120  79.9900250
  66.0756430  89.0671960  81.7516500  66.8966050  88.5768530  81.7941980
  66.1090510  89.6569620  82.5048340  54.0720480  91.8666160  85.5258190
  54.7530590  92.1304530  86.1445590  53.7568530  91.0267030  85.8596200
  58.2645050  92.9133520  84.6130780  58.7723270  93.4114490  85.2535800
  58.7958290  92.1368720  84.4370140  70.3655980  91.0838710  88.3160130
  69.6608150  91.4720420  87.7975240  70.6313900  91.7789000  88.9181060
  56.5481150  87.5532080  88.8794200  56.5499590  88.0704470  88.0740100
  55.7185460  87.0762260  88.8564130  62.9352240  97.6651390  80.3784100
  62.3169510  98.1300840  79.8146820  63.4475490  98.3578870  80.7953610
  57.7984000  97.1927260  87.0567700  57.4653380  97.8196180  87.6988770
  57.9750680  97.7189140  86.2769370  66.3117910  91.0072340  84.5244040
  65.6073480  91.2957230  85.1047150  66.6730070  91.8172450  84.1643600
  56.2296480  89.2642040  86.8864650  56.5713290  90.1084090  86.5918520
  55.2912290  89.4125780  87.0029990  57.0103100  99.1608060  88.8716880
  57.6277100  99.8359140  88.5901330  56.1496220  99.5696040  88.7804380
  52.3035440  98.3507920  77.7523730  51.9263420  98.8395020  77.0208630
  52.5608510  99.0233200  78.3830260  67.9280690 100.6247470  86.7871520
  67.2444210 101.2946580  86.7788190  68.4674980 100.8228120  86.0216380
  69.3804830  90.4527130  84.9153250  68.4329740  90.4866110  85.0468680
  69.7054820  91.2666080  85.3002610  59.9124370  86.7524310  83.2109240
  60.2199350  86.1971200  82.4944740  58.9825070  86.8868770  83.0282230
  65.4639430 102.4691600  85.5016700  65.4766590 102.0653890  84.6338960
  64.9114650 103.2438890  85.3978130  66.7584850  99.1907820  80.5906870
  66.6481180  98.2482150  80.7156290  66.7553100  99.5523460  81.4769630
  64.8624870  97.3721440  86.8299310  65.2793660  97.1581550  85.9952770
  65.5864690  97.6294230  87.4007930  62.3005130  94.8173140  79.9469360
  61.3734410  94.7510520  80.1757830  62.4529950  95.7553270  79.8324600
  62.2874210  91.0890140  76.9436520  61.3477880  91.2504100  77.0288980
  62.6057470  91.8075820  76.3972510  68.8086970  95.7708660  86.9215550
  67.9805600  95.8401750  86.4465680  69.4037450  96.3562970  86.4531380
  66.3302420  96.3793440  80.4504610  65.7114840  96.0412990  79.8030910
  66.3126870  95.7353200  81.1583800  65.7728980  92.5577980  87.8670420
  65.3600160  93.3831690  88.1210410  65.0404930  91.9723020  87.6746780
  57.9061770  95.3437880  82.7289090  57.5018770  94.6315130  82.2334990
  57.9924890  94.9991120  83.6177130  58.3743470  99.0305440  84.8928300
  58.0771760  98.4250910  84.2136080  59.3243290  99.0682750  84.7817660
  56.6190390  92.1181090  86.5088130  57.1704980  92.2276430  85.7341380
  57.1333900  92.4918690  87.2243360  66.4629080 102.6037310  88.5551400
  65.9859640 103.4109500  88.3624010  65.7790870 101.9515640  88.7077610
  57.4661900  98.7687130  91.5436100  56.5690430  98.9927100  91.7909500
  57.4914770  98.8922070  90.5947500  64.5067120  95.6180250  77.4577360
  64.9460400  94.7802680  77.3115180  65.2195540  96.2509650  77.5441500
  56.2933120  95.6400450  90.1193470  56.1540890  96.5123250  90.4880870
  55.4114480  95.2973260  89.9741410  62.6162500 100.5576320  81.4258600
  63.0558410 101.3000650  81.0113990  62.5549390 100.8002890  82.3497560
  58.0913470 101.5822150  92.3278620  58.0628900 101.9865100  91.4607050
  57.9278440 100.6532510  92.1650220  54.6066400  94.2382860  80.2295740
  54.4864000  94.9644950  79.6177010  54.2967290  93.4685770  79.7523650
  70.0428290 102.3649250  93.6242790  70.5188010 102.8432140  94.3031870
  70.6635450 102.2966740  92.8988290  52.2451770  97.4098000  86.0364380
  52.3232190  97.5446770  85.0920100  52.8593450  96.7013890  86.2292500
  53.4899400  99.1098190  82.4470560  53.0827480  99.2512780  81.5924160
  54.3812410  98.8258350  82.2441770  69.4461540  99.5562100  90.7842800
  69.5724600  99.3173980  89.8659980  69.4882920  98.7246640  91.2564880
  63.3078280 103.2590100  89.3537610  63.8222950 103.1698110  90.1560040
  62.4647360 103.6049800  89.6465520  65.2832680 103.5445440  78.7821610
  65.1233820 103.2548380  79.6803440  65.1179390 102.7685570  78.2466840
  57.7621060 103.3243970  80.5593230  57.5863540 102.4079510  80.3461030
  56.9076800 103.6831260  80.7991030  64.9858810 101.0533000  77.3419610
  64.2923970 101.0510290  76.6821890  65.7281670 100.6292320  76.9113780
  64.5508740 102.6795710  81.4168100  65.0065690 101.8985090  81.7306720
  64.8901260 103.3902530  81.9609280  69.2985550  91.6094560  91.7492540
  68.6829820  92.1174230  91.2208000  68.9781970  90.7092890  91.6918480
  52.3011290  98.4512170  88.5758840  52.4642330  97.9817530  87.7578210
  52.7663740  97.9435730  89.2407680  57.0730060  87.5817930  83.6119410
  56.6298210  88.3627470  83.2803930  57.6315050  87.9047820  84.3190350
  61.3599870  90.4486450  89.2154730  60.8979240  90.6569470  90.0274670
  60.9577980  89.6345800  88.9125400  66.3604380  91.6695400  90.3451390
  65.5097970  91.3701150  90.6660460  66.2006170  91.9137410  89.4335210
  63.4554090  93.1697150  92.4450180  63.7807500  92.3360900  92.1052410
  64.2434420  93.6925670  92.5928510  59.1105960  88.1265260  85.4709010
  59.4078290  89.0328090  85.3901030  59.6591520  87.6384040  84.8568580
  56.8644280  92.7051500  81.3400660  56.6385200  92.4888670  82.2447280
  56.0836810  93.1379960  80.9946630  64.0942040  92.7114870  79.9391310
  63.4950930  93.4350670  79.7554930  64.6421650  92.6491650  79.1567760
  59.3043490  93.6037080  92.0060930  59.2087090  92.6631810  91.8561330
  60.1475470  93.8252150  91.6109000  62.7006910  91.3478410  81.9694590
  63.0936480  91.6650610  81.1563280  63.0623760  90.4690290  82.0839110
  54.4354030  90.0150750  90.1594710  54.0417420  90.8625960  90.3667490
  53.7472430  89.3777120  90.3503350  61.0099080  90.0985720  93.2291450
  60.3197400  89.9057920  93.8637540  61.7531380  90.3820360  93.7615750
  51.7371080  87.9379210  84.1924790  51.4484130  88.5082070  84.9049770
  52.4816840  87.4583660  84.5556020  51.9241310  91.8799330  75.4027510
  51.8415980  92.8230090  75.5442500  51.5724370  91.7374240  74.5239860
  63.2862050  93.9384160  86.0645370  62.5543170  94.4470970  86.4135470
  62.8886390  93.1214140  85.7634150  59.7239440  90.6138360  84.4697860
  59.7275500  90.1728310  83.6202400  60.6190560  90.9355690  84.5769680
  55.5741820  90.4964850  83.4292070  55.2341870  90.9740080  84.1859120
  54.8119140  90.0429970  83.0693170  59.7859590  91.6150440  77.4604620
  59.9072410  91.5736920  78.4090440  59.4008100  92.4774590  77.3051350
  63.7487960  89.3917840  85.4768310  63.7660700  89.8426490  86.3210160
  63.5003540  88.4923480  85.6901750  58.7981090  93.9251580  76.8587920
  58.2297990  93.4769830  76.2323830  59.5070090  94.2844360  76.3253070
  67.1758710  86.8050020  91.3154690  67.5004480  86.0739680  91.8412670
  67.2115220  86.4863660  90.4135680  53.8750270  97.8263600  90.7354650
  53.4905060  97.1857270  91.3337610  54.1862460  98.5299720  91.3049380
  60.0247410  94.6740140  86.2163270  60.3917540  94.1998710  86.9624610
  59.8352470  95.5481710  86.5571610  52.8887900  89.4183830  82.3456740
  52.6034820  89.0539500  83.1835360  52.8266760  88.6864290  81.7319880
  57.8146780  93.7148780  88.5347480  57.5103850  94.5940760  88.7597840
  58.7693240  93.7748570  88.5704920  56.3428570  97.9209770  79.1314330
  55.5690830  97.3807390  78.9713050  57.0723200  97.4016380  78.7932090
  67.1016550  96.9175130  84.9240720  67.8215670  97.4130420  84.5336830
  66.8998370  96.2393020  84.2794590  62.4835350  96.9884190  90.8109720
  62.4172660  96.0679860  90.5567310  61.8540490  97.0859630  91.5254360
  65.2774880  92.6832740  77.3632270  66.1654500  92.9949970  77.1883610
  65.2479970  91.8104990  76.9712850  56.3865970  97.5890150  82.7693140
  56.9044640  96.7858410  82.7150030  55.9349990  97.5269290  83.6109970
  61.2735470  98.8556430  78.0420440  61.6151170  99.5998660  77.5463760
  60.4448180  99.1687550  78.4045270  53.8710510  94.5551520  89.6818840
  53.5125450  95.2205370  90.2692180  53.5765070  93.7235070  90.0531460
  57.0723630  95.0135760  92.5658390  56.7723770  95.1592940  91.6686210
  57.8434870  94.4541050  92.4731780  62.4152080  99.8104760  90.5613520
  62.4296620  98.8785720  90.3432430  61.7077180  99.8964520  91.2003290
  67.5489150  93.9944580  76.8312130  67.4652870  94.4258800  75.9808570
  68.2683340  94.4542930  77.2638950  68.6263290  96.4512100  89.9082100
  67.9011480  97.0440880  89.7111490  69.1538750  96.4435640  89.1095470
  68.5776400 100.8486840  79.5594260  67.9352560 100.1942460  79.8337980
  68.1907060 101.2541930  78.7834930  64.1562880  98.1772270  83.4065950
  64.5086700  97.5800400  82.7467320  63.2725210  97.8516500  83.5774200
  60.2426160  98.9369960  80.8136360  60.9297290  99.4839170  81.1943950
  59.4558580  99.4810690  80.8485970  52.3818560  94.5542780  76.3053440
  53.2513410  94.8367580  76.5889360  51.8908880  95.3678650  76.1902250
  59.5453370  95.9415990  80.4261720  60.0016150  96.7521240  80.6521910
  59.1941580  95.6239130  81.2580210  61.8485980 101.4522330  87.6554020
  62.4928200 101.6581710  88.3327440  62.2115420 100.6910730  87.2024870
  55.4465150  86.2853640  80.8984240  55.3179780  86.2771540  81.8469160
  54.6227170  86.6236730  80.5475250  63.1218060  99.4554680  86.3731470
  63.7640290  98.7547840  86.4863640  63.6467410 100.2353120  86.1928360
  66.9673780  99.7403300  76.0970610  66.7411360  99.0233740  76.6895250
  66.5769980  99.4915740  75.2592360  64.8955680 100.2549580  89.5767530
  65.2311920 100.8416270  90.2545450  63.9756020 100.1242290  89.8065320
  52.7489810 103.7670160  76.8715070  53.1087450 104.3659500  76.2172340
  52.6082150 104.3130050  77.6450100  52.4459080  88.0444760  90.3590940
  51.7317600  88.2441680  90.9643550  52.8654120  87.2684330  90.7305740
  66.5490030  97.6575240  77.7584770  66.2611730  98.1187930  78.5462650
  67.3442200  97.1973010  78.0268990  52.7331670 102.0325020  91.3457470
  52.8422790 101.0919760  91.2052860  52.0812230 102.2979770  90.6971200
  60.7244260 100.3040910  92.7455590  60.4041130  99.5850150  93.2901280
  60.0502620 100.9795980  92.8191650  58.7658430 101.1501360  77.6888740
  58.7568530 101.8831050  77.0733250  57.8456790 100.9032940  77.7815700
  54.3665070  96.3716250  78.4335500  53.7593020  97.1115150  78.4430800
  54.8414420  96.4615610  77.6073700  63.9397860  90.5367070  88.1092390
  64.3078680  89.7162280  88.4371960  63.0796060  90.5968960  88.5248040
  61.7518030 101.2129600  76.3513930  61.8530010 101.0093590  75.4215910
  60.8519770 100.9587880  76.5561710  59.2743920  91.7709960  80.3337830
  58.5660070  92.2396300  80.7751440  59.5588400  91.1131970  80.9683020
  60.8999850  93.1906660  88.3330360  61.3985100  93.6652480  88.9982210
  61.0422800  92.2670180  88.5400390  60.3936140 103.7315920  81.0461600
  60.6477640 103.6937310  80.1240970  59.4448620 103.6049250  81.0389850
  57.4778940  90.0795040  77.7088540  58.3269470  90.5165190  77.6428730
  57.1110210  90.3915300  78.5360600  68.1066710  89.4074620  89.1758750
  67.6040310  90.1480020  89.5152560  68.9223370  89.7958620  88.8595540
  66.3988720  94.6507800  82.6220110  65.4578860  94.6658030  82.7967800
  66.7132790  93.8643760  83.0680410  56.3770360  96.3327400  76.1824070
  57.1433630  96.2208760  76.7449500  56.4545050  95.6365370  75.5300840
  55.0717120  93.7652470  76.8656960  55.1520710  92.8179980  76.9774360
  55.9636870  94.0959350  76.9717620  68.4014300 101.8216650  84.2974370
  68.5261720 102.6447820  84.7698180  69.2679860 101.6107380  83.9498520
  55.8731830 103.9147860  83.9691500  56.6094310 103.3663320  84.2400070
  56.2572750 104.7803870  83.8297490  52.7577310  99.9821430  79.8433010
  51.8317090 100.2242570  79.8338420  53.2233740 100.8095690  79.7217760
  54.8790110 103.0993930  93.1577080  55.6802840 103.4205980  93.5712480
  54.3641930 102.7389510  93.8796990  58.9834140 103.0878170  75.7917070
  59.7762750 103.3767000  75.3398860  58.4638490 102.6570340  75.1129550
  63.7154740  99.2073800  93.1052490  63.1092900  99.2305400  92.3648240
  63.4108850  98.4756840  93.6419740  65.1455110 102.9354090  91.7161900
  66.0976860 102.8512110  91.6662140  64.9983330 103.5995800  92.3895690
  68.0364310 102.3148300  77.2153810  67.7505820 101.9013440  76.4007990
  67.8383860 103.2436010  77.0954330  52.5987920  95.5867390  92.1013130
  53.1026940  95.0074670  92.6729360  51.8595340  95.8707620  92.6389500
  59.5011540  98.3081580  75.6559420  59.3962180  97.6933930  76.3820800
  59.3335760  97.7847470  74.8722430  59.6525860  96.9938380  91.6348650
  58.8871530  97.5623380  91.5503320  59.8341820  96.7014590  90.7416880
  62.7414270  97.3701610  76.2601410  62.1924370  97.8170910  76.9044150
  63.3633530  96.8650860  76.7839080  66.7949210  98.7243710  92.1923670
  67.5358680  99.0619470  91.6891130  66.0321890  98.8935770  91.6393440
  54.6311000  93.7296980  92.9963200  54.6716340  93.4310850  93.9048430
  55.4856500  94.1304590  92.8370720  58.4089390  96.3292530  78.1566710
  58.8305810  96.1632400  78.9998100  58.5340230  95.5192760  77.6621850
  56.5716810  92.3089080  90.9637690  56.0413270  91.8180030  90.3361030
  57.2404880  92.7373280  90.4295620  60.9217030  95.3530140  75.4043810
  61.4422690  94.6379160  75.0384960  61.5685430  95.9916010  75.7044320
  65.4694870  96.7758540  90.7278880  65.8835890  96.9303620  91.5769300
  64.5345870  96.9013760  90.8904660  65.9417040  94.1154700  92.7318030
  66.5237810  93.3607020  92.6438510  66.1178810  94.6462140  91.9549510
  57.0589110  89.2751450  91.0434980  56.9645980  88.6572200  90.3185850
  56.4786500  90.0017740  90.8164890  59.8250550  87.8324690  88.0762370
  59.3767850  87.8548950  87.2307920  59.1915750  87.4343710  88.6732670
  60.2310100  96.7279020  88.6974810  60.6498210  97.5711750  88.5251050
  59.3118730  96.8651060  88.4681590  62.5674000  94.4595200  90.0812650
  62.6870210  93.8636340  90.8207490  63.4268000  94.4964890  89.6613950
  64.9061900  95.0132390  88.6575160  64.3797120  95.5375010  88.0540300
  65.2493240  95.6459780  89.2884890  57.3048290  92.4025760  75.1024870
  57.1037350  91.5393120  75.4638210  57.1340340  92.3159120  74.1646470
  58.0817520 103.0332030  89.8132540  57.5438610 103.7578090  89.4941240
  58.3351480 102.5562370  89.0229880  59.3342770  91.0016550  91.3388470
  59.9242460  90.6932400  92.0266290  58.5163010  90.5296300  91.4948370
  64.1536200  90.6182360  91.5721490  63.4651720  89.9563900  91.5071480
  64.8742220  90.1720630  92.0169950  56.1031090  89.5026380  75.0902750
  56.4056990  89.5093810  74.1821900  56.8425680  89.1524240  75.5870410
  60.9379730 104.2683240  90.0719190  60.8638430 105.1718380  90.3791560
  60.0358570 103.9495140  90.0441260  59.3216020  88.4461000  76.0758950
  58.9738020  87.7684990  75.4961400  59.5228790  87.9850510  76.8902340
  61.4865060 103.4341750  77.6945550  62.3815850 103.7726720  77.7164310
  61.5182690 102.7121160  77.0669830  55.1261220  98.8068800  75.9232550
  55.5636090  99.3498470  76.5790130  55.6108950  97.9815750  75.9328890
  52.3407020 101.5957830  83.3752810  52.6710030 100.7278890  83.1431450
  52.7698020 101.8016350  84.2057770  56.9368940  99.9266840  81.0354780
  56.6364480  99.8031810  81.9358690  56.8306430  99.0675430  80.6270510
  52.8297230 102.4628420  86.1134440  52.3928220 102.6429220  86.9458590
  53.3974910 103.2203040  85.9716160  68.4659410 101.9645420  90.4011750
  67.8661400 102.0237980  89.6575670  68.5953310 101.0250400  90.5308600
  69.7060860  99.7063240  75.7381460  68.8753820  99.7739890  76.2088690
  69.8832690 100.5967360  75.4348320  69.1617320  96.4510720  78.2415660
  69.9236230  97.0207370  78.3475350  69.1771690  95.8837920  79.0123970
  52.6621660  94.9748650  82.4723320  52.0070500  94.7060290  81.8283020
  53.4999610  94.8653130  82.0225300  70.1677290  97.3060820  83.0857590
  70.5386120  96.5228140  82.6793560  70.8079220  97.9949920  82.9074890
  67.1511050  98.6897400  88.4987910  66.3370890  99.1194560  88.7613700
  67.5585250  99.3015810  87.8856960  69.2136490  96.7445090  75.3988180
  69.4885330  97.6523970  75.2707400  69.0247230  96.6807620  76.3350170
  69.1101830  94.6814080  80.3917610  68.7345430  93.9142010  79.9598900
  68.3804950  95.0636780  80.8792540  53.6997590  95.3601220  87.0126660
  54.0670630  95.2728620  87.8922680  53.1308410  94.5967770  86.9133520
  68.5001450  93.8285600  90.0257130  68.2687540  93.5998350  89.1255080
  68.7606000  94.7485150  89.9802020  53.2513590  92.2710310  90.9185080
  52.3569640  92.2377070  91.2578790  53.7911140  92.4697100  91.6836330
  66.9389520  89.0542030  92.8036830  67.8159700  89.0625430  93.1870830
  66.9510360  88.3172870  92.1929180  51.8759740  92.1847580  78.4148650
  50.9723820  92.4477780  78.2400310  52.3600360  92.4558750  77.6348610
  68.3852790  92.9071570  83.6924850  68.9090270  92.4134220  83.0615020
  68.9712210  93.0421930  84.4372420  68.5642510  92.9911440  87.2144400
  67.6145220  92.9574980  87.3289390  68.7455520  93.9011550  86.9794170
  54.4186950  91.2413120  76.3243030  55.1278650  90.8196340  75.8390310
  53.7026890  91.3088350  75.6926380  54.0661110  87.2952450  75.3645680
  54.7889240  87.8361390  75.6826900  54.3385630  87.0215870  74.4887220
  67.8752760  92.1644920  79.6317260  68.3711880  91.9315790  80.4166140
  67.6768830  91.3256760  79.2154900  53.7553300  86.5458640  85.2668300
  54.4029490  85.9956020  84.8263460  54.1755140  86.8001790  86.0884110
  69.3039920  90.8005870  82.1654940  69.1939200  90.6461910  83.1037210
  70.0647510  90.2726810  81.9230350  67.6505640  86.7400000  88.6237940
  68.2877860  87.3534140  88.9897130  67.7980530  86.7760660  87.6787170
  70.1930190  88.6313790  75.4061080  71.1179500  88.4994970  75.1979370
  70.1705980  88.7106610  76.3597530  70.2668680  89.4024450  78.0317790
  69.4720180  89.3369570  78.5610700  70.4711960  90.3375090  78.0203140
  67.2087100 103.4416000  82.0256180  67.8046170 103.1200570  81.3490600
  67.4665250 102.9687820  82.8169450  53.5085300  86.7014310  88.0093620
  53.1600120  87.1578130  88.7751800  53.1773000  85.8071440  88.0916050
  55.1149670  99.8733910  92.1746810  55.0719300  99.5026820  93.0561270
  55.2460680 100.8111480  92.3148630  58.8155700 101.4293500  87.7756530
  58.5747060 101.6968060  86.8887050  59.7558340 101.5999230  87.8307390
  61.0210120  87.8926190  91.5313040  60.9599010  88.4848020  92.2808450
  61.9610500  87.7852150  91.3863300  63.6584680  87.5496250  91.1705330
  64.2725090  87.8675540  90.5086410  64.2034240  87.0644840  91.7901190
  70.0759860 103.4487880  88.5767170  69.5818140 103.8456750  87.8594300
  69.4673150 102.8237090  88.9704450  54.1805940  86.2290510  91.2844390
  54.7288930  86.0478560  90.5210500  54.2461250  85.4384620  91.8200700
  54.9537700 102.8196160  89.2944590  54.3598020 102.6880860  90.0334630
  54.9461540 101.9834300  88.8286690  64.3992720  86.1128390  87.4974620
  63.5252560  86.4463500  87.2947550  64.2903470  85.6401570  88.3226490
  65.3064700  88.3199260  88.8816340  64.9778060  87.5051020  88.5018070
  66.2547000  88.2769070  88.7582030  67.7599310 104.0911300  85.8553910
  67.3002280 104.8427110  85.4811930  67.1311770 103.3717770  85.7968710
  54.5849930 100.1854540  88.2452630  53.8583990  99.5659830  88.1778580
  54.6459080 100.5795150  87.3750710  58.1895030 102.3999540  85.0302040
  58.7060050 101.7886900  84.5050300  58.8392410 102.9028320  85.5213050
  60.9290530 103.2908030  85.8571020  61.2168340 103.0362330  84.9804030
  61.4413750 102.7385390  86.4476590  62.1467540  87.0298230  86.4367530
  61.3639330  87.5043730  86.7164290  61.8530470  86.1253060  86.3280710
  66.6988610  87.7321330  84.4816620  67.1396700  87.6766430  83.6338220
  66.4296200  88.6479340  84.5526800  68.5627180  87.3636570  82.4925440
  68.5015580  86.4197790  82.3456460  69.3419210  87.4716660  83.0378900
  52.8679930 103.5028930  81.4549390  52.7001970 102.8699610  82.1531280
  52.0014440 103.7088330  81.1043580  53.4907950  87.3345710  78.9581250
  54.2487310  87.4474590  78.3845280  53.0285120  88.1714910  78.9124680
  60.0321760  89.4484980  81.9483560  59.2196270  89.0741870  81.6079440
  60.5363400  88.6930060  82.2504750  54.4742630 102.1962160  78.8999530
  53.9490250 102.5770190  78.1961490  54.3987210 102.8212930  79.6209240
  55.8633100  87.8609760  77.4983220  56.3925860  87.0739560  77.3691170
  56.4961420  88.5400950  77.7318750  58.0570940  87.5984900  80.5528610
  57.4273680  86.8972210  80.7198740  57.5176080  88.3589030  80.3361770
  60.9962890 104.2124130  93.2239220  61.9230200 103.9768400  93.2675180
  60.9813320 105.0396130  92.7425250  69.2307950 103.7549700  80.2213470
  69.4060140 103.0687440  79.5774390  68.5329520 104.2796750  79.8290140
  58.1826500  86.8768880  92.9881100  57.9010770  87.3802480  92.2241920
  58.5646200  86.0790630  92.6223230  57.0735600 104.1444540  77.7748780
  57.8054420 103.8603820  77.2272670  57.3329270 103.9057820  78.6648160
  56.2350390 100.2609270  77.7795110  55.6059270 100.7294370  78.3280940
  56.3498220  99.4158490  78.2141300  64.7841960  86.2922460  93.5661570
  64.6707410  86.6117070  94.4613090  65.6011700  86.6934970  93.2698850
  67.5640450 103.4393990  93.0480260  68.3565770 102.9443220  92.8406220
  67.8573600 104.1184130  93.6555870  55.8383980  96.4013760  66.6881340
  55.0068860  96.1462470  67.0877850  56.4464960  96.4724530  67.4239260
  65.8425580 100.4954140  64.5904710  65.3807110  99.7241380  64.9191880
  66.6551130 100.5220210  65.0957160  55.8185240 100.4353850  66.8839360
  56.1213280  99.5451590  66.7049580  56.5628830 100.9924070  66.6561610
  52.2108940  93.9621300  66.3563430  52.7825050  93.1943500  66.3567070
  52.2110480  94.2610060  65.4470040  62.0688890 102.7812150  64.2108700
  61.4500330 103.2369650  63.6403140  62.9240670 102.9363610  63.8098400
  61.2627140  98.7651140  65.8175740  61.1935420  97.8241080  65.6564870
  62.0247000  98.8552550  66.3898310  57.7984000  97.1927260  68.2824210
  57.4653380  97.8196180  68.9245280  57.9750680  97.7189140  67.5025880
  57.0103100  99.1608060  70.0973390  57.6277100  99.8359140  69.8157840
  56.1496220  99.5696040  70.0060890  52.3035440  98.3507920  58.9780240
  51.9263420  98.8395020  58.2465140  52.5608510  99.0233200  59.6086770
  67.9280690 100.6247470  68.0128030  67.2444210 101.2946580  68.0044700
  68.4674980 100.8228120  67.2472890  65.4639430 102.4691600  66.7273210
  65.4766590 102.0653890  65.8595470  64.9114650 103.2438890  66.6234640
  64.8624870  97.3721440  68.0555820  65.2793660  97.1581550  67.2209280
  65.5864690  97.6294230  68.6264440  68.8086970  95.7708660  68.1472060
  67.9805600  95.8401750  67.6722190  69.4037450  96.3562970  67.6787890
  58.3743470  99.0305440  66.1184810  58.0771760  98.4250910  65.4392590
  59.3243290  99.0682750  66.0074170  66.4629080 102.6037310  69.7807910
  65.9859640 103.4109500  69.5880520  65.7790870 101.9515640  69.9334120
  57.4661900  98.7687130  72.7692610  56.5690430  98.9927100  73.0166010
  57.4914770  98.8922070  71.8204010  56.2933120  95.6400450  71.3449980
  56.1540890  96.5123250  71.7137380  55.4114480  95.2973260  71.1997920
  58.0913470 101.5822150  73.5535130  58.0628900 101.9865100  72.6863560
  57.9278440 100.6532510  73.3906730  70.0428290 102.3649250  74.8499300
  70.5188010 102.8432140  75.5288380  70.6635450 102.2966740  74.1244800
  52.2451770  97.4098000  67.2620890  52.3232190  97.5446770  66.3176610
  52.8593450  96.7013890  67.4549010  53.4899400  99.1098190  63.6727070
  53.0827480  99.2512780  62.8180670  54.3812410  98.8258350  63.4698280
  69.4461540  99.5562100  72.0099310  69.5724600  99.3173980  71.0916490
  69.4882920  98.7246640  72.4821390  63.3078280 103.2590100  70.5794120
  63.8222950 103.1698110  71.3816550  62.4647360 103.6049800  70.8722030
  65.2832680 103.5445440  60.0078120  65.1233820 103.2548380  60.9059950
  65.1179390 102.7685570  59.4723350  57.7621060 103.3243970  61.7849740
  57.5863540 102.4079510  61.5717540  56.9076800 103.6831260  62.0247540
  64.9858810 101.0533000  58.5676120  64.2923970 101.0510290  57.9078400
  65.7281670 100.6292320  58.1370290  64.5508740 102.6795710  62.6424610
  65.0065690 101.8985090  62.9563230  64.8901260 103.3902530  63.1865790
  52.3011290  98.4512170  69.8015350  52.4642330  97.9817530  68.9834720
  52.7663740  97.9435730  70.4664190  63.4554090  93.1697150  73.6706690
  63.7807500  92.3360900  73.3308920  64.2434420  93.6925670  73.8185020
  59.3043490  93.6037080  73.2317440  59.2087090  92.6631810  73.0817840
  60.1475470  93.8252150  72.8365510  54.4354030  90.0150750  71.3851220
  54.0417420  90.8625960  71.5924000  53.7472430  89.3777120  71.5759860
  61.0099080  90.0985720  74.4547960  60.3197400  89.9057920  75.0894050
  61.7531380  90.3820360  74.9872260  53.8750270  97.8263600  71.9611160
  53.4905060  97.1857270  72.5594120  54.1862460  98.5299720  72.5305890
  60.0247410  94.6740140  67.4419780  60.3917540  94.1998710  68.1881120
  59.8352470  95.5481710  67.7828120  52.8887900  89.4183830  63.5713250
  52.6034820  89.0539500  64.4091870  52.8266760  88.6864290  62.9576390
  57.8146780  93.7148780  69.7603990  57.5103850  94.5940760  69.9854350
  58.7693240  93.7748570  69.7961430  56.3428570  97.9209770  60.3570840
  55.5690830  97.3807390  60.1969560  57.0723200  97.4016380  60.0188600
  67.1016550  96.9175130  66.1497230  67.8215670  97.4130420  65.7593340
  66.8998370  96.2393020  65.5051100  62.4835350  96.9884190  72.0366230
  62.4172660  96.0679860  71.7823820  61.8540490  97.0859630  72.7510870
  56.3865970  97.5890150  63.9949650  56.9044640  96.7858410  63.9406540
  55.9349990  97.5269290  64.8366480  53.8710510  94.5551520  70.9075350
  53.5125450  95.2205370  71.4948690  53.5765070  93.7235070  71.2787970
  57.0723630  95.0135760  73.7914900  56.7723770  95.1592940  72.8942720
  57.8434870  94.4541050  73.6988290  62.4152080  99.8104760  71.7870030
  62.4296620  98.8785720  71.5688940  61.7077180  99.8964520  72.4259800
  61.8485980 101.4522330  68.8810530  62.4928200 101.6581710  69.5583950
  62.2115420 100.6910730  68.4281380  63.1218060  99.4554680  67.5987980
  63.7640290  98.7547840  67.7120150  63.6467410 100.2353120  67.4184870
  64.8955680 100.2549580  70.8024040  65.2311920 100.8416270  71.4801960
  63.9756020 100.1242290  71.0321830  52.7489810 103.7670160  58.0971580
  53.1087450 104.3659500  57.4428850  52.6082150 104.3130050  58.8706610
  52.4459080  88.0444760  71.5847450  51.7317600  88.2441680  72.1900060
  52.8654120  87.2684330  71.9562250  52.7331670 102.0325020  72.5713980
  52.8422790 101.0919760  72.4309370  52.0812230 102.2979770  71.9227710
  60.7244260 100.3040910  73.9712100  60.4041130  99.5850150  74.5157790
  60.0502620 100.9795980  74.0448160  58.7658430 101.1501360  58.9145250
  58.7568530 101.8831050  58.2989760  57.8456790 100.9032940  59.0072210
  61.7518030 101.2129600  57.5770440  61.8530010 101.0093590  56.6472420
  60.8519770 100.9587880  57.7818220  60.3936140 103.7315920  62.2718110
  60.6477640 103.6937310  61.3497480  59.4448620 103.6049250  62.2646360
  68.4014300 101.8216650  65.5230880  68.5261720 102.6447820  65.9954690
  69.2679860 101.6107380  65.1755030  55.8731830 103.9147860  65.1948010
  56.6094310 103.3663320  65.4656580  56.2572750 104.7803870  65.0554000
  52.7577310  99.9821430  61.0689520  51.8317090 100.2242570  61.0594930
  53.2233740 100.8095690  60.9474270  54.8790110 103.0993930  74.3833590
  55.6802840 103.4205980  74.7968990  54.3641930 102.7389510  75.1053500
  58.9834140 103.0878170  57.0173580  59.7762750 103.3767000  56.5655370
  58.4638490 102.6570340  56.3386060  63.7154740  99.2073800  74.3309000
  63.1092900  99.2305400  73.5904750  63.4108850  98.4756840  74.8676250
  65.1455110 102.9354090  72.9418410  66.0976860 102.8512110  72.8918650
  64.9983330 103.5995800  73.6152200  68.0364310 102.3148300  58.4410320
  67.7505820 101.9013440  57.6264500  67.8383860 103.2436010  58.3210840
  52.5987920  95.5867390  73.3269640  53.1026940  95.0074670  73.8985870
  51.8595340  95.8707620  73.8646010  59.5011540  98.3081580  56.8815930
  59.3962180  97.6933930  57.6077310  59.3335760  97.7847470  56.0978940
  59.6525860  96.9938380  72.8605160  58.8871530  97.5623380  72.7759830
  59.8341820  96.7014590  71.9673390  66.7949210  98.7243710  73.4180180
  67.5358680  99.0619470  72.9147640  66.0321890  98.8935770  72.8649950
  54.6311000  93.7296980  74.2219710  54.6716340  93.4310850  75.1304940
  55.4856500  94.1304590  74.0627230  56.5716810  92.3089080  72.1894200
  56.0413270  91.8180030  71.5617540  57.2404880  92.7373280  71.6552130
  65.4694870  96.7758540  71.9535390  65.8835890  96.9303620  72.8025810
  64.5345870  96.9013760  72.1161170  65.9417040  94.1154700  73.9574540
  66.5237810  93.3607020  73.8695020  66.1178810  94.6462140  73.1806020
  57.0589110  89.2751450  72.2691490  56.9645980  88.6572200  71.5442360
  56.4786500  90.0017740  72.0421400  60.2310100  96.7279020  69.9231320
  60.6498210  97.5711750  69.7507560  59.3118730  96.8651060  69.6938100
  62.5674000  94.4595200  71.3069160  62.6870210  93.8636340  72.0464000
  63.4268000  94.4964890  70.8870460  64.9061900  95.0132390  69.8831670
  64.3797120  95.5375010  69.2796810  65.2493240  95.6459780  70.5141400
  58.0817520 103.0332030  71.0389050  57.5438610 103.7578090  70.7197750
  58.3351480 102.5562370  70.2486390  60.9379730 104.2683240  71.2975700
  60.8638430 105.1718380  71.6048070  60.0358570 103.9495140  71.2697770
  61.4865060 103.4341750  58.9202060  62.3815850 103.7726720  58.9420820
  61.5182690 102.7121160  58.2926340  52.3407020 101.5957830  64.6009320
  52.6710030 100.7278890  64.3687960  52.7698020 101.8016350  65.4314280
  56.9368940  99.9266840  62.2611290  56.6364480  99.8031810  63.1615200
  56.8306430  99.0675430  61.8527020  52.8297230 102.4628420  67.3390950
  52.3928220 102.6429220  68.1715100  53.3974910 103.2203040  67.1972670
  68.4659410 101.9645420  71.6268260  67.8661400 102.0237980  70.8832180
  68.5953310 101.0250400  71.7565110  52.6621660  94.9748650  63.6979830
  52.0070500  94.7060290  63.0539530  53.4999610  94.8653130  63.2481810
  67.1511050  98.6897400  69.7244420  66.3370890  99.1194560  69.9870210
  67.5585250  99.3015810  69.1113470  53.6997590  95.3601220  68.2383170
  54.0670630  95.2728620  69.1179190  53.1308410  94.5967770  68.1390030
  53.2513590  92.2710310  72.1441590  52.3569640  92.2377070  72.4835300
  53.7911140  92.4697100  72.9092840  69.3039920  90.8005870  63.3911450
  69.1939200  90.6461910  64.3293720  70.0647510  90.2726810  63.1486860
  67.2087100 103.4416000  63.2512690  67.8046170 103.1200570  62.5747110
  67.4665250 102.9687820  64.0425960  53.5085300  86.7014310  69.2350130
  53.1600120  87.1578130  70.0008310  53.1773000  85.8071440  69.3172560
  55.1149670  99.8733910  73.4003320  55.0719300  99.5026820  74.2817780
  55.2460680 100.8111480  73.5405140  58.8155700 101.4293500  69.0013040
  58.5747060 101.6968060  68.1143560  59.7558340 101.5999230  69.0563900
  70.0759860 103.4487880  69.8023680  69.5818140 103.8456750  69.0850810
  69.4673150 102.8237090  70.1960960  54.1805940  86.2290510  72.5100900
  54.7288930  86.0478560  71.7467010  54.2461250  85.4384620  73.0457210
  54.9537700 102.8196160  70.5201100  54.3598020 102.6880860  71.2591140
  54.9461540 101.9834300  70.0543200  67.7599310 104.0911300  67.0810420
  67.3002280 104.8427110  66.7068440  67.1311770 103.3717770  67.0225220
  54.5849930 100.1854540  69.4709140  53.8583990  99.5659830  69.4035090
  54.6459080 100.5795150  68.6007220  58.1895030 102.3999540  66.2558550
  58.7060050 101.7886900  65.7306810  58.8392410 102.9028320  66.7469560
  60.9290530 103.2908030  67.0827530  61.2168340 103.0362330  66.2060540
  61.4413750 102.7385390  67.6733100  52.8679930 103.5028930  62.6805900
  52.7001970 102.8699610  63.3787790  52.0014440 103.7088330  62.3300090
  53.4907950  87.3345710  60.1837760  54.2487310  87.4474590  59.6101790
  53.0285120  88.1714910  60.1381190  54.4742630 102.1962160  60.1256040
  53.9490250 102.5770190  59.4218000  54.3987210 102.8212930  60.8465750
  60.9962890 104.2124130  74.4495730  61.9230200 103.9768400  74.4931690
  60.9813320 105.0396130  73.9681760  69.2307950 103.7549700  61.4469980
  69.4060140 103.0687440  60.8030900  68.5329520 104.2796750  61.0546650
  58.1826500  86.8768880  74.2137610  57.9010770  87.3802480  73.4498430
  58.5646200  86.0790630  73.8479740  57.0735600 104.1444540  59.0005290
  57.8054420 103.8603820  58.4529180  57.3329270 103.9057820  59.8904670
  56.2350390 100.2609270  59.0051620  55.6059270 100.7294370  59.5537450
  56.3498220  99.4158490  59.4397810  67.5640450 103.4393990  74.2736770
  68.3565770 102.9443220  74.0662730  67.8573600 104.1184130  74.8812380
  54.2475930  91.3615650  41.6980240  53.3592630  91.7031620  41.5960120
  54.5317120  91.1615970  40.8061070  52.3035440  98.3507920  40.2036750
  51.9263420  98.8395020  39.4721650  52.5608510  99.0233200  40.8343280
  58.0913470 101.5822150  54.7791640  58.0628900 101.9865100  53.9120070
  57.9278440 100.6532510  54.6163240  54.6066400  94.2382860  42.6808760
  54.4864000  94.9644950  42.0690030  54.2967290  93.4685770  42.2036670
  70.0428290 102.3649250  56.0755810  70.5188010 102.8432140  56.7544890
  70.6635450 102.2966740  55.3501310  52.2451770  97.4098000  48.4877400
  52.3232190  97.5446770  47.5433120  52.8593450  96.7013890  48.6805520
  53.4899400  99.1098190  44.8983580  53.0827480  99.2512780  44.0437180
  54.3812410  98.8258350  44.6954790  63.3078280 103.2590100  51.8050630
  63.8222950 103.1698110  52.6073060  62.4647360 103.6049800  52.0978540
  65.2832680 103.5445440  41.2334630  65.1233820 103.2548380  42.1316460
  65.1179390 102.7685570  40.6979860  57.7621060 103.3243970  43.0106250
  57.5863540 102.4079510  42.7974050  56.9076800 103.6831260  43.2504050
  64.5508740 102.6795710  43.8681120  65.0065690 101.8985090  44.1819740
  64.8901260 103.3902530  44.4122300  52.3011290  98.4512170  51.0271860
  52.4642330  97.9817530  50.2091230  52.7663740  97.9435730  51.6920700
  51.9241310  91.8799330  37.8540530  51.8415980  92.8230090  37.9955520
  51.5724370  91.7374240  36.9752880  56.3428570  97.9209770  41.5827350
  55.5690830  97.3807390  41.4226070  57.0723200  97.4016380  41.2445110
  62.4152080  99.8104760  53.0126540  62.4296620  98.8785720  52.7945450
  61.7077180  99.8964520  53.6516310  68.5776400 100.8486840  42.0107280
  67.9352560 100.1942460  42.2851000  68.1907060 101.2541930  41.2347950
  52.3818560  94.5542780  38.7566460  53.2513410  94.8367580  39.0402380
  51.8908880  95.3678650  38.6415270  55.4465150  86.2853640  43.3497260
  55.3179780  86.2771540  44.2982180  54.6227170  86.6236730  42.9988270
  52.7489810 103.7670160  39.3228090  53.1087450 104.3659500  38.6685360
  52.6082150 104.3130050  40.0963120  52.7331670 102.0325020  53.7970490
  52.8422790 101.0919760  53.6565880  52.0812230 102.2979770  53.1484220
  60.7244260 100.3040910  55.1968610  60.4041130  99.5850150  55.7414300
  60.0502620 100.9795980  55.2704670  58.7658430 101.1501360  40.1401760
  58.7568530 101.8831050  39.5246270  57.8456790 100.9032940  40.2328720
  54.3665070  96.3716250  40.8848520  53.7593020  97.1115150  40.8943820
  54.8414420  96.4615610  40.0586720  60.3936140 103.7315920  43.4974620
  60.6477640 103.6937310  42.5753990  59.4448620 103.6049250  43.4902870
  57.4778940  90.0795040  40.1601560  58.3269470  90.5165190  40.0941750
  57.1110210  90.3915300  40.9873620  56.3770360  96.3327400  38.6337090
  57.1433630  96.2208760  39.1962520  56.4545050  95.6365370  37.9813860
  55.0717120  93.7652470  39.3169980  55.1520710  92.8179980  39.4287380
  55.9636870  94.0959350  39.4230640  68.4014300 101.8216650  46.7487390
  68.5261720 102.6447820  47.2211200  69.2679860 101.6107380  46.4011540
  55.8731830 103.9147860  46.4204520  56.6094310 103.3663320  46.6913090
  56.2572750 104.7803870  46.2810510  52.7577310  99.9821430  42.2946030
  51.8317090 100.2242570  42.2851440  53.2233740 100.8095690  42.1730780
  54.8790110 103.0993930  55.6090100  55.6802840 103.4205980  56.0225500
  54.3641930 102.7389510  56.3310010  58.9834140 103.0878170  38.2430090
  59.7762750 103.3767000  37.7911880  58.4638490 102.6570340  37.5642570
  65.1455110 102.9354090  54.1674920  66.0976860 102.8512110  54.1175160
  64.9983330 103.5995800  54.8408710  68.0364310 102.3148300  39.6666830
  67.7505820 101.9013440  38.8521010  67.8383860 103.2436010  39.5467350
  59.5011540  98.3081580  38.1072440  59.3962180  97.6933930  38.8333820
  59.3335760  97.7847470  37.3235450  57.3048290  92.4025760  37.5537890
  57.1037350  91.5393120  37.9151230  57.1340340  92.3159120  36.6159490
  58.0817520 103.0332030  52.2645560  57.5438610 103.7578090  51.9454260
  58.3351480 102.5562370  51.4742900  60.9379730 104.2683240  52.5232210
  60.8638430 105.1718380  52.8304580  60.0358570 103.9495140  52.4954280
  61.4865060 103.4341750  40.1458570  62.3815850 103.7726720  40.1677330
  61.5182690 102.7121160  39.5182850  55.1261220  98.8068800  38.3745570
  55.5636090  99.3498470  39.0303150  55.6108950  97.9815750  38.3841910
  52.3407020 101.5957830  45.8265830  52.6710030 100.7278890  45.5944470
  52.7698020 101.8016350  46.6570790  52.8297230 102.4628420  48.5647460
  52.3928220 102.6429220  49.3971610  53.3974910 103.2203040  48.4229180
  68.4659410 101.9645420  52.8524770  67.8661400 102.0237980  52.1088690
  68.5953310 101.0250400  52.9821620  53.2513590  92.2710310  53.3698100
  52.3569640  92.2377070  53.7091810  53.7911140  92.4697100  54.1349350
  51.8759740  92.1847580  40.8661670  50.9723820  92.4477780  40.6913330
  52.3600360  92.4558750  40.0861630  54.4186950  91.2413120  38.7756050
  55.1278650  90.8196340  38.2903330  53.7026890  91.3088350  38.1439400
  54.0661110  87.2952450  37.8158700  54.7889240  87.8361390  38.1339920
  54.3385630  87.0215870  36.9400240  67.2087100 103.4416000  44.4769200
  67.8046170 103.1200570  43.8003620  67.4665250 102.9687820  45.2682470
  70.0759860 103.4487880  51.0280190  69.5818140 103.8456750  50.3107320
  69.4673150 102.8237090  51.4217470  54.9537700 102.8196160  51.7457610
  54.3598020 102.6880860  52.4847650  54.9461540 101.9834300  51.2799710
  67.7599310 104.0911300  48.3066930  67.3002280 104.8427110  47.9324950
  67.1311770 103.3717770  48.2481730  60.9290530 103.2908030  48.3084040
  61.2168340 103.0362330  47.4317050  61.4413750 102.7385390  48.8989610
  52.8679930 103.5028930  43.9062410  52.7001970 102.8699610  44.6044300
  52.0014440 103.7088330  43.5556600  53.4907950  87.3345710  41.4094270
  54.2487310  87.4474590  40.8358300  53.0285120  88.1714910  41.3637700
  54.4742630 102.1962160  41.3512550  53.9490250 102.5770190  40.6474510
  54.3987210 102.8212930  42.0722260  55.8633100  87.8609760  39.9496240
  56.3925860  87.0739560  39.8204190  56.4961420  88.5400950  40.1831770
  60.9962890 104.2124130  55.6752240  61.9230200 103.9768400  55.7188200
  60.9813320 105.0396130  55.1938270  69.2307950 103.7549700  42.6726490
  69.4060140 103.0687440  42.0287410  68.5329520 104.2796750  42.2803160
  57.0735600 104.1444540  40.2261800  57.8054420 103.8603820  39.6785690
  57.3329270 103.9057820  41.1161180  56.2350390 100.2609270  40.2308130
  55.6059270 100.7294370  40.7793960  56.3498220  99.4158490  40.6654320
  67.5640450 103.4393990  55.4993280  68.3565770 102.9443220  55.2919240
  67.8573600 104.1184130  56.1068890  63.6900110  94.3114930  26.3809330
  63.6094160  93.3969540  26.1101040  63.2764530  94.8082000  25.6749040
  61.8218150  96.0893950  28.2618600  61.0460250  95.6094390  28.5517170
  62.4731080  95.4099600  28.0874760  55.8383980  96.4013760  29.1394360
  55.0068860  96.1462470  29.5390870  56.4464960  96.4724530  29.8752280
  65.8425580 100.4954140  27.0417730  65.3807110  99.7241380  27.3704900
  66.6551130 100.5220210  27.5470180  55.8185240 100.4353850  29.3352380
  56.1213280  99.5451590  29.1562600  56.5628830 100.9924070  29.1074630
  54.2475930  91.3615650  22.9236750  53.3592630  91.7031620  22.8216630
  54.5317120  91.1615970  22.0317580  52.2108940  93.9621300  28.8076450
  52.7825050  93.1943500  28.8080090  52.2110480  94.2610060  27.8983060
  62.0688890 102.7812150  26.6621720  61.4500330 103.2369650  26.0916160
  62.9240670 102.9363610  26.2611420  61.2627140  98.7651140  28.2688760
  61.1935420  97.8241080  28.1077890  62.0247000  98.8552550  28.8411330
  53.4533810  89.3705660  30.5945380  53.2736650  88.4731410  30.8748140
  53.0513890  89.9177530  31.2692330  62.2932310  91.5721520  28.4957690
  62.6697130  90.6993400  28.3831360  62.1951820  91.9080220  27.6048130
  56.4237320  89.9447150  23.9575130  56.5304070  90.8450880  24.2643890
  55.5129680  89.8965120  23.6669780  54.0720480  91.8666160  29.2027720
  54.7530590  92.1304530  29.8215120  53.7568530  91.0267030  29.5365730
  58.2645050  92.9133520  28.2900310  58.7723270  93.4114490  28.9305330
  58.7958290  92.1368720  28.1139670  56.5481150  87.5532080  32.5563730
  56.5499590  88.0704470  31.7509630  55.7185460  87.0762260  32.5333660
  62.9352240  97.6651390  24.0553630  62.3169510  98.1300840  23.4916350
  63.4475490  98.3578870  24.4723140  57.7984000  97.1927260  30.7337230
  57.4653380  97.8196180  31.3758300  57.9750680  97.7189140  29.9538900
  56.2296480  89.2642040  30.5634180  56.5713290  90.1084090  30.2688050
  55.2912290  89.4125780  30.6799520  57.0103100  99.1608060  32.5486410
  57.6277100  99.8359140  32.2670860  56.1496220  99.5696040  32.4573910
  52.3035440  98.3507920  21.4293260  51.9263420  98.8395020  20.6978160
  52.5608510  99.0233200  22.0599790  59.9124370  86.7524310  26.8878770
  60.2199350  86.1971200  26.1714270  58.9825070  86.8868770  26.7051760
  65.4639430 102.4691600  29.1786230  65.4766590 102.0653890  28.3108490
  64.9114650 103.2438890  29.0747660  66.7584850  99.1907820  24.2676400
  66.6481180  98.2482150  24.3925820  66.7553100  99.5523460  25.1539160
  62.3005130  94.8173140  23.6238890  61.3734410  94.7510520  23.8527360
  62.4529950  95.7553270  23.5094130  62.2874210  91.0890140  20.6206050
  61.3477880  91.2504100  20.7058510  62.6057470  91.8075820  20.0742040
  66.3302420  96.3793440  24.1274140  65.7114840  96.0412990  23.4800440
  66.3126870  95.7353200  24.8353330  57.9061770  95.3437880  26.4058620
  57.5018770  94.6315130  25.9104520  57.9924890  94.9991120  27.2946660
  58.3743470  99.0305440  28.5697830  58.0771760  98.4250910  27.8905610
  59.3243290  99.0682750  28.4587190  56.6190390  92.1181090  30.1857660
  57.1704980  92.2276430  29.4110910  57.1333900  92.4918690  30.9012890
  66.4629080 102.6037310  32.2320930  65.9859640 103.4109500  32.0393540
  65.7790870 101.9515640  32.3847140  57.4661900  98.7687130  35.2205630
  56.5690430  98.9927100  35.4679030  57.4914770  98.8922070  34.2717030
  64.5067120  95.6180250  21.1346890  64.9460400  94.7802680  20.9884710
  65.2195540  96.2509650  21.2211030  56.2933120  95.6400450  33.7963000
  56.1540890  96.5123250  34.1650400  55.4114480  95.2973260  33.6510940
  62.6162500 100.5576320  25.1028130  63.0558410 101.3000650  24.6883520
  62.5549390 100.8002890  26.0267090  58.0913470 101.5822150  36.0048150
  58.0628900 101.9865100  35.1376580  57.9278440 100.6532510  35.8419750
  68.0884260  86.8723060  19.4487930  67.7756920  86.9649890  20.3487000
  68.8496730  87.4504090  19.3985360  54.6066400  94.2382860  23.9065270
  54.4864000  94.9644950  23.2946540  54.2967290  93.4685770  23.4293180
  70.0428290 102.3649250  37.3012320  70.5188010 102.8432140  37.9801400
  70.6635450 102.2966740  36.5757820  52.2451770  97.4098000  29.7133910
  52.3232190  97.5446770  28.7689630  52.8593450  96.7013890  29.9062030
  53.4899400  99.1098190  26.1240090  53.0827480  99.2512780  25.2693690
  54.3812410  98.8258350  25.9211300  63.3078280 103.2590100  33.0307140
  63.8222950 103.1698110  33.8329570  62.4647360 103.6049800  33.3235050
  65.2832680 103.5445440  22.4591140  65.1233820 103.2548380  23.3572970
  65.1179390 102.7685570  21.9236370  57.7621060 103.3243970  24.2362760
  57.5863540 102.4079510  24.0230560  56.9076800 103.6831260  24.4760560
  64.9858810 101.0533000  21.0189140  64.2923970 101.0510290  20.3591420
  65.7281670 100.6292320  20.5883310  64.5508740 102.6795710  25.0937630
  65.0065690 101.8985090  25.4076250  64.8901260 103.3902530  25.6378810
  52.3011290  98.4512170  32.2528370  52.4642330  97.9817530  31.4347740
  52.7663740  97.9435730  32.9177210  57.0730060  87.5817930  27.2888940
  56.6298210  88.3627470  26.9573460  57.6315050  87.9047820  27.9959880
  59.1105960  88.1265260  29.1478540  59.4078290  89.0328090  29.0670560
  59.6591520  87.6384040  28.5338110  56.8644280  92.7051500  25.0170190
  56.6385200  92.4888670  25.9216810  56.0836810  93.1379960  24.6716160
  64.0942040  92.7114870  23.6160840  63.4950930  93.4350670  23.4324460
  64.6421650  92.6491650  22.8337290  59.3043490  93.6037080  35.6830460
  59.2087090  92.6631810  35.5330860  60.1475470  93.8252150  35.2878530
  62.7006910  91.3478410  25.6464120  63.0936480  91.6650610  24.8332810
  63.0623760  90.4690290  25.7608640  54.4354030  90.0150750  33.8364240
  54.0417420  90.8625960  34.0437020  53.7472430  89.3777120  34.0272880
  51.7371080  87.9379210  27.8694320  51.4484130  88.5082070  28.5819300
  52.4816840  87.4583660  28.2325550  51.9241310  91.8799330  19.0797040
  51.8415980  92.8230090  19.2212030  51.5724370  91.7374240  18.2009390
  63.2862050  93.9384160  29.7414900  62.5543170  94.4470970  30.0905000
  62.8886390  93.1214140  29.4403680  59.7239440  90.6138360  28.1467390
  59.7275500  90.1728310  27.2971930  60.6190560  90.9355690  28.2539210
  55.5741820  90.4964850  27.1061600  55.2341870  90.9740080  27.8628650
  54.8119140  90.0429970  26.7462700  59.7859590  91.6150440  21.1374150
  59.9072410  91.5736920  22.0859970  59.4008100  92.4774590  20.9820880
  58.7981090  93.9251580  20.5357450  58.2297990  93.4769830  19.9093360
  59.5070090  94.2844360  20.0022600  53.8750270  97.8263600  34.4124180
  53.4905060  97.1857270  35.0107140  54.1862460  98.5299720  34.9818910
  60.0247410  94.6740140  29.8932800  60.3917540  94.1998710  30.6394140
  59.8352470  95.5481710  30.2341140  52.8887900  89.4183830  26.0226270
  52.6034820  89.0539500  26.8604890  52.8266760  88.6864290  25.4089410
  57.8146780  93.7148780  32.2117010  57.5103850  94.5940760  32.4367370
  58.7693240  93.7748570  32.2474450  56.3428570  97.9209770  22.8083860
  55.5690830  97.3807390  22.6482580  57.0723200  97.4016380  22.4701620
  62.4835350  96.9884190  34.4879250  62.4172660  96.0679860  34.2336840
  61.8540490  97.0859630  35.2023890  65.2774880  92.6832740  21.0401800
  66.1654500  92.9949970  20.8653140  65.2479970  91.8104990  20.6482380
  56.3865970  97.5890150  26.4462670  56.9044640  96.7858410  26.3919560
  55.9349990  97.5269290  27.2879500  61.2735470  98.8556430  21.7189970
  61.6151170  99.5998660  21.2233290  60.4448180  99.1687550  22.0814800
  53.8710510  94.5551520  33.3588370  53.5125450  95.2205370  33.9461710
  53.5765070  93.7235070  33.7300990  57.0723630  95.0135760  36.2427920
  56.7723770  95.1592940  35.3455740  57.8434870  94.4541050  36.1501310
  62.4152080  99.8104760  34.2383050  62.4296620  98.8785720  34.0201960
  61.7077180  99.8964520  34.8772820  67.5489150  93.9944580  20.5081660
  67.4652870  94.4258800  19.6578100  68.2683340  94.4542930  20.9408480
  68.5776400 100.8486840  23.2363790  67.9352560 100.1942460  23.5107510
  68.1907060 101.2541930  22.4604460  64.1562880  98.1772270  27.0835480
  64.5086700  97.5800400  26.4236850  63.2725210  97.8516500  27.2543730
  60.2426160  98.9369960  24.4905890  60.9297290  99.4839170  24.8713480
  59.4558580  99.4810690  24.5255500  52.3818560  94.5542780  19.9822970
  53.2513410  94.8367580  20.2658890  51.8908880  95.3678650  19.8671780
  59.5453370  95.9415990  24.1031250  60.0016150  96.7521240  24.3291440
  59.1941580  95.6239130  24.9349740  61.8485980 101.4522330  31.3323550
  62.4928200 101.6581710  32.0096970  62.2115420 100.6910730  30.8794400
  55.4465150  86.2853640  24.5753770  55.3179780  86.2771540  25.5238690
  54.6227170  86.6236730  24.2244780  63.1218060  99.4554680  30.0501000
  63.7640290  98.7547840  30.1633170  63.6467410 100.2353120  29.8697890
  66.9673780  99.7403300  19.7740140  66.7411360  99.0233740  20.3664780
  66.5769980  99.4915740  18.9361890  64.8955680 100.2549580  33.2537060
  65.2311920 100.8416270  33.9314980  63.9756020 100.1242290  33.4834850
  52.7489810 103.7670160  20.5484600  53.1087450 104.3659500  19.8941870
  52.6082150 104.3130050  21.3219630  52.4459080  88.0444760  34.0360470
  51.7317600  88.2441680  34.6413080  52.8654120  87.2684330  34.4075270
  66.5490030  97.6575240  21.4354300  66.2611730  98.1187930  22.2232180
  67.3442200  97.1973010  21.7038520  52.7331670 102.0325020  35.0227000
  52.8422790 101.0919760  34.8822390  52.0812230 102.2979770  34.3740730
  60.7244260 100.3040910  36.4225120  60.4041130  99.5850150  36.9670810
  60.0502620 100.9795980  36.4961180  58.7658430 101.1501360  21.3658270
  58.7568530 101.8831050  20.7502780  57.8456790 100.9032940  21.4585230
  54.3665070  96.3716250  22.1105030  53.7593020  97.1115150  22.1200330
  54.8414420  96.4615610  21.2843230  67.3059890  89.4924010  22.5949480
  66.6773050  89.5969680  21.8807710  66.8111810  89.7120790  23.3843360
  61.7518030 101.2129600  20.0283460  61.8530010 101.0093590  19.0985440
  60.8519770 100.9587880  20.2331240  59.2743920  91.7709960  24.0107360
  58.5660070  92.2396300  24.4520970  59.5588400  91.1131970  24.6452550
  60.3936140 103.7315920  24.7231130  60.6477640 103.6937310  23.8010500
  59.4448620 103.6049250  24.7159380  57.4778940  90.0795040  21.3858070
  58.3269470  90.5165190  21.3198260  57.1110210  90.3915300  22.2130130
  56.3770360  96.3327400  19.8593600  57.1433630  96.2208760  20.4219030
  56.4545050  95.6365370  19.2070370  55.0717120  93.7652470  20.5426490
  55.1520710  92.8179980  20.6543890  55.9636870  94.0959350  20.6487150
  55.8731830 103.9147860  27.6461030  56.6094310 103.3663320  27.9169600
  56.2572750 104.7803870  27.5067020  52.7577310  99.9821430  23.5202540
  51.8317090 100.2242570  23.5107950  53.2233740 100.8095690  23.3987290
  54.8790110 103.0993930  36.8346610  55.6802840 103.4205980  37.2482010
  54.3641930 102.7389510  37.5566520  58.9834140 103.0878170  19.4686600
  59.7762750 103.3767000  19.0168390  58.4638490 102.6570340  18.7899080
  65.1455110 102.9354090  35.3931430  66.0976860 102.8512110  35.3431670
  64.9983330 103.5995800  36.0665220  68.0364310 102.3148300  20.8923340
  67.7505820 101.9013440  20.0777520  67.8383860 103.2436010  20.7723860
  52.5987920  95.5867390  35.7782660  53.1026940  95.0074670  36.3498890
  51.8595340  95.8707620  36.3159030  59.5011540  98.3081580  19.3328950
  59.3962180  97.6933930  20.0590330  59.3335760  97.7847470  18.5491960
  59.6525860  96.9938380  35.3118180  58.8871530  97.5623380  35.2272850
  59.8341820  96.7014590  34.4186410  62.7414270  97.3701610  19.9370940
  62.1924370  97.8170910  20.5813680  63.3633530  96.8650860  20.4608610
  66.7949210  98.7243710  35.8693200  67.5358680  99.0619470  35.3660660
  66.0321890  98.8935770  35.3162970  54.6311000  93.7296980  36.6732730
  54.6716340  93.4310850  37.5817960  55.4856500  94.1304590  36.5140250
  58.4089390  96.3292530  21.8336240  58.8305810  96.1632400  22.6767630
  58.5340230  95.5192760  21.3391380  56.5716810  92.3089080  34.6407220
  56.0413270  91.8180030  34.0130560  57.2404880  92.7373280  34.1065150
  60.9217030  95.3530140  19.0813340  61.4422690  94.6379160  18.7154490
  61.5685430  95.9916010  19.3813850  59.8250550  87.8324690  31.7531900
  59.3767850  87.8548950  30.9077450  59.1915750  87.4343710  32.3502200
  60.2310100  96.7279020  32.3744340  60.6498210  97.5711750  32.2020580
  59.3118730  96.8651060  32.1451120  57.3048290  92.4025760  18.7794400
  57.1037350  91.5393120  19.1407740  57.1340340  92.3159120  17.8416000
  58.0817520 103.0332030  33.4902070  57.5438610 103.7578090  33.1710770
  58.3351480 102.5562370  32.6999410  56.1031090  89.5026380  18.7672280
  56.4056990  89.5093810  17.8591430  56.8425680  89.1524240  19.2639940
  60.9379730 104.2683240  33.7488720  60.8638430 105.1718380  34.0561090
  60.0358570 103.9495140  33.7210790  59.3216020  88.4461000  19.7528480
  58.9738020  87.7684990  19.1730930  59.5228790  87.9850510  20.5671870
  61.4865060 103.4341750  21.3715080  62.3815850 103.7726720  21.3933840
  61.5182690 102.7121160  20.7439360  55.1261220  98.8068800  19.6002080
  55.5636090  99.3498470  20.2559660  55.6108950  97.9815750  19.6098420
  52.3407020 101.5957830  27.0522340  52.6710030 100.7278890  26.8200980
  52.7698020 101.8016350  27.8827300  56.9368940  99.9266840  24.7124310
  56.6364480  99.8031810  25.6128220  56.8306430  99.0675430  24.3040040
  52.8297230 102.4628420  29.7903970  52.3928220 102.6429220  30.6228120
  53.3974910 103.2203040  29.6485690  68.4659410 101.9645420  34.0781280
  67.8661400 102.0237980  33.3345200  68.5953310 101.0250400  34.2078130
  69.7060860  99.7063240  19.4150990  68.8753820  99.7739890  19.8858220
  69.8832690 100.5967360  19.1117850  69.1617320  96.4510720  21.9185190
  69.9236230  97.0207370  22.0244880  69.1771690  95.8837920  22.6893500
  52.6621660  94.9748650  26.1492850  52.0070500  94.7060290  25.5052550
  53.4999610  94.8653130  25.6994830  69.2136490  96.7445090  19.0757710
  69.4885330  97.6523970  18.9476930  69.0247230  96.6807620  20.0119700
  65.6112100  89.7689940  20.3711340  66.0296980  89.5820920  19.5308000
  65.3048160  88.9168990  20.6814270  69.1101830  94.6814080  24.0687140
  68.7345430  93.9142010  23.6368430  68.3804950  95.0636780  24.5562070
  53.6997590  95.3601220  30.6896190  54.0670630  95.2728620  31.5692210
  53.1308410  94.5967770  30.5903050  53.2513590  92.2710310  34.5954610
  52.3569640  92.2377070  34.9348320  53.7911140  92.4697100  35.3605860
  51.8759740  92.1847580  22.0918180  50.9723820  92.4477780  21.9169840
  52.3600360  92.4558750  21.3118140  54.4186950  91.2413120  20.0012560
  55.1278650  90.8196340  19.5159840  53.7026890  91.3088350  19.3695910
  54.0661110  87.2952450  19.0415210  54.7889240  87.8361390  19.3596430
  54.3385630  87.0215870  18.1656750  53.7553300  86.5458640  28.9437830
  54.4029490  85.9956020  28.5032990  54.1755140  86.8001790  29.7653640
  70.1930190  88.6313790  19.0830610  71.1179500  88.4994970  18.8748900
  70.1705980  88.7106610  20.0367060  70.2668680  89.4024450  21.7087320
  69.4720180  89.3369570  22.2380230  70.4711960  90.3375090  21.6972670
  67.2087100 103.4416000  25.7025710  67.8046170 103.1200570  25.0260130
  67.4665250 102.9687820  26.4938980  53.5085300  86.7014310  31.6863150
  53.1600120  87.1578130  32.4521330  53.1773000  85.8071440  31.7685580
  55.1149670  99.8733910  35.8516340  55.0719300  99.5026820  36.7330800
  55.2460680 100.8111480  35.9918160  58.8155700 101.4293500  31.4526060
  58.5747060 101.6968060  30.5656580  59.7558340 101.5999230  31.5076920
  70.0759860 103.4487880  32.2536700  69.5818140 103.8456750  31.5363830
  69.4673150 102.8237090  32.6473980  54.1805940  86.2290510  34.9613920
  54.7288930  86.0478560  34.1980030  54.2461250  85.4384620  35.4970230
  54.9537700 102.8196160  32.9714120  54.3598020 102.6880860  33.7104160
  54.9461540 101.9834300  32.5056220  67.7599310 104.0911300  29.5323440
  67.3002280 104.8427110  29.1581460  67.1311770 103.3717770  29.4738240
  54.5849930 100.1854540  31.9222160  53.8583990  99.5659830  31.8548110
  54.6459080 100.5795150  31.0520240  58.1895030 102.3999540  28.7071570
  58.7060050 101.7886900  28.1819830  58.8392410 102.9028320  29.1982580
  60.9290530 103.2908030  29.5340550  61.2168340 103.0362330  28.6573560
  61.4413750 102.7385390  30.1246120  52.8679930 103.5028930  25.1318920
  52.7001970 102.8699610  25.8300810  52.0014440 103.7088330  24.7813110
  53.4907950  87.3345710  22.6350780  54.2487310  87.4474590  22.0614810
  53.0285120  88.1714910  22.5894210  60.0321760  89.4484980  25.6253090
  59.2196270  89.0741870  25.2848970  60.5363400  88.6930060  25.9274280
  54.4742630 102.1962160  22.5769060  53.9490250 102.5770190  21.8731020
  54.3987210 102.8212930  23.2978770  55.8633100  87.8609760  21.1752750
  56.3925860  87.0739560  21.0460700  56.4961420  88.5400950  21.4088280
  58.0570940  87.5984900  24.2298140  57.4273680  86.8972210  24.3968270
  57.5176080  88.3589030  24.0131300  60.9962890 104.2124130  36.9008750
  61.9230200 103.9768400  36.9444710  60.9813320 105.0396130  36.4194780
  69.2307950 103.7549700  23.8983000  69.4060140 103.0687440  23.2543920
  68.5329520 104.2796750  23.5059670  57.0735600 104.1444540  21.4518310
  57.8054420 103.8603820  20.9042200  57.3329270 103.9057820  22.3417690
  56.2350390 100.2609270  21.4564640  55.6059270 100.7294370  22.0050470
  56.3498220  99.4158490  21.8910830  67.5640450 103.4393990  36.7249790
  68.3565770 102.9443220  36.5175750  67.8573600 104.1184130  37.3325400
  63.6900110  94.3114930   7.6065840  63.6094160  93.3969540   7.3357550
  63.2764530  94.8082000   6.9005550  61.8218150  96.0893950   9.4875110
  61.0460250  95.6094390   9.7773680  62.4731080  95.4099600   9.3131270
  55.8383980  96.4013760  10.3650870  55.0068860  96.1462470  10.7647380
  56.4464960  96.4724530  11.1008790  65.8425580 100.4954140   8.2674240
  65.3807110  99.7241380   8.5961410  66.6551130 100.5220210   8.7726690
  55.8185240 100.4353850  10.5608890  56.1213280  99.5451590  10.3819110
  56.5628830 100.9924070  10.3331140  54.2475930  91.3615650   4.1493260
  53.3592630  91.7031620   4.0473140  54.5317120  91.1615970   3.2574090
  52.2108940  93.9621300  10.0332960  52.7825050  93.1943500  10.0336600
  52.2110480  94.2610060   9.1239570  62.0688890 102.7812150   7.8878230
  61.4500330 103.2369650   7.3172670  62.9240670 102.9363610   7.4867930
  61.2627140  98.7651140   9.4945270  61.1935420  97.8241080   9.3334400
  62.0247000  98.8552550  10.0667840  53.4533810  89.3705660  11.8201890
  53.2736650  88.4731410  12.1004650  53.0513890  89.9177530  12.4948840
  62.2932310  91.5721520   9.7214200  62.6697130  90.6993400   9.6087870
  62.1951820  91.9080220   8.8304640  56.4237320  89.9447150   5.1831640
  56.5304070  90.8450880   5.4900400  55.5129680  89.8965120   4.8926290
  66.0756430  89.0671960   6.6542540  66.8966050  88.5768530   6.6968020
  66.1090510  89.6569620   7.4074380  54.0720480  91.8666160  10.4284230
  54.7530590  92.1304530  11.0471630  53.7568530  91.0267030  10.7622240
  58.2645050  92.9133520   9.5156820  58.7723270  93.4114490  10.1561840
  58.7958290  92.1368720   9.3396180  70.3655980  91.0838710  13.2186170
  69.6608150  91.4720420  12.7001280  70.6313900  91.7789000  13.8207100
  56.5481150  87.5532080  13.7820240  56.5499590  88.0704470  12.9766140
  55.7185460  87.0762260  13.7590170  62.9352240  97.6651390   5.2810140
  62.3169510  98.1300840   4.7172860  63.4475490  98.3578870   5.6979650
  57.7984000  97.1927260  11.9593740  57.4653380  97.8196180  12.6014810
  57.9750680  97.7189140  11.1795410  66.3117910  91.0072340   9.4270080
  65.6073480  91.2957230  10.0073190  66.6730070  91.8172450   9.0669640
  56.2296480  89.2642040  11.7890690  56.5713290  90.1084090  11.4944560
  55.2912290  89.4125780  11.9056030  57.0103100  99.1608060  13.7742920
  57.6277100  99.8359140  13.4927370  56.1496220  99.5696040  13.6830420
  52.3035440  98.3507920   2.6549770  51.9263420  98.8395020   1.9234670
  52.5608510  99.0233200   3.2856300  67.9280690 100.6247470  11.6897560
  67.2444210 101.2946580  11.6814230  68.4674980 100.8228120  10.9242420
  69.3804830  90.4527130   9.8179290  68.4329740  90.4866110   9.9494720
  69.7054820  91.2666080  10.2028650  59.9124370  86.7524310   8.1135280
  60.2199350  86.1971200   7.3970780  58.9825070  86.8868770   7.9308270
  65.4639430 102.4691600  10.4042740  65.4766590 102.0653890   9.5365000
  64.9114650 103.2438890  10.3004170  66.7584850  99.1907820   5.4932910
  66.6481180  98.2482150   5.6182330  66.7553100  99.5523460   6.3795670
  64.8624870  97.3721440  11.7325350  65.2793660  97.1581550  10.8978810
  65.5864690  97.6294230  12.3033970  62.3005130  94.8173140   4.8495400
  61.3734410  94.7510520   5.0783870  62.4529950  95.7553270   4.7350640
  62.2874210  91.0890140   1.8462560  61.3477880  91.2504100   1.9315020
  62.6057470  91.8075820   1.2998550  68.8086970  95.7708660  11.8241590
  67.9805600  95.8401750  11.3491720  69.4037450  96.3562970  11.3557420
  66.3302420  96.3793440   5.3530650  65.7114840  96.0412990   4.7056950
  66.3126870  95.7353200   6.0609840  65.7728980  92.5577980  12.7696460
  65.3600160  93.3831690  13.0236450  65.0404930  91.9723020  12.5772820
  57.9061770  95.3437880   7.6315130  57.5018770  94.6315130   7.1361030
  57.9924890  94.9991120   8.5203170  58.3743470  99.0305440   9.7954340
  58.0771760  98.4250910   9.1162120  59.3243290  99.0682750   9.6843700
  56.6190390  92.1181090  11.4114170  57.1704980  92.2276430  10.6367420
  57.1333900  92.4918690  12.1269400  66.4629080 102.6037310  13.4577440
  65.9859640 103.4109500  13.2650050  65.7790870 101.9515640  13.6103650
  57.4661900  98.7687130  16.4462140  56.5690430  98.9927100  16.6935540
  57.4914770  98.8922070  15.4973540  64.5067120  95.6180250   2.3603400
  64.9460400  94.7802680   2.2141220  65.2195540  96.2509650   2.4467540
  56.2933120  95.6400450  15.0219510  56.1540890  96.5123250  15.3906910
  55.4114480  95.2973260  14.8767450  62.6162500 100.5576320   6.3284640
  63.0558410 101.3000650   5.9140030  62.5549390 100.8002890   7.2523600
  58.0913470 101.5822150  17.2304660  58.0628900 101.9865100  16.3633090
  57.9278440 100.6532510  17.0676260  54.6066400  94.2382860   5.1321780
  54.4864000  94.9644950   4.5203050  54.2967290  93.4685770   4.6549690
  70.0428290 102.3649250  18.5268830  70.5188010 102.8432140  19.2057910
  70.6635450 102.2966740  17.8014330  52.2451770  97.4098000  10.9390420
  52.3232190  97.5446770   9.9946140  52.8593450  96.7013890  11.1318540
  53.4899400  99.1098190   7.3496600  53.0827480  99.2512780   6.4950200
  54.3812410  98.8258350   7.1467810  69.4461540  99.5562100  15.6868840
  69.5724600  99.3173980  14.7686020  69.4882920  98.7246640  16.1590920
  63.3078280 103.2590100  14.2563650  63.8222950 103.1698110  15.0586080
  62.4647360 103.6049800  14.5491560  65.2832680 103.5445440   3.6847650
  65.1233820 103.2548380   4.5829480  65.1179390 102.7685570   3.1492880
  57.7621060 103.3243970   5.4619270  57.5863540 102.4079510   5.2487070
  56.9076800 103.6831260   5.7017070  64.9858810 101.0533000   2.2445650
  64.2923970 101.0510290   1.5847930  65.7281670 100.6292320   1.8139820
  64.5508740 102.6795710   6.3194140  65.0065690 101.8985090   6.6332760
  64.8901260 103.3902530   6.8635320  69.2985550  91.6094560  16.6518580
  68.6829820  92.1174230  16.1234040  68.9781970  90.7092890  16.5944520
  52.3011290  98.4512170  13.4784880  52.4642330  97.9817530  12.6604250
  52.7663740  97.9435730  14.1433720  57.0730060  87.5817930   8.5145450
  56.6298210  88.3627470   8.1829970  57.6315050  87.9047820   9.2216390
  61.3599870  90.4486450  14.1180770  60.8979240  90.6569470  14.9300710
  60.9577980  89.6345800  13.8151440  66.3604380  91.6695400  15.2477430
  65.5097970  91.3701150  15.5686500  66.2006170  91.9137410  14.3361250
  63.4554090  93.1697150  17.3476220  63.7807500  92.3360900  17.0078450
  64.2434420  93.6925670  17.4954550  60.1888880  87.2028630   3.3951280
  59.5643060  87.1988500   4.1204590  60.1019000  86.3359590   2.9987250
  59.1105960  88.1265260  10.3735050  59.4078290  89.0328090  10.2927070
  59.6591520  87.6384040   9.7594620  56.8644280  92.7051500   6.2426700
  56.6385200  92.4888670   7.1473320  56.0836810  93.1379960   5.8972670
  64.0942040  92.7114870   4.8417350  63.4950930  93.4350670   4.6580970
  64.6421650  92.6491650   4.0593800  59.3043490  93.6037080  16.9086970
  59.2087090  92.6631810  16.7587370  60.1475470  93.8252150  16.5135040
  62.7006910  91.3478410   6.8720630  63.0936480  91.6650610   6.0589320
  63.0623760  90.4690290   6.9865150  54.4354030  90.0150750  15.0620750
  54.0417420  90.8625960  15.2693530  53.7472430  89.3777120  15.2529390
  61.0099080  90.0985720  18.1317490  60.3197400  89.9057920  18.7663580
  61.7531380  90.3820360  18.6641790  51.7371080  87.9379210   9.0950830
  51.4484130  88.5082070   9.8075810  52.4816840  87.4583660   9.4582060
  63.2862050  93.9384160  10.9671410  62.5543170  94.4470970  11.3161510
  62.8886390  93.1214140  10.6660190  59.7239440  90.6138360   9.3723900
  59.7275500  90.1728310   8.5228440  60.6190560  90.9355690   9.4795720
  55.5741820  90.4964850   8.3318110  55.2341870  90.9740080   9.0885160
  54.8119140  90.0429970   7.9719210  59.7859590  91.6150440   2.3630660
  59.9072410  91.5736920   3.3116480  59.4008100  92.4774590   2.2077390
  63.7487960  89.3917840  10.3794350  63.7660700  89.8426490  11.2236200
  63.5003540  88.4923480  10.5927790  67.1758710  86.8050020  16.2180730
  67.5004480  86.0739680  16.7438710  67.2115220  86.4863660  15.3161720
  53.8750270  97.8263600  15.6380690  53.4905060  97.1857270  16.2363650
  54.1862460  98.5299720  16.2075420  60.0247410  94.6740140  11.1189310
  60.3917540  94.1998710  11.8650650  59.8352470  95.5481710  11.4597650
  52.8887900  89.4183830   7.2482780  52.6034820  89.0539500   8.0861400
  52.8266760  88.6864290   6.6345920  57.8146780  93.7148780  13.4373520
  57.5103850  94.5940760  13.6623880  58.7693240  93.7748570  13.4730960
  56.3428570  97.9209770   4.0340370  55.5690830  97.3807390   3.8739090
  57.0723200  97.4016380   3.6958130  67.1016550  96.9175130   9.8266760
  67.8215670  97.4130420   9.4362870  66.8998370  96.2393020   9.1820630
  62.5626490  88.3113090   3.9696150  61.7491100  87.8126260   3.8941460
  62.3688440  89.1511340   3.5532500  62.4835350  96.9884190  15.7135760
  62.4172660  96.0679860  15.4593350  61.8540490  97.0859630  16.4280400
  65.2774880  92.6832740   2.2658310  66.1654500  92.9949970   2.0909650
  65.2479970  91.8104990   1.8738890  56.3865970  97.5890150   7.6719180
  56.9044640  96.7858410   7.6176070  55.9349990  97.5269290   8.5136010
  61.2735470  98.8556430   2.9446480  61.6151170  99.5998660   2.4489800
  60.4448180  99.1687550   3.3071310  53.8710510  94.5551520  14.5844880
  53.5125450  95.2205370  15.1718220  53.5765070  93.7235070  14.9557500
  57.0723630  95.0135760  17.4684430  56.7723770  95.1592940  16.5712250
  57.8434870  94.4541050  17.3757820  62.4152080  99.8104760  15.4639560
  62.4296620  98.8785720  15.2458470  61.7077180  99.8964520  16.1029330
  68.6263290  96.4512100  14.8108140  67.9011480  97.0440880  14.6137530
  69.1538750  96.4435640  14.0121510  68.5776400 100.8486840   4.4620300
  67.9352560 100.1942460   4.7364020  68.1907060 101.2541930   3.6860970
  64.1562880  98.1772270   8.3091990  64.5086700  97.5800400   7.6493360
  63.2725210  97.8516500   8.4800240  60.2426160  98.9369960   5.7162400
  60.9297290  99.4839170   6.0969990  59.4558580  99.4810690   5.7512010
  59.5453370  95.9415990   5.3287760  60.0016150  96.7521240   5.5547950
  59.1941580  95.6239130   6.1606250  61.8485980 101.4522330  12.5580060
  62.4928200 101.6581710  13.2353480  62.2115420 100.6910730  12.1050910
  55.4465150  86.2853640   5.8010280  55.3179780  86.2771540   6.7495200
  54.6227170  86.6236730   5.4501290  63.1218060  99.4554680  11.2757510
  63.7640290  98.7547840  11.3889680  63.6467410 100.2353120  11.0954400
  64.8955680 100.2549580  14.4793570  65.2311920 100.8416270  15.1571490
  63.9756020 100.1242290  14.7091360  52.4459080  88.0444760  15.2616980
  51.7317600  88.2441680  15.8669590  52.8654120  87.2684330  15.6331780
  66.5490030  97.6575240   2.6610810  66.2611730  98.1187930   3.4488690
  67.3442200  97.1973010   2.9295030  52.7331670 102.0325020  16.2483510
  52.8422790 101.0919760  16.1078900  52.0812230 102.2979770  15.5997240
  60.7244260 100.3040910  17.6481630  60.4041130  99.5850150  18.1927320
  60.0502620 100.9795980  17.7217690  58.7658430 101.1501360   2.5914780
  58.7568530 101.8831050   1.9759290  57.8456790 100.9032940   2.6841740
  54.3665070  96.3716250   3.3361540  53.7593020  97.1115150   3.3456840
  54.8414420  96.4615610   2.5099740  63.9397860  90.5367070  13.0118430
  64.3078680  89.7162280  13.3398000  63.0796060  90.5968960  13.4274080
  67.3059890  89.4924010   3.8205990  66.6773050  89.5969680   3.1064220
  66.8111810  89.7120790   4.6099870  59.2743920  91.7709960   5.2363870
  58.5660070  92.2396300   5.6777480  59.5588400  91.1131970   5.8709060
  60.8999850  93.1906660  13.2356400  61.3985100  93.6652480  13.9008250
  61.0422800  92.2670180  13.4426430  63.3059350  88.4960620   6.6759660
  63.1827130  88.5146750   5.7269170  64.2543910  88.5439560   6.7958060
  60.3936140 103.7315920   5.9487640  60.6477640 103.6937310   5.0267010
  59.4448620 103.6049250   5.9415890  57.4778940  90.0795040   2.6114580
  58.3269470  90.5165190   2.5454770  57.1110210  90.3915300   3.4386640
  68.1066710  89.4074620  14.0784790  67.6040310  90.1480020  14.4178600
  68.9223370  89.7958620  13.7621580  66.3988720  94.6507800   7.5246150
  65.4578860  94.6658030   7.6993840  66.7132790  93.8643760   7.9706450
  55.0717120  93.7652470   1.7683000  55.1520710  92.8179980   1.8800400
  55.9636870  94.0959350   1.8743660  68.4014300 101.8216650   9.2000410
  68.5261720 102.6447820   9.6724220  69.2679860 101.6107380   8.8524560
  55.8731830 103.9147860   8.8717540  56.6094310 103.3663320   9.1426110
  56.2572750 104.7803870   8.7323530  52.7577310  99.9821430   4.7459050
  51.8317090 100.2242570   4.7364460  53.2233740 100.8095690   4.6243800
  54.8790110 103.0993930  18.0603120  55.6802840 103.4205980  18.4738520
  54.3641930 102.7389510  18.7823030  63.7154740  99.2073800  18.0078530
  63.1092900  99.2305400  17.2674280  63.4108850  98.4756840  18.5445780
  65.1455110 102.9354090  16.6187940  66.0976860 102.8512110  16.5688180
  64.9983330 103.5995800  17.2921730  68.0364310 102.3148300   2.1179850
  67.7505820 101.9013440   1.3034030  67.8383860 103.2436010   1.9980370
  52.5987920  95.5867390  17.0039170  53.1026940  95.0074670  17.5755400
  51.8595340  95.8707620  17.5415540  59.6525860  96.9938380  16.5374690
  58.8871530  97.5623380  16.4529360  59.8341820  96.7014590  15.6442920
  66.7949210  98.7243710  17.0949710  67.5358680  99.0619470  16.5917170
  66.0321890  98.8935770  16.5419480  54.6311000  93.7296980  17.8989240
  54.6716340  93.4310850  18.8074470  55.4856500  94.1304590  17.7396760
  58.4089390  96.3292530   3.0592750  58.8305810  96.1632400   3.9024140
  58.5340230  95.5192760   2.5647890  56.5716810  92.3089080  15.8663730
  56.0413270  91.8180030  15.2387070  57.2404880  92.7373280  15.3321660
  65.4694870  96.7758540  15.6304920  65.8835890  96.9303620  16.4795340
  64.5345870  96.9013760  15.7930700  65.9417040  94.1154700  17.6344070
  66.5237810  93.3607020  17.5464550  66.1178810  94.6462140  16.8575550
  57.0589110  89.2751450  15.9461020  56.9645980  88.6572200  15.2211890
  56.4786500  90.0017740  15.7190930  59.8250550  87.8324690  12.9788410
  59.3767850  87.8548950  12.1333960  59.1915750  87.4343710  13.5758710
  60.2310100  96.7279020  13.6000850  60.6498210  97.5711750  13.4277090
  59.3118730  96.8651060  13.3707630  62.5674000  94.4595200  14.9838690
  62.6870210  93.8636340  15.7233530  63.4268000  94.4964890  14.5639990
  64.9061900  95.0132390  13.5601200  64.3797120  95.5375010  12.9566340
  65.2493240  95.6459780  14.1910930  58.0817520 103.0332030  14.7158580
  57.5438610 103.7578090  14.3967280  58.3351480 102.5562370  13.9255920
  59.3342770  91.0016550  16.2414510  59.9242460  90.6932400  16.9292330
  58.5163010  90.5296300  16.3974410  64.1536200  90.6182360  16.4747530
  63.4651720  89.9563900  16.4097520  64.8742220  90.1720630  16.9195990
  64.7836600  87.2133990   2.5337790  65.0638890  86.3701890   2.8897210
  64.0102330  87.4457100   3.0476540  60.9379730 104.2683240  14.9745230
  60.8638430 105.1718380  15.2817600  60.0358570 103.9495140  14.9467300
  61.4865060 103.4341750   2.5971590  62.3815850 103.7726720   2.6190350
  61.5182690 102.7121160   1.9695870  52.3407020 101.5957830   8.2778850
  52.6710030 100.7278890   8.0457490  52.7698020 101.8016350   9.1083810
  56.9368940  99.9266840   5.9380820  56.6364480  99.8031810   6.8384730
  56.8306430  99.0675430   5.5296550  52.8297230 102.4628420  11.0160480
  52.3928220 102.6429220  11.8484630  53.3974910 103.2203040  10.8742200
  68.4659410 101.9645420  15.3037790  67.8661400 102.0237980  14.5601710
  68.5953310 101.0250400  15.4334640  69.1617320  96.4510720   3.1441700
  69.9236230  97.0207370   3.2501390  69.1771690  95.8837920   3.9150010
  52.6621660  94.9748650   7.3749360  52.0070500  94.7060290   6.7309060
  53.4999610  94.8653130   6.9251340  70.1677290  97.3060820   7.9883630
  70.5386120  96.5228140   7.5819600  70.8079220  97.9949920   7.8100930
  67.1511050  98.6897400  13.4013950  66.3370890  99.1194560  13.6639740
  67.5585250  99.3015810  12.7883000  69.1101830  94.6814080   5.2943650
  68.7345430  93.9142010   4.8624940  68.3804950  95.0636780   5.7818580
  53.6997590  95.3601220  11.9152700  54.0670630  95.2728620  12.7948720
  53.1308410  94.5967770  11.8159560  68.5001450  93.8285600  14.9283170
  68.2687540  93.5998350  14.0281120  68.7606000  94.7485150  14.8828060
  53.2513590  92.2710310  15.8211120  52.3569640  92.2377070  16.1604830
  53.7911140  92.4697100  16.5862370  66.9389520  89.0542030  17.7062870
  67.8159700  89.0625430  18.0896870  66.9510360  88.3172870  17.0955220
  51.8759740  92.1847580   3.3174690  50.9723820  92.4477780   3.1426350
  52.3600360  92.4558750   2.5374650  68.3852790  92.9071570   8.5950890
  68.9090270  92.4134220   7.9641060  68.9712210  93.0421930   9.3398460
  68.5642510  92.9911440  12.1170440  67.6145220  92.9574980  12.2315430
  68.7455520  93.9011550  11.8820210  67.8752760  92.1644920   4.5343300
  68.3711880  91.9315790   5.3192180  67.6768830  91.3256760   4.1180940
  53.7553300  86.5458640  10.1694340  54.4029490  85.9956020   9.7289500
  54.1755140  86.8001790  10.9910150  69.3039920  90.8005870   7.0680980
  69.1939200  90.6461910   8.0063250  70.0647510  90.2726810   6.8256390
  67.6505640  86.7400000  13.5263980  68.2877860  87.3534140  13.8923170
  67.7980530  86.7760660  12.5813210  70.2668680  89.4024450   2.9343830
  69.4720180  89.3369570   3.4636740  70.4711960  90.3375090   2.9229180
  67.2087100 103.4416000   6.9282220  67.8046170 103.1200570   6.2516640
  67.4665250 102.9687820   7.7195490  53.5085300  86.7014310  12.9119660
  53.1600120  87.1578130  13.6777840  53.1773000  85.8071440  12.9942090
  55.1149670  99.8733910  17.0772850  55.0719300  99.5026820  17.9587310
  55.2460680 100.8111480  17.2174670  58.8155700 101.4293500  12.6782570
  58.5747060 101.6968060  11.7913090  59.7558340 101.5999230  12.7333430
  61.0210120  87.8926190  16.4339080  60.9599010  88.4848020  17.1834490
  61.9610500  87.7852150  16.2889340  63.6584680  87.5496250  16.0731370
  64.2725090  87.8675540  15.4112450  64.2034240  87.0644840  16.6927230
  70.0759860 103.4487880  13.4793210  69.5818140 103.8456750  12.7620340
  69.4673150 102.8237090  13.8730490  54.1805940  86.2290510  16.1870430
  54.7288930  86.0478560  15.4236540  54.2461250  85.4384620  16.7226740
  54.9537700 102.8196160  14.1970630  54.3598020 102.6880860  14.9360670
  54.9461540 101.9834300  13.7312730  64.3992720  86.1128390  12.4000660
  63.5252560  86.4463500  12.1973590  64.2903470  85.6401570  13.2252530
  65.3064700  88.3199260  13.7842380  64.9778060  87.5051020  13.4044110
  66.2547000  88.2769070  13.6608070  67.7599310 104.0911300  10.7579950
  67.3002280 104.8427110  10.3837970  67.1311770 103.3717770  10.6994750
  54.5849930 100.1854540  13.1478670  53.8583990  99.5659830  13.0804620
  54.6459080 100.5795150  12.2776750  58.1895030 102.3999540   9.9328080
  58.7060050 101.7886900   9.4076340  58.8392410 102.9028320  10.4239090
  60.9290530 103.2908030  10.7597060  61.2168340 103.0362330   9.8830070
  61.4413750 102.7385390  11.3502630  62.1467540  87.0298230  11.3393570
  61.3639330  87.5043730  11.6190330  61.8530470  86.1253060  11.2306750
  66.6988610  87.7321330   9.3842660  67.1396700  87.6766430   8.5364260
  66.4296200  88.6479340   9.4552840  68.5627180  87.3636570   7.3951480
  68.5015580  86.4197790   7.2482500  69.3419210  87.4716660   7.9404940
  52.8679930 103.5028930   6.3575430  52.7001970 102.8699610   7.0557320
  52.0014440 103.7088330   6.0069620  53.4907950  87.3345710   3.8607290
  54.2487310  87.4474590   3.2871320  53.0285120  88.1714910   3.8150720
  60.0321760  89.4484980   6.8509600  59.2196270  89.0741870   6.5105480
  60.5363400  88.6930060   7.1530790  64.5346740  86.1127430   8.0892670
  65.1376110  86.6847640   8.5641190  63.7939730  86.6766870   7.8666570
  67.6781340  86.5148990   3.3632950  67.8731970  87.4132440   3.6300380
  66.8911210  86.2836070   3.8565900  54.4742630 102.1962160   3.8025570
  53.9490250 102.5770190   3.0987530  54.3987210 102.8212930   4.5235280
  55.8633100  87.8609760   2.4009260  56.3925860  87.0739560   2.2717210
  56.4961420  88.5400950   2.6344790  58.0570940  87.5984900   5.4554650
  57.4273680  86.8972210   5.6224780  57.5176080  88.3589030   5.2387810
  60.9962890 104.2124130  18.1265260  61.9230200 103.9768400  18.1701220
  60.9813320 105.0396130  17.6451290  69.2307950 103.7549700   5.1239510
  69.4060140 103.0687440   4.4800430  68.5329520 104.2796750   4.7316180
  58.1826500  86.8768880  17.8907140  57.9010770  87.3802480  17.1267960
  58.5646200  86.0790630  17.5249270  57.0735600 104.1444540   2.6774820
  57.8054420 103.8603820   2.1298710  57.3329270 103.9057820   3.5674200
  56.2350390 100.2609270   2.6821150  55.6059270 100.7294370   3.2306980
  56.3498220  99.4158490   3.1167340  64.7841960  86.2922460  18.4687610
  64.6707410  86.6117070  19.3639130  65.6011700  86.6934970  18.1724890
  67.5640450 103.4393990  17.9506300  68.3565770 102.9443220  17.7432260
  67.8573600 104.1184130  18.5581910  63.6900110  75.5371440 101.4783290
  63.6094160  74.6226050 101.2075000  63.2764530  76.0338510 100.7723000
  61.8218150  77.3150460 103.3592560  61.0460250  76.8350900 103.6491130
  62.4731080  76.6356110 103.1848720  55.8383980  77.6270270 104.2368320
  55.0068860  77.3718980 104.6364830  56.4464960  77.6981040 104.9726240
  65.8425580  81.7210650 102.1391690  65.3807110  80.9497890 102.4678860
  66.6551130  81.7476720 102.6444140  55.8185240  81.6610360 104.4326340
  56.1213280  80.7708100 104.2536560  56.5628830  82.2180580 104.2048590
  54.2475930  72.5872160  98.0210710  53.3592630  72.9288130  97.9190590
  54.5317120  72.3872480  97.1291540  52.2108940  75.1877810 103.9050410
  52.7825050  74.4200010 103.9054050  52.2110480  75.4866570 102.9957020
  62.0688890  84.0068660 101.7595680  61.4500330  84.4626160 101.1890120
  62.9240670  84.1620120 101.3585380  61.2627140  79.9907650 103.3662720
  61.1935420  79.0497590 103.2051850  62.0247000  80.0809060 103.9385290
  53.4533810  70.5962170 105.6919340  53.2736650  69.6987920 105.9722100
  53.0513890  71.1434040 106.3666290  62.2932310  72.7978030 103.5931650
  62.6697130  71.9249910 103.4805320  62.1951820  73.1336730 102.7022090
  56.4237320  71.1703660  99.0549090  56.5304070  72.0707390  99.3617850
  55.5129680  71.1221630  98.7643740  66.0756430  70.2928470 100.5259990
  66.8966050  69.8025040 100.5685470  66.1090510  70.8826130 101.2791830
  54.0720480  73.0922670 104.3001680  54.7530590  73.3561040 104.9189080
  53.7568530  72.2523540 104.6339690  58.2645050  74.1390030 103.3874270
  58.7723270  74.6371000 104.0279290  58.7958290  73.3625230 103.2113630
  70.3655980  72.3095220 107.0903620  69.6608150  72.6976930 106.5718730
  70.6313900  73.0045510 107.6924550  56.5481150  68.7788590 107.6537690
  56.5499590  69.2960980 106.8483590  55.7185460  68.3018770 107.6307620
  62.9352240  78.8907900  99.1527590  62.3169510  79.3557350  98.5890310
  63.4475490  79.5835380  99.5697100  57.7984000  78.4183770 105.8311190
  57.4653380  79.0452690 106.4732260  57.9750680  78.9445650 105.0512860
  66.3117910  72.2328850 103.2987530  65.6073480  72.5213740 103.8790640
  66.6730070  73.0428960 102.9387090  56.2296480  70.4898550 105.6608140
  56.5713290  71.3340600 105.3662010  55.2912290  70.6382290 105.7773480
  57.0103100  80.3864570 107.6460370  57.6277100  81.0615650 107.3644820
  56.1496220  80.7952550 107.5547870  52.3035440  79.5764430  96.5267220
  51.9263420  80.0651530  95.7952120  52.5608510  80.2489710  97.1573750
  67.9280690  81.8503980 105.5615010  67.2444210  82.5203090 105.5531680
  68.4674980  82.0484630 104.7959870  69.3804830  71.6783640 103.6896740
  68.4329740  71.7122620 103.8212170  69.7054820  72.4922590 104.0746100
  59.9124370  67.9780820 101.9852730  60.2199350  67.4227710 101.2688230
  58.9825070  68.1125280 101.8025720  65.4639430  83.6948110 104.2760190
  65.4766590  83.2910400 103.4082450  64.9114650  84.4695400 104.1721620
  66.7584850  80.4164330  99.3650360  66.6481180  79.4738660  99.4899780
  66.7553100  80.7779970 100.2513120  64.8624870  78.5977950 105.6042800
  65.2793660  78.3838060 104.7696260  65.5864690  78.8550740 106.1751420
  62.3005130  76.0429650  98.7212850  61.3734410  75.9767030  98.9501320
  62.4529950  76.9809780  98.6068090  62.2874210  72.3146650  95.7180010
  61.3477880  72.4760610  95.8032470  62.6057470  73.0332330  95.1716000
  68.8086970  76.9965170 105.6959040  67.9805600  77.0658260 105.2209170
  69.4037450  77.5819480 105.2274870  66.3302420  77.6049950  99.2248100
  65.7114840  77.2669500  98.5774400  66.3126870  76.9609710  99.9327290
  65.7728980  73.7834490 106.6413910  65.3600160  74.6088200 106.8953900
  65.0404930  73.1979530 106.4490270  57.9061770  76.5694390 101.5032580
  57.5018770  75.8571640 101.0078480  57.9924890  76.2247630 102.3920620
  58.3743470  80.2561950 103.6671790  58.0771760  79.6507420 102.9879570
  59.3243290  80.2939260 103.5561150  56.6190390  73.3437600 105.2831620
  57.1704980  73.4532940 104.5084870  57.1333900  73.7175200 105.9986850
  66.4629080  83.8293820 107.3294890  65.9859640  84.6366010 107.1367500
  65.7790870  83.1772150 107.4821100  57.4661900  79.9943640 110.3179590
  56.5690430  80.2183610 110.5652990  57.4914770  80.1178580 109.3690990
  64.5067120  76.8436760  96.2320850  64.9460400  76.0059190  96.0858670
  65.2195540  77.4766160  96.3184990  56.2933120  76.8656960 108.8936960
  56.1540890  77.7379760 109.2624360  55.4114480  76.5229770 108.7484900
  62.6162500  81.7832830 100.2002090  63.0558410  82.5257160  99.7857480
  62.5549390  82.0259400 101.1241050  68.0884260  68.0979570  94.5461890
  67.7756920  68.1906400  95.4460960  68.8496730  68.6760600  94.4959320
  54.6066400  75.4639370  99.0039230  54.4864000  76.1901460  98.3920500
  54.2967290  74.6942280  98.5267140  52.2451770  78.6354510 104.8107870
  52.3232190  78.7703280 103.8663590  52.8593450  77.9270400 105.0035990
  53.4899400  80.3354700 101.2214050  53.0827480  80.4769290 100.3667650
  54.3812410  80.0514860 101.0185260  69.4461540  80.7818610 109.5586290
  69.5724600  80.5430490 108.6403470  69.4882920  79.9503150 110.0308370
  63.3078280  84.4846610 108.1281100  63.8222950  84.3954620 108.9303530
  62.4647360  84.8306310 108.4209010  65.2832680  84.7701950  97.5565100
  65.1233820  84.4804890  98.4546930  65.1179390  83.9942080  97.0210330
  57.7621060  84.5500480  99.3336720  57.5863540  83.6336020  99.1204520
  56.9076800  84.9087770  99.5734520  64.9858810  82.2789510  96.1163100
  64.2923970  82.2766800  95.4565380  65.7281670  81.8548830  95.6857270
  64.5508740  83.9052220 100.1911590  65.0065690  83.1241600 100.5050210
  64.8901260  84.6159040 100.7352770  69.2985550  72.8351070 110.5236030
  68.6829820  73.3430740 109.9951490  68.9781970  71.9349400 110.4661970
  52.3011290  79.6768680 107.3502330  52.4642330  79.2074040 106.5321700
  52.7663740  79.1692240 108.0151170  57.0730060  68.8074440 102.3862900
  56.6298210  69.5883980 102.0547420  57.6315050  69.1304330 103.0933840
  61.3599870  71.6742960 107.9898220  60.8979240  71.8825980 108.8018160
  60.9577980  70.8602310 107.6868890  66.3604380  72.8951910 109.1194880
  65.5097970  72.5957660 109.4403950  66.2006170  73.1393920 108.2078700
  60.1888880  68.4285140  97.2668730  59.5643060  68.4245010  97.9922040
  60.1019000  67.5616100  96.8704700  59.1105960  69.3521770 104.2452500
  59.4078290  70.2584600 104.1644520  59.6591520  68.8640550 103.6312070
  56.8644280  73.9308010 100.1144150  56.6385200  73.7145180 101.0190770
  56.0836810  74.3636470  99.7690120  64.0942040  73.9371380  98.7134800
  63.4950930  74.6607180  98.5298420  64.6421650  73.8748160  97.9311250
  59.3043490  74.8293590 110.7804420  59.2087090  73.8888320 110.6304820
  60.1475470  75.0508660 110.3852490  62.7006910  72.5734920 100.7438080
  63.0936480  72.8907120  99.9306770  63.0623760  71.6946800 100.8582600
  54.4354030  71.2407260 108.9338200  54.0417420  72.0882470 109.1410980
  53.7472430  70.6033630 109.1246840  51.7371080  69.1635720 102.9668280
  51.4484130  69.7338580 103.6793260  52.4816840  68.6840170 103.3299510
  51.9241310  73.1055840  94.1771000  51.8415980  74.0486600  94.3185990
  51.5724370  72.9630750  93.2983350  63.2862050  75.1640670 104.8388860
  62.5543170  75.6727480 105.1878960  62.8886390  74.3470650 104.5377640
  59.7239440  71.8394870 103.2441350  59.7275500  71.3984820 102.3945890
  60.6190560  72.1612200 103.3513170  55.5741820  71.7221360 102.2035560
  55.2341870  72.1996590 102.9602610  54.8119140  71.2686480 101.8436660
  59.7859590  72.8406950  96.2348110  59.9072410  72.7993430  97.1833930
  59.4008100  73.7031100  96.0794840  63.7487960  70.6174350 104.2511800
  63.7660700  71.0683000 105.0953650  63.5003540  69.7179990 104.4645240
  58.7981090  75.1508090  95.6331410  58.2297990  74.7026340  95.0067320
  59.5070090  75.5100870  95.0996560  67.1758710  68.0306530 110.0898180
  67.5004480  67.2996190 110.6156160  67.2115220  67.7120170 109.1879170
  53.8750270  79.0520110 109.5098140  53.4905060  78.4113780 110.1081100
  54.1862460  79.7556230 110.0792870  60.0247410  75.8996650 104.9906760
  60.3917540  75.4255220 105.7368100  59.8352470  76.7738220 105.3315100
  52.8887900  70.6440340 101.1200230  52.6034820  70.2796010 101.9578850
  52.8266760  69.9120800 100.5063370  57.8146780  74.9405290 107.3090970
  57.5103850  75.8197270 107.5341330  58.7693240  75.0005080 107.3448410
  56.3428570  79.1466280  97.9057820  55.5690830  78.6063900  97.7456540
  57.0723200  78.6272890  97.5675580  67.1016550  78.1431640 103.6984210
  67.8215670  78.6386930 103.3080320  66.8998370  77.4649530 103.0538080
  62.5626490  69.5369600  97.8413600  61.7491100  69.0382770  97.7658910
  62.3688440  70.3767850  97.4249950  62.4835350  78.2140700 109.5853210
  62.4172660  77.2936370 109.3310800  61.8540490  78.3116140 110.2997850
  65.2774880  73.9089250  96.1375760  66.1654500  74.2206480  95.9627100
  65.2479970  73.0361500  95.7456340  56.3865970  78.8146660 101.5436630
  56.9044640  78.0114920 101.4893520  55.9349990  78.7525800 102.3853460
  61.2735470  80.0812940  96.8163930  61.6151170  80.8255170  96.3207250
  60.4448180  80.3944060  97.1788760  53.8710510  75.7808030 108.4562330
  53.5125450  76.4461880 109.0435670  53.5765070  74.9491580 108.8274950
  62.4152080  81.0361270 109.3357010  62.4296620  80.1042230 109.1175920
  61.7077180  81.1221030 109.9746780  67.5489150  75.2201090  95.6055620
  67.4652870  75.6515310  94.7552060  68.2683340  75.6799440  96.0382440
  68.6263290  77.6768610 108.6825590  67.9011480  78.2697390 108.4854980
  69.1538750  77.6692150 107.8838960  68.5776400  82.0743350  98.3337750
  67.9352560  81.4198970  98.6081470  68.1907060  82.4798440  97.5578420
  64.1562880  79.4028780 102.1809440  64.5086700  78.8056910 101.5210810
  63.2725210  79.0773010 102.3517690  60.2426160  80.1626470  99.5879850
  60.9297290  80.7095680  99.9687440  59.4558580  80.7067200  99.6229460
  52.3818560  75.7799290  95.0796930  53.2513410  76.0624090  95.3632850
  51.8908880  76.5935160  94.9645740  59.5453370  77.1672500  99.2005210
  60.0016150  77.9777750  99.4265400  59.1941580  76.8495640 100.0323700
  61.8485980  82.6778840 106.4297510  62.4928200  82.8838220 107.1070930
  62.2115420  81.9167240 105.9768360  55.4465150  67.5110150  99.6727730
  55.3179780  67.5028050 100.6212650  54.6227170  67.8493240  99.3218740
  63.1218060  80.6811190 105.1474960  63.7640290  79.9804350 105.2607130
  63.6467410  81.4609630 104.9671850  66.9673780  80.9659810  94.8714100
  66.7411360  80.2490250  95.4638740  66.5769980  80.7172250  94.0335850
  64.8955680  81.4806090 108.3511020  65.2311920  82.0672780 109.0288940
  63.9756020  81.3498800 108.5808810  52.7489810  84.9926670  95.6458560
  53.1087450  85.5916010  94.9915830  52.6082150  85.5386560  96.4193590
  52.4459080  69.2701270 109.1334430  51.7317600  69.4698190 109.7387040
  52.8654120  68.4940840 109.5049230  66.5490030  78.8831750  96.5328260
  66.2611730  79.3444440  97.3206140  67.3442200  78.4229520  96.8012480
  52.7331670  83.2581530 110.1200960  52.8422790  82.3176270 109.9796350
  52.0812230  83.5236280 109.4714690  58.7658430  82.3757870  96.4632230
  58.7568530  83.1087560  95.8476740  57.8456790  82.1289450  96.5559190
  54.3665070  77.5972760  97.2078990  53.7593020  78.3371660  97.2174290
  54.8414420  77.6872120  96.3817190  63.9397860  71.7623580 106.8835880
  64.3078680  70.9418790 107.2115450  63.0796060  71.8225470 107.2991530
  67.3059890  70.7180520  97.6923440  66.6773050  70.8226190  96.9781670
  66.8111810  70.9377300  98.4817320  61.7518030  82.4386110  95.1257420
  61.8530010  82.2350100  94.1959400  60.8519770  82.1844390  95.3305200
  59.2743920  72.9966470  99.1081320  58.5660070  73.4652810  99.5494930
  59.5588400  72.3388480  99.7426510  60.8999850  74.4163170 107.1073850
  61.3985100  74.8908990 107.7725700  61.0422800  73.4926690 107.3143880
  63.3059350  69.7217130 100.5477110  63.1827130  69.7403260  99.5986620
  64.2543910  69.7696070 100.6675510  60.3936140  84.9572430  99.8205090
  60.6477640  84.9193820  98.8984460  59.4448620  84.8305760  99.8133340
  57.4778940  71.3051550  96.4832030  58.3269470  71.7421700  96.4172220
  57.1110210  71.6171810  97.3104090  68.1066710  70.6331130 107.9502240
  67.6040310  71.3736530 108.2896050  68.9223370  71.0215130 107.6339030
  66.3988720  75.8764310 101.3963600  65.4578860  75.8914540 101.5711290
  66.7132790  75.0900270 101.8423900  56.3770360  77.5583910  94.9567560
  57.1433630  77.4465270  95.5192990  56.4545050  76.8621880  94.3044330
  55.0717120  74.9908980  95.6400450  55.1520710  74.0436490  95.7517850
  55.9636870  75.3215860  95.7461110  68.4014300  83.0473160 103.0717860
  68.5261720  83.8704330 103.5441670  69.2679860  82.8363890 102.7242010
  55.8731830  85.1404370 102.7434990  56.6094310  84.5919830 103.0143560
  56.2572750  86.0060380 102.6040980  52.7577310  81.2077940  98.6176500
  51.8317090  81.4499080  98.6081910  53.2233740  82.0352200  98.4961250
  58.9834140  84.3134680  94.5660560  59.7762750  84.6023510  94.1142350
  58.4638490  83.8826850  93.8873040  68.0364310  83.5404810  95.9897300
  67.7505820  83.1269950  95.1751480  67.8383860  84.4692520  95.8697820
  59.5011540  79.5338090  94.4302910  59.3962180  78.9190440  95.1564290
  59.3335760  79.0103980  93.6465920  59.6525860  78.2194890 110.4092140
  58.8871530  78.7879890 110.3246810  59.8341820  77.9271100 109.5160370
  62.7414270  78.5958120  95.0344900  62.1924370  79.0427420  95.6787640
  63.3633530  78.0907370  95.5582570  66.7949210  79.9500220 110.9667160
  67.5358680  80.2875980 110.4634620  66.0321890  80.1192280 110.4136930
  58.4089390  77.5549040  96.9310200  58.8305810  77.3888910  97.7741590
  58.5340230  76.7449270  96.4365340  56.5716810  73.5345590 109.7381180
  56.0413270  73.0436540 109.1104520  57.2404880  73.9629790 109.2039110
  60.9217030  76.5786650  94.1787300  61.4422690  75.8635670  93.8128450
  61.5685430  77.2172520  94.4787810  65.4694870  78.0015050 109.5022370
  65.8835890  78.1560130 110.3512790  64.5345870  78.1270270 109.6648150
  57.0589110  70.5007960 109.8178470  56.9645980  69.8828710 109.0929340
  56.4786500  71.2274250 109.5908380  59.8250550  69.0581200 106.8505860
  59.3767850  69.0805460 106.0051410  59.1915750  68.6600220 107.4476160
  60.2310100  77.9535530 107.4718300  60.6498210  78.7968260 107.2994540
  59.3118730  78.0907570 107.2425080  62.5674000  75.6851710 108.8556140
  62.6870210  75.0892850 109.5950980  63.4268000  75.7221400 108.4357440
  64.9061900  76.2388900 107.4318650  64.3797120  76.7631520 106.8283790
  65.2493240  76.8716290 108.0628380  57.3048290  73.6282270  93.8768360
  57.1037350  72.7649630  94.2381700  57.1340340  73.5415630  92.9389960
  58.0817520  84.2588540 108.5876030  57.5438610  84.9834600 108.2684730
  58.3351480  83.7818880 107.7973370  59.3342770  72.2273060 110.1131960
  59.9242460  71.9188910 110.8009780  58.5163010  71.7552810 110.2691860
  64.1536200  71.8438870 110.3464980  63.4651720  71.1820410 110.2814970
  64.8742220  71.3977140 110.7913440  64.7836600  68.4390500  96.4055240
  65.0638890  67.5958400  96.7614660  64.0102330  68.6713610  96.9193990
  56.1031090  70.7282890  93.8646240  56.4056990  70.7350320  92.9565390
  56.8425680  70.3780750  94.3613900  60.9379730  85.4939750 108.8462680
  60.8638430  86.3974890 109.1535050  60.0358570  85.1751650 108.8184750
  59.3216020  69.6717510  94.8502440  58.9738020  68.9941500  94.2704890
  59.5228790  69.2107020  95.6645830  61.4865060  84.6598260  96.4689040
  62.3815850  84.9983230  96.4907800  61.5182690  83.9377670  95.8413320
  55.1261220  80.0325310  94.6976040  55.5636090  80.5754980  95.3533620
  55.6108950  79.2072260  94.7072380  52.3407020  82.8214340 102.1496300
  52.6710030  81.9535400 101.9174940  52.7698020  83.0272860 102.9801260
  56.9368940  81.1523350  99.8098270  56.6364480  81.0288320 100.7102180
  56.8306430  80.2931940  99.4014000  52.8297230  83.6884930 104.8877930
  52.3928220  83.8685730 105.7202080  53.3974910  84.4459550 104.7459650
  68.4659410  83.1901930 109.1755240  67.8661400  83.2494490 108.4319160
  68.5953310  82.2506910 109.3052090  69.7060860  80.9319750  94.5124950
  68.8753820  80.9996400  94.9832180  69.8832690  81.8223870  94.2091810
  69.1617320  77.6767230  97.0159150  69.9236230  78.2463880  97.1218840
  69.1771690  77.1094430  97.7867460  52.6621660  76.2005160 101.2466810
  52.0070500  75.9316800 100.6026510  53.4999610  76.0909640 100.7968790
  70.1677290  78.5317330 101.8601080  70.5386120  77.7484650 101.4537050
  70.8079220  79.2206430 101.6818380  67.1511050  79.9153910 107.2731400
  66.3370890  80.3451070 107.5357190  67.5585250  80.5272320 106.6600450
  69.2136490  77.9701600  94.1731670  69.4885330  78.8780480  94.0450890
  69.0247230  77.9064130  95.1093660  65.6112100  70.9946450  95.4685300
  66.0296980  70.8077430  94.6281960  65.3048160  70.1425500  95.7788230
  69.1101830  75.9070590  99.1661100  68.7345430  75.1398520  98.7342390
  68.3804950  76.2893290  99.6536030  53.6997590  76.5857730 105.7870150
  54.0670630  76.4985130 106.6666170  53.1308410  75.8224280 105.6877010
  68.5001450  75.0542110 108.8000620  68.2687540  74.8254860 107.8998570
  68.7606000  75.9741660 108.7545510  53.2513590  73.4966820 109.6928570
  52.3569640  73.4633580 110.0322280  53.7911140  73.6953610 110.4579820
  51.8759740  73.4104090  97.1892140  50.9723820  73.6734290  97.0143800
  52.3600360  73.6815260  96.4092100  68.3852790  74.1328080 102.4668340
  68.9090270  73.6390730 101.8358510  68.9712210  74.2678440 103.2115910
  68.5642510  74.2167950 105.9887890  67.6145220  74.1831490 106.1032880
  68.7455520  75.1268060 105.7537660  54.4186950  72.4669630  95.0986520
  55.1278650  72.0452850  94.6133800  53.7026890  72.5344860  94.4669870
  54.0661110  68.5208960  94.1389170  54.7889240  69.0617900  94.4570390
  54.3385630  68.2472380  93.2630710  67.8752760  73.3901430  98.4060750
  68.3711880  73.1572300  99.1909630  67.6768830  72.5513270  97.9898390
  53.7553300  67.7715150 104.0411790  54.4029490  67.2212530 103.6006950
  54.1755140  68.0258300 104.8627600  69.3039920  72.0262380 100.9398430
  69.1939200  71.8718420 101.8780700  70.0647510  71.4983320 100.6973840
  67.6505640  67.9656510 107.3981430  68.2877860  68.5790650 107.7640620
  67.7980530  68.0017170 106.4530660  70.1930190  69.8570300  94.1804570
  71.1179500  69.7251480  93.9722860  70.1705980  69.9363120  95.1341020
  70.2668680  70.6280960  96.8061280  69.4720180  70.5626080  97.3354190
  70.4711960  71.5631600  96.7946630  67.2087100  84.6672510 100.7999670
  67.8046170  84.3457080 100.1234090  67.4665250  84.1944330 101.5912940
  53.5085300  67.9270820 106.7837110  53.1600120  68.3834640 107.5495290
  53.1773000  67.0327950 106.8659540  58.8155700  82.6550010 106.5500020
  58.5747060  82.9224570 105.6630540  59.7558340  82.8255740 106.6050880
  63.6584680  68.7752760 109.9448820  64.2725090  69.0932050 109.2829900
  64.2034240  68.2901350 110.5644680  70.0759860  84.6744390 107.3510660
  69.5818140  85.0713260 106.6337790  69.4673150  84.0493600 107.7447940
  54.1805940  67.4547020 110.0587880  54.7288930  67.2735070 109.2953990
  54.2461250  66.6641130 110.5944190  54.9537700  84.0452670 108.0688080
  54.3598020  83.9137370 108.8078120  54.9461540  83.2090810 107.6030180
  64.3992720  67.3384900 106.2718110  63.5252560  67.6720010 106.0691040
  64.2903470  66.8658080 107.0969980  65.3064700  69.5455770 107.6559830
  64.9778060  68.7307530 107.2761560  66.2547000  69.5025580 107.5325520
  67.7599310  85.3167810 104.6297400  67.3002280  86.0683620 104.2555420
  67.1311770  84.5974280 104.5712200  54.5849930  81.4111050 107.0196120
  53.8583990  80.7916340 106.9522070  54.6459080  81.8051660 106.1494200
  58.1895030  83.6256050 103.8045530  58.7060050  83.0143410 103.2793790
  58.8392410  84.1284830 104.2956540  60.9290530  84.5164540 104.6314510
  61.2168340  84.2618840 103.7547520  61.4413750  83.9641900 105.2220080
  62.1467540  68.2554740 105.2111020  61.3639330  68.7300240 105.4907780
  61.8530470  67.3509570 105.1024200  66.6988610  68.9577840 103.2560110
  67.1396700  68.9022940 102.4081710  66.4296200  69.8735850 103.3270290
  68.5627180  68.5893080 101.2668930  68.5015580  67.6454300 101.1199950
  69.3419210  68.6973170 101.8122390  52.8679930  84.7285440 100.2292880
  52.7001970  84.0956120 100.9274770  52.0014440  84.9344840  99.8787070
  53.4907950  68.5602220  97.7324740  54.2487310  68.6731100  97.1588770
  53.0285120  69.3971420  97.6868170  60.0321760  70.6741490 100.7227050
  59.2196270  70.2998380 100.3822930  60.5363400  69.9186570 101.0248240
  64.5346740  67.3383940 101.9610120  65.1376110  67.9104150 102.4358640
  63.7939730  67.9023380 101.7384020  67.6781340  67.7405500  97.2350400
  67.8731970  68.6388950  97.5017830  66.8911210  67.5092580  97.7283350
  54.4742630  83.4218670  97.6743020  53.9490250  83.8026700  96.9704980
  54.3987210  84.0469440  98.3952730  55.8633100  69.0866270  96.2726710
  56.3925860  68.2996070  96.1434660  56.4961420  69.7657460  96.5062240
  58.0570940  68.8241410  99.3272100  57.4273680  68.1228720  99.4942230
  57.5176080  69.5845540  99.1105260  69.2307950  84.9806210  98.9956960
  69.4060140  84.2943950  98.3517880  68.5329520  85.5053260  98.6033630
  57.0735600  85.3701050  96.5492270  57.8054420  85.0860330  96.0016160
  57.3329270  85.1314330  97.4391650  56.2350390  81.4865780  96.5538600
  55.6059270  81.9550880  97.1024430  56.3498220  80.6415000  96.9884790
  55.8383980  77.6270270  85.4624830  55.0068860  77.3718980  85.8621340
  56.4464960  77.6981040  86.1982750  55.8185240  81.6610360  85.6582850
  56.1213280  80.7708100  85.4793070  56.5628830  82.2180580  85.4305100
  52.2108940  75.1877810  85.1306920  52.7825050  74.4200010  85.1310560
  52.2110480  75.4866570  84.2213530  61.2627140  79.9907650  84.5919230
  61.1935420  79.0497590  84.4308360  62.0247000  80.0809060  85.1641800
  53.4533810  70.5962170  86.9175850  53.2736650  69.6987920  87.1978610
  53.0513890  71.1434040  87.5922800  70.3655980  72.3095220  88.3160130
  69.6608150  72.6976930  87.7975240  70.6313900  73.0045510  88.9181060
  56.5481150  68.7788590  88.8794200  56.5499590  69.2960980  88.0740100
  55.7185460  68.3018770  88.8564130  57.7984000  78.4183770  87.0567700
  57.4653380  79.0452690  87.6988770  57.9750680  78.9445650  86.2769370
  56.2296480  70.4898550  86.8864650  56.5713290  71.3340600  86.5918520
  55.2912290  70.6382290  87.0029990  57.0103100  80.3864570  88.8716880
  57.6277100  81.0615650  88.5901330  56.1496220  80.7952550  88.7804380
  67.9280690  81.8503980  86.7871520  67.2444210  82.5203090  86.7788190
  68.4674980  82.0484630  86.0216380  64.8624870  78.5977950  86.8299310
  65.2793660  78.3838060  85.9952770  65.5864690  78.8550740  87.4007930
  65.7728980  73.7834490  87.8670420  65.3600160  74.6088200  88.1210410
  65.0404930  73.1979530  87.6746780  58.3743470  80.2561950  84.8928300
  58.0771760  79.6507420  84.2136080  59.3243290  80.2939260  84.7817660
  56.6190390  73.3437600  86.5088130  57.1704980  73.4532940  85.7341380
  57.1333900  73.7175200  87.2243360  66.4629080  83.8293820  88.5551400
  65.9859640  84.6366010  88.3624010  65.7790870  83.1772150  88.7077610
  57.4661900  79.9943640  91.5436100  56.5690430  80.2183610  91.7909500
  57.4914770  80.1178580  90.5947500  56.2933120  76.8656960  90.1193470
  56.1540890  77.7379760  90.4880870  55.4114480  76.5229770  89.9741410
  58.0913470  82.8078660  92.3278620  58.0628900  83.2121610  91.4607050
  57.9278440  81.8789020  92.1650220  70.0428290  83.5905760  93.6242790
  70.5188010  84.0688650  94.3031870  70.6635450  83.5223250  92.8988290
  52.2451770  78.6354510  86.0364380  52.3232190  78.7703280  85.0920100
  52.8593450  77.9270400  86.2292500  53.4899400  80.3354700  82.4470560
  53.0827480  80.4769290  81.5924160  54.3812410  80.0514860  82.2441770
  69.4461540  80.7818610  90.7842800  69.5724600  80.5430490  89.8659980
  69.4882920  79.9503150  91.2564880  63.3078280  84.4846610  89.3537610
  63.8222950  84.3954620  90.1560040  62.4647360  84.8306310  89.6465520
  57.7621060  84.5500480  80.5593230  57.5863540  83.6336020  80.3461030
  56.9076800  84.9087770  80.7991030  69.2985550  72.8351070  91.7492540
  68.6829820  73.3430740  91.2208000  68.9781970  71.9349400  91.6918480
  52.3011290  79.6768680  88.5758840  52.4642330  79.2074040  87.7578210
  52.7663740  79.1692240  89.2407680  61.3599870  71.6742960  89.2154730
  60.8979240  71.8825980  90.0274670  60.9577980  70.8602310  88.9125400
  66.3604380  72.8951910  90.3451390  65.5097970  72.5957660  90.6660460
  66.2006170  73.1393920  89.4335210  63.4554090  74.3953660  92.4450180
  63.7807500  73.5617410  92.1052410  64.2434420  74.9182180  92.5928510
  59.1105960  69.3521770  85.4709010  59.4078290  70.2584600  85.3901030
  59.6591520  68.8640550  84.8568580  59.3043490  74.8293590  92.0060930
  59.2087090  73.8888320  91.8561330  60.1475470  75.0508660  91.6109000
  54.4354030  71.2407260  90.1594710  54.0417420  72.0882470  90.3667490
  53.7472430  70.6033630  90.3503350  61.0099080  71.3242230  93.2291450
  60.3197400  71.1314430  93.8637540  61.7531380  71.6076870  93.7615750
  59.7239440  71.8394870  84.4697860  59.7275500  71.3984820  83.6202400
  60.6190560  72.1612200  84.5769680  63.7487960  70.6174350  85.4768310
  63.7660700  71.0683000  86.3210160  63.5003540  69.7179990  85.6901750
  67.1758710  68.0306530  91.3154690  67.5004480  67.2996190  91.8412670
  67.2115220  67.7120170  90.4135680  53.8750270  79.0520110  90.7354650
  53.4905060  78.4113780  91.3337610  54.1862460  79.7556230  91.3049380
  60.0247410  75.8996650  86.2163270  60.3917540  75.4255220  86.9624610
  59.8352470  76.7738220  86.5571610  57.8146780  74.9405290  88.5347480
  57.5103850  75.8197270  88.7597840  58.7693240  75.0005080  88.5704920
  56.3428570  79.1466280  79.1314330  55.5690830  78.6063900  78.9713050
  57.0723200  78.6272890  78.7932090  62.4835350  78.2140700  90.8109720
  62.4172660  77.2936370  90.5567310  61.8540490  78.3116140  91.5254360
  56.3865970  78.8146660  82.7693140  56.9044640  78.0114920  82.7150030
  55.9349990  78.7525800  83.6109970  61.2735470  80.0812940  78.0420440
  61.6151170  80.8255170  77.5463760  60.4448180  80.3944060  78.4045270
  53.8710510  75.7808030  89.6818840  53.5125450  76.4461880  90.2692180
  53.5765070  74.9491580  90.0531460  57.0723630  76.2392270  92.5658390
  56.7723770  76.3849450  91.6686210  57.8434870  75.6797560  92.4731780
  62.4152080  81.0361270  90.5613520  62.4296620  80.1042230  90.3432430
  61.7077180  81.1221030  91.2003290  68.6263290  77.6768610  89.9082100
  67.9011480  78.2697390  89.7111490  69.1538750  77.6692150  89.1095470
  61.8485980  82.6778840  87.6554020  62.4928200  82.8838220  88.3327440
  62.2115420  81.9167240  87.2024870  63.1218060  80.6811190  86.3731470
  63.7640290  79.9804350  86.4863640  63.6467410  81.4609630  86.1928360
  64.8955680  81.4806090  89.5767530  65.2311920  82.0672780  90.2545450
  63.9756020  81.3498800  89.8065320  52.4459080  69.2701270  90.3590940
  51.7317600  69.4698190  90.9643550  52.8654120  68.4940840  90.7305740
  52.7331670  83.2581530  91.3457470  52.8422790  82.3176270  91.2052860
  52.0812230  83.5236280  90.6971200  60.7244260  81.5297420  92.7455590
  60.4041130  80.8106660  93.2901280  60.0502620  82.2052490  92.8191650
  58.7658430  82.3757870  77.6888740  58.7568530  83.1087560  77.0733250
  57.8456790  82.1289450  77.7815700  63.9397860  71.7623580  88.1092390
  64.3078680  70.9418790  88.4371960  63.0796060  71.8225470  88.5248040
  60.8999850  74.4163170  88.3330360  61.3985100  74.8908990  88.9982210
  61.0422800  73.4926690  88.5400390  68.1066710  70.6331130  89.1758750
  67.6040310  71.3736530  89.5152560  68.9223370  71.0215130  88.8595540
  68.4014300  83.0473160  84.2974370  68.5261720  83.8704330  84.7698180
  69.2679860  82.8363890  83.9498520  55.8731830  85.1404370  83.9691500
  56.6094310  84.5919830  84.2400070  56.2572750  86.0060380  83.8297490
  52.7577310  81.2077940  79.8433010  51.8317090  81.4499080  79.8338420
  53.2233740  82.0352200  79.7217760  54.8790110  84.3250440  93.1577080
  55.6802840  84.6462490  93.5712480  54.3641930  83.9646020  93.8796990
  58.9834140  84.3134680  75.7917070  59.7762750  84.6023510  75.3398860
  58.4638490  83.8826850  75.1129550  63.7154740  80.4330310  93.1052490
  63.1092900  80.4561910  92.3648240  63.4108850  79.7013350  93.6419740
  65.1455110  84.1610600  91.7161900  66.0976860  84.0768620  91.6662140
  64.9983330  84.8252310  92.3895690  52.5987920  76.8123900  92.1013130
  53.1026940  76.2331180  92.6729360  51.8595340  77.0964130  92.6389500
  59.6525860  78.2194890  91.6348650  58.8871530  78.7879890  91.5503320
  59.8341820  77.9271100  90.7416880  66.7949210  79.9500220  92.1923670
  67.5358680  80.2875980  91.6891130  66.0321890  80.1192280  91.6393440
  54.6311000  74.9553490  92.9963200  54.6716340  74.6567360  93.9048430
  55.4856500  75.3561100  92.8370720  56.5716810  73.5345590  90.9637690
  56.0413270  73.0436540  90.3361030  57.2404880  73.9629790  90.4295620
  65.4694870  78.0015050  90.7278880  65.8835890  78.1560130  91.5769300
  64.5345870  78.1270270  90.8904660  65.9417040  75.3411210  92.7318030
  66.5237810  74.5863530  92.6438510  66.1178810  75.8718650  91.9549510
  57.0589110  70.5007960  91.0434980  56.9645980  69.8828710  90.3185850
  56.4786500  71.2274250  90.8164890  59.8250550  69.0581200  88.0762370
  59.3767850  69.0805460  87.2307920  59.1915750  68.6600220  88.6732670
  60.2310100  77.9535530  88.6974810  60.6498210  78.7968260  88.5251050
  59.3118730  78.0907570  88.4681590  62.5674000  75.6851710  90.0812650
  62.6870210  75.0892850  90.8207490  63.4268000  75.7221400  89.6613950
  64.9061900  76.2388900  88.6575160  64.3797120  76.7631520  88.0540300
  65.2493240  76.8716290  89.2884890  58.0817520  84.2588540  89.8132540
  57.5438610  84.9834600  89.4941240  58.3351480  83.7818880  89.0229880
  59.3342770  72.2273060  91.3388470  59.9242460  71.9188910  92.0266290
  58.5163010  71.7552810  91.4948370  64.1536200  71.8438870  91.5721490
  63.4651720  71.1820410  91.5071480  64.8742220  71.3977140  92.0169950
  60.9379730  85.4939750  90.0719190  60.8638430  86.3974890  90.3791560
  60.0358570  85.1751650  90.0441260  52.3407020  82.8214340  83.3752810
  52.6710030  81.9535400  83.1431450  52.7698020  83.0272860  84.2057770
  56.9368940  81.1523350  81.0354780  56.6364480  81.0288320  81.9358690
  56.8306430  80.2931940  80.6270510  52.8297230  83.6884930  86.1134440
  52.3928220  83.8685730  86.9458590  53.3974910  84.4459550  85.9716160
  68.4659410  83.1901930  90.4011750  67.8661400  83.2494490  89.6575670
  68.5953310  82.2506910  90.5308600  67.1511050  79.9153910  88.4987910
  66.3370890  80.3451070  88.7613700  67.5585250  80.5272320  87.8856960
  53.6997590  76.5857730  87.0126660  54.0670630  76.4985130  87.8922680
  53.1308410  75.8224280  86.9133520  68.5001450  75.0542110  90.0257130
  68.2687540  74.8254860  89.1255080  68.7606000  75.9741660  89.9802020
  53.2513590  73.4966820  90.9185080  52.3569640  73.4633580  91.2578790
  53.7911140  73.6953610  91.6836330  66.9389520  70.2798540  92.8036830
  67.8159700  70.2881940  93.1870830  66.9510360  69.5429380  92.1929180
  68.5642510  74.2167950  87.2144400  67.6145220  74.1831490  87.3289390
  68.7455520  75.1268060  86.9794170  53.7553300  67.7715150  85.2668300
  54.4029490  67.2212530  84.8263460  54.1755140  68.0258300  86.0884110
  67.6505640  67.9656510  88.6237940  68.2877860  68.5790650  88.9897130
  67.7980530  68.0017170  87.6787170  53.5085300  67.9270820  88.0093620
  53.1600120  68.3834640  88.7751800  53.1773000  67.0327950  88.0916050
  55.1149670  81.0990420  92.1746810  55.0719300  80.7283330  93.0561270
  55.2460680  82.0367990  92.3148630  58.8155700  82.6550010  87.7756530
  58.5747060  82.9224570  86.8887050  59.7558340  82.8255740  87.8307390
  61.0210120  69.1182700  91.5313040  60.9599010  69.7104530  92.2808450
  61.9610500  69.0108660  91.3863300  63.6584680  68.7752760  91.1705330
  64.2725090  69.0932050  90.5086410  64.2034240  68.2901350  91.7901190
  70.0759860  84.6744390  88.5767170  69.5818140  85.0713260  87.8594300
  69.4673150  84.0493600  88.9704450  54.1805940  67.4547020  91.2844390
  54.7288930  67.2735070  90.5210500  54.2461250  66.6641130  91.8200700
  54.9537700  84.0452670  89.2944590  54.3598020  83.9137370  90.0334630
  54.9461540  83.2090810  88.8286690  64.3992720  67.3384900  87.4974620
  63.5252560  67.6720010  87.2947550  64.2903470  66.8658080  88.3226490
  65.3064700  69.5455770  88.8816340  64.9778060  68.7307530  88.5018070
  66.2547000  69.5025580  88.7582030  67.7599310  85.3167810  85.8553910
  67.3002280  86.0683620  85.4811930  67.1311770  84.5974280  85.7968710
  54.5849930  81.4111050  88.2452630  53.8583990  80.7916340  88.1778580
  54.6459080  81.8051660  87.3750710  58.1895030  83.6256050  85.0302040
  58.7060050  83.0143410  84.5050300  58.8392410  84.1284830  85.5213050
  60.9290530  84.5164540  85.8571020  61.2168340  84.2618840  84.9804030
  61.4413750  83.9641900  86.4476590  62.1467540  68.2554740  86.4367530
  61.3639330  68.7300240  86.7164290  61.8530470  67.3509570  86.3280710
  52.8679930  84.7285440  81.4549390  52.7001970  84.0956120  82.1531280
  52.0014440  84.9344840  81.1043580  64.5346740  67.3383940  83.1866630
  65.1376110  67.9104150  83.6615150  63.7939730  67.9023380  82.9640530
  54.4742630  83.4218670  78.8999530  53.9490250  83.8026700  78.1961490
  54.3987210  84.0469440  79.6209240  60.9962890  85.4380640  93.2239220
  61.9230200  85.2024910  93.2675180  60.9813320  86.2652640  92.7425250
  58.1826500  68.1025390  92.9881100  57.9010770  68.6058990  92.2241920
  58.5646200  67.3047140  92.6223230  57.0735600  85.3701050  77.7748780
  57.8054420  85.0860330  77.2272670  57.3329270  85.1314330  78.6648160
  64.7841960  67.5178970  93.5661570  64.6707410  67.8373580  94.4613090
  65.6011700  67.9191480  93.2698850  67.5640450  84.6650500  93.0480260
  68.3565770  84.1699730  92.8406220  67.8573600  85.3440640  93.6555870
  67.2087100  84.6672510  63.2512690  67.8046170  84.3457080  62.5747110
  67.4665250  84.1944330  64.0425960  60.9962890  85.4380640  74.4495730
  61.9230200  85.2024910  74.4931690  60.9813320  86.2652640  73.9681760
  52.7489810  84.9926670  39.3228090  53.1087450  85.5916010  38.6685360
  52.6082150  85.5386560  40.0963120  56.3770360  77.5583910  38.6337090
  57.1433630  77.4465270  39.1962520  56.4545050  76.8621880  37.9813860
  52.8679930  84.7285440  43.9062410  52.7001970  84.0956120  44.6044300
  52.0014440  84.9344840  43.5556600  54.4742630  83.4218670  41.3512550
  53.9490250  83.8026700  40.6474510  54.3987210  84.0469440  42.0722260
  55.8383980  77.6270270  29.1394360  55.0068860  77.3718980  29.5390870
  56.4464960  77.6981040  29.8752280  55.8185240  81.6610360  29.3352380
  56.1213280  80.7708100  29.1562600  56.5628830  82.2180580  29.1074630
  54.2475930  72.5872160  22.9236750  53.3592630  72.9288130  22.8216630
  54.5317120  72.3872480  22.0317580  52.2108940  75.1877810  28.8076450
  52.7825050  74.4200010  28.8080090  52.2110480  75.4866570  27.8983060
  53.4533810  70.5962170  30.5945380  53.2736650  69.6987920  30.8748140
  53.0513890  71.1434040  31.2692330  56.4237320  71.1703660  23.9575130
  56.5304070  72.0707390  24.2643890  55.5129680  71.1221630  23.6669780
  66.0756430  70.2928470  25.4286030  66.8966050  69.8025040  25.4711510
  66.1090510  70.8826130  26.1817870  54.0720480  73.0922670  29.2027720
  54.7530590  73.3561040  29.8215120  53.7568530  72.2523540  29.5365730
  58.2645050  74.1390030  28.2900310  58.7723270  74.6371000  28.9305330
  58.7958290  73.3625230  28.1139670  57.7984000  78.4183770  30.7337230
  57.4653380  79.0452690  31.3758300  57.9750680  78.9445650  29.9538900
  57.0103100  80.3864570  32.5486410  57.6277100  81.0615650  32.2670860
  56.1496220  80.7952550  32.4573910  52.3035440  79.5764430  21.4293260
  51.9263420  80.0651530  20.6978160  52.5608510  80.2489710  22.0599790
  62.2874210  72.3146650  20.6206050  61.3477880  72.4760610  20.7058510
  62.6057470  73.0332330  20.0742040  57.9061770  76.5694390  26.4058620
  57.5018770  75.8571640  25.9104520  57.9924890  76.2247630  27.2946660
  58.3743470  80.2561950  28.5697830  58.0771760  79.6507420  27.8905610
  59.3243290  80.2939260  28.4587190  56.6190390  73.3437600  30.1857660
  57.1704980  73.4532940  29.4110910  57.1333900  73.7175200  30.9012890
  57.4661900  79.9943640  35.2205630  56.5690430  80.2183610  35.4679030
  57.4914770  80.1178580  34.2717030  68.0884260  68.0979570  19.4487930
  67.7756920  68.1906400  20.3487000  68.8496730  68.6760600  19.3985360
  54.6066400  75.4639370  23.9065270  54.4864000  76.1901460  23.2946540
  54.2967290  74.6942280  23.4293180  52.2451770  78.6354510  29.7133910
  52.3232190  78.7703280  28.7689630  52.8593450  77.9270400  29.9062030
  53.4899400  80.3354700  26.1240090  53.0827480  80.4769290  25.2693690
  54.3812410  80.0514860  25.9211300  57.7621060  84.5500480  24.2362760
  57.5863540  83.6336020  24.0230560  56.9076800  84.9087770  24.4760560
  52.3011290  79.6768680  32.2528370  52.4642330  79.2074040  31.4347740
  52.7663740  79.1692240  32.9177210  60.1888880  68.4285140  22.1694770
  59.5643060  68.4245010  22.8948080  60.1019000  67.5616100  21.7730740
  56.8644280  73.9308010  25.0170190  56.6385200  73.7145180  25.9216810
  56.0836810  74.3636470  24.6716160  64.0942040  73.9371380  23.6160840
  63.4950930  74.6607180  23.4324460  64.6421650  73.8748160  22.8337290
  51.7371080  69.1635720  27.8694320  51.4484130  69.7338580  28.5819300
  52.4816840  68.6840170  28.2325550  51.9241310  73.1055840  19.0797040
  51.8415980  74.0486600  19.2212030  51.5724370  72.9630750  18.2009390
  55.5741820  71.7221360  27.1061600  55.2341870  72.1996590  27.8628650
  54.8119140  71.2686480  26.7462700  59.7859590  72.8406950  21.1374150
  59.9072410  72.7993430  22.0859970  59.4008100  73.7031100  20.9820880
  58.7981090  75.1508090  20.5357450  58.2297990  74.7026340  19.9093360
  59.5070090  75.5100870  20.0022600  53.8750270  79.0520110  34.4124180
  53.4905060  78.4113780  35.0107140  54.1862460  79.7556230  34.9818910
  52.8887900  70.6440340  26.0226270  52.6034820  70.2796010  26.8604890
  52.8266760  69.9120800  25.4089410  56.3428570  79.1466280  22.8083860
  55.5690830  78.6063900  22.6482580  57.0723200  78.6272890  22.4701620
  62.5626490  69.5369600  22.7439640  61.7491100  69.0382770  22.6684950
  62.3688440  70.3767850  22.3275990  56.3865970  78.8146660  26.4462670
  56.9044640  78.0114920  26.3919560  55.9349990  78.7525800  27.2879500
  53.8710510  75.7808030  33.3588370  53.5125450  76.4461880  33.9461710
  53.5765070  74.9491580  33.7300990  62.4152080  81.0361270  34.2383050
  62.4296620  80.1042230  34.0201960  61.7077180  81.1221030  34.8772820
  60.2426160  80.1626470  24.4905890  60.9297290  80.7095680  24.8713480
  59.4558580  80.7067200  24.5255500  52.3818560  75.7799290  19.9822970
  53.2513410  76.0624090  20.2658890  51.8908880  76.5935160  19.8671780
  59.5453370  77.1672500  24.1031250  60.0016150  77.9777750  24.3291440
  59.1941580  76.8495640  24.9349740  55.4465150  67.5110150  24.5753770
  55.3179780  67.5028050  25.5238690  54.6227170  67.8493240  24.2244780
  64.8955680  81.4806090  33.2537060  65.2311920  82.0672780  33.9314980
  63.9756020  81.3498800  33.4834850  52.7489810  84.9926670  20.5484600
  53.1087450  85.5916010  19.8941870  52.6082150  85.5386560  21.3219630
  52.7331670  83.2581530  35.0227000  52.8422790  82.3176270  34.8822390
  52.0812230  83.5236280  34.3740730  58.7658430  82.3757870  21.3658270
  58.7568530  83.1087560  20.7502780  57.8456790  82.1289450  21.4585230
  54.3665070  77.5972760  22.1105030  53.7593020  78.3371660  22.1200330
  54.8414420  77.6872120  21.2843230  67.3059890  70.7180520  22.5949480
  66.6773050  70.8226190  21.8807710  66.8111810  70.9377300  23.3843360
  59.2743920  72.9966470  24.0107360  58.5660070  73.4652810  24.4520970
  59.5588400  72.3388480  24.6452550  63.3059350  69.7217130  25.4503150
  63.1827130  69.7403260  24.5012660  64.2543910  69.7696070  25.5701550
  57.4778940  71.3051550  21.3858070  58.3269470  71.7421700  21.3198260
  57.1110210  71.6171810  22.2130130  56.3770360  77.5583910  19.8593600
  57.1433630  77.4465270  20.4219030  56.4545050  76.8621880  19.2070370
  55.0717120  74.9908980  20.5426490  55.1520710  74.0436490  20.6543890
  55.9636870  75.3215860  20.6487150  55.8731830  85.1404370  27.6461030
  56.6094310  84.5919830  27.9169600  56.2572750  86.0060380  27.5067020
  52.7577310  81.2077940  23.5202540  51.8317090  81.4499080  23.5107950
  53.2233740  82.0352200  23.3987290  58.9834140  84.3134680  19.4686600
  59.7762750  84.6023510  19.0168390  58.4638490  83.8826850  18.7899080
  52.5987920  76.8123900  35.7782660  53.1026940  76.2331180  36.3498890
  51.8595340  77.0964130  36.3159030  58.4089390  77.5549040  21.8336240
  58.8305810  77.3888910  22.6767630  58.5340230  76.7449270  21.3391380
  57.3048290  73.6282270  18.7794400  57.1037350  72.7649630  19.1407740
  57.1340340  73.5415630  17.8416000  64.7836600  68.4390500  21.3081280
  65.0638890  67.5958400  21.6640700  64.0102330  68.6713610  21.8220030
  56.1031090  70.7282890  18.7672280  56.4056990  70.7350320  17.8591430
  56.8425680  70.3780750  19.2639940  59.3216020  69.6717510  19.7528480
  58.9738020  68.9941500  19.1730930  59.5228790  69.2107020  20.5671870
  55.1261220  80.0325310  19.6002080  55.5636090  80.5754980  20.2559660
  55.6108950  79.2072260  19.6098420  52.3407020  82.8214340  27.0522340
  52.6710030  81.9535400  26.8200980  52.7698020  83.0272860  27.8827300
  56.9368940  81.1523350  24.7124310  56.6364480  81.0288320  25.6128220
  56.8306430  80.2931940  24.3040040  52.8297230  83.6884930  29.7903970
  52.3928220  83.8685730  30.6228120  53.3974910  84.4459550  29.6485690
  52.6621660  76.2005160  26.1492850  52.0070500  75.9316800  25.5052550
  53.4999610  76.0909640  25.6994830  65.6112100  70.9946450  20.3711340
  66.0296980  70.8077430  19.5308000  65.3048160  70.1425500  20.6814270
  53.6997590  76.5857730  30.6896190  54.0670630  76.4985130  31.5692210
  53.1308410  75.8224280  30.5903050  51.8759740  73.4104090  22.0918180
  50.9723820  73.6734290  21.9169840  52.3600360  73.6815260  21.3118140
  54.4186950  72.4669630  20.0012560  55.1278650  72.0452850  19.5159840
  53.7026890  72.5344860  19.3695910  54.0661110  68.5208960  19.0415210
  54.7889240  69.0617900  19.3596430  54.3385630  68.2472380  18.1656750
  69.3039920  72.0262380  25.8424470  69.1939200  71.8718420  26.7806740
  70.0647510  71.4983320  25.5999880  70.1930190  69.8570300  19.0830610
  71.1179500  69.7251480  18.8748900  70.1705980  69.9363120  20.0367060
  55.1149670  81.0990420  35.8516340  55.0719300  80.7283330  36.7330800
  55.2460680  82.0367990  35.9918160  58.8155700  82.6550010  31.4526060
  58.5747060  82.9224570  30.5656580  59.7558340  82.8255740  31.5076920
  54.9537700  84.0452670  32.9714120  54.3598020  83.9137370  33.7104160
  54.9461540  83.2090810  32.5056220  54.5849930  81.4111050  31.9222160
  53.8583990  80.7916340  31.8548110  54.6459080  81.8051660  31.0520240
  58.1895030  83.6256050  28.7071570  58.7060050  83.0143410  28.1819830
  58.8392410  84.1284830  29.1982580  68.5627180  68.5893080  26.1694970
  68.5015580  67.6454300  26.0225990  69.3419210  68.6973170  26.7148430
  52.8679930  84.7285440  25.1318920  52.7001970  84.0956120  25.8300810
  52.0014440  84.9344840  24.7813110  53.4907950  68.5602220  22.6350780
  54.2487310  68.6731100  22.0614810  53.0285120  69.3971420  22.5894210
  60.0321760  70.6741490  25.6253090  59.2196270  70.2998380  25.2848970
  60.5363400  69.9186570  25.9274280  64.5346740  67.3383940  26.8636160
  65.1376110  67.9104150  27.3384680  63.7939730  67.9023380  26.6410060
  67.6781340  67.7405500  22.1376440  67.8731970  68.6388950  22.4043870
  66.8911210  67.5092580  22.6309390  54.4742630  83.4218670  22.5769060
  53.9490250  83.8026700  21.8731020  54.3987210  84.0469440  23.2978770
  55.8633100  69.0866270  21.1752750  56.3925860  68.2996070  21.0460700
  56.4961420  69.7657460  21.4088280  58.0570940  68.8241410  24.2298140
  57.4273680  68.1228720  24.3968270  57.5176080  69.5845540  24.0131300
  57.0735600  85.3701050  21.4518310  57.8054420  85.0860330  20.9042200
  57.3329270  85.1314330  22.3417690  56.2350390  81.4865780  21.4564640
  55.6059270  81.9550880  22.0050470  56.3498220  80.6415000  21.8910830
  63.6900110  75.5371440   7.6065840  63.6094160  74.6226050   7.3357550
  63.2764530  76.0338510   6.9005550  61.8218150  77.3150460   9.4875110
  61.0460250  76.8350900   9.7773680  62.4731080  76.6356110   9.3131270
  55.8383980  77.6270270  10.3650870  55.0068860  77.3718980  10.7647380
  56.4464960  77.6981040  11.1008790  65.8425580  81.7210650   8.2674240
  65.3807110  80.9497890   8.5961410  66.6551130  81.7476720   8.7726690
  55.8185240  81.6610360  10.5608890  56.1213280  80.7708100  10.3819110
  56.5628830  82.2180580  10.3331140  54.2475930  72.5872160   4.1493260
  53.3592630  72.9288130   4.0473140  54.5317120  72.3872480   3.2574090
  52.2108940  75.1877810  10.0332960  52.7825050  74.4200010  10.0336600
  52.2110480  75.4866570   9.1239570  62.0688890  84.0068660   7.8878230
  61.4500330  84.4626160   7.3172670  62.9240670  84.1620120   7.4867930
  61.2627140  79.9907650   9.4945270  61.1935420  79.0497590   9.3334400
  62.0247000  80.0809060  10.0667840  53.4533810  70.5962170  11.8201890
  53.2736650  69.6987920  12.1004650  53.0513890  71.1434040  12.4948840
  62.2932310  72.7978030   9.7214200  62.6697130  71.9249910   9.6087870
  62.1951820  73.1336730   8.8304640  56.4237320  71.1703660   5.1831640
  56.5304070  72.0707390   5.4900400  55.5129680  71.1221630   4.8926290
  66.0756430  70.2928470   6.6542540  66.8966050  69.8025040   6.6968020
  66.1090510  70.8826130   7.4074380  54.0720480  73.0922670  10.4284230
  54.7530590  73.3561040  11.0471630  53.7568530  72.2523540  10.7622240
  58.2645050  74.1390030   9.5156820  58.7723270  74.6371000  10.1561840
  58.7958290  73.3625230   9.3396180  70.3655980  72.3095220  13.2186170
  69.6608150  72.6976930  12.7001280  70.6313900  73.0045510  13.8207100
  56.5481150  68.7788590  13.7820240  56.5499590  69.2960980  12.9766140
  55.7185460  68.3018770  13.7590170  62.9352240  78.8907900   5.2810140
  62.3169510  79.3557350   4.7172860  63.4475490  79.5835380   5.6979650
  57.7984000  78.4183770  11.9593740  57.4653380  79.0452690  12.6014810
  57.9750680  78.9445650  11.1795410  66.3117910  72.2328850   9.4270080
  65.6073480  72.5213740  10.0073190  66.6730070  73.0428960   9.0669640
  56.2296480  70.4898550  11.7890690  56.5713290  71.3340600  11.4944560
  55.2912290  70.6382290  11.9056030  57.0103100  80.3864570  13.7742920
  57.6277100  81.0615650  13.4927370  56.1496220  80.7952550  13.6830420
  52.3035440  79.5764430   2.6549770  51.9263420  80.0651530   1.9234670
  52.5608510  80.2489710   3.2856300  69.3804830  71.6783640   9.8179290
  68.4329740  71.7122620   9.9494720  69.7054820  72.4922590  10.2028650
  59.9124370  67.9780820   8.1135280  60.2199350  67.4227710   7.3970780
  58.9825070  68.1125280   7.9308270  65.4639430  83.6948110  10.4042740
  65.4766590  83.2910400   9.5365000  64.9114650  84.4695400  10.3004170
  66.7584850  80.4164330   5.4932910  66.6481180  79.4738660   5.6182330
  66.7553100  80.7779970   6.3795670  64.8624870  78.5977950  11.7325350
  65.2793660  78.3838060  10.8978810  65.5864690  78.8550740  12.3033970
  62.3005130  76.0429650   4.8495400  61.3734410  75.9767030   5.0783870
  62.4529950  76.9809780   4.7350640  62.2874210  72.3146650   1.8462560
  61.3477880  72.4760610   1.9315020  62.6057470  73.0332330   1.2998550
  68.8086970  76.9965170  11.8241590  67.9805600  77.0658260  11.3491720
  69.4037450  77.5819480  11.3557420  66.3302420  77.6049950   5.3530650
  65.7114840  77.2669500   4.7056950  66.3126870  76.9609710   6.0609840
  65.7728980  73.7834490  12.7696460  65.3600160  74.6088200  13.0236450
  65.0404930  73.1979530  12.5772820  57.9061770  76.5694390   7.6315130
  57.5018770  75.8571640   7.1361030  57.9924890  76.2247630   8.5203170
  58.3743470  80.2561950   9.7954340  58.0771760  79.6507420   9.1162120
  59.3243290  80.2939260   9.6843700  56.6190390  73.3437600  11.4114170
  57.1704980  73.4532940  10.6367420  57.1333900  73.7175200  12.1269400
  57.4661900  79.9943640  16.4462140  56.5690430  80.2183610  16.6935540
  57.4914770  80.1178580  15.4973540  64.5067120  76.8436760   2.3603400
  64.9460400  76.0059190   2.2141220  65.2195540  77.4766160   2.4467540
  56.2933120  76.8656960  15.0219510  56.1540890  77.7379760  15.3906910
  55.4114480  76.5229770  14.8767450  62.6162500  81.7832830   6.3284640
  63.0558410  82.5257160   5.9140030  62.5549390  82.0259400   7.2523600
  58.0913470  82.8078660  17.2304660  58.0628900  83.2121610  16.3633090
  57.9278440  81.8789020  17.0676260  54.6066400  75.4639370   5.1321780
  54.4864000  76.1901460   4.5203050  54.2967290  74.6942280   4.6549690
  52.2451770  78.6354510  10.9390420  52.3232190  78.7703280   9.9946140
  52.8593450  77.9270400  11.1318540  53.4899400  80.3354700   7.3496600
  53.0827480  80.4769290   6.4950200  54.3812410  80.0514860   7.1467810
  63.3078280  84.4846610  14.2563650  63.8222950  84.3954620  15.0586080
  62.4647360  84.8306310  14.5491560  65.2832680  84.7701950   3.6847650
  65.1233820  84.4804890   4.5829480  65.1179390  83.9942080   3.1492880
  57.7621060  84.5500480   5.4619270  57.5863540  83.6336020   5.2487070
  56.9076800  84.9087770   5.7017070  64.9858810  82.2789510   2.2445650
  64.2923970  82.2766800   1.5847930  65.7281670  81.8548830   1.8139820
  64.5508740  83.9052220   6.3194140  65.0065690  83.1241600   6.6332760
  64.8901260  84.6159040   6.8635320  52.3011290  79.6768680  13.4784880
  52.4642330  79.2074040  12.6604250  52.7663740  79.1692240  14.1433720
  57.0730060  68.8074440   8.5145450  56.6298210  69.5883980   8.1829970
  57.6315050  69.1304330   9.2216390  61.3599870  71.6742960  14.1180770
  60.8979240  71.8825980  14.9300710  60.9577980  70.8602310  13.8151440
  66.3604380  72.8951910  15.2477430  65.5097970  72.5957660  15.5686500
  66.2006170  73.1393920  14.3361250  63.4554090  74.3953660  17.3476220
  63.7807500  73.5617410  17.0078450  64.2434420  74.9182180  17.4954550
  60.1888880  68.4285140   3.3951280  59.5643060  68.4245010   4.1204590
  60.1019000  67.5616100   2.9987250  59.1105960  69.3521770  10.3735050
  59.4078290  70.2584600  10.2927070  59.6591520  68.8640550   9.7594620
  56.8644280  73.9308010   6.2426700  56.6385200  73.7145180   7.1473320
  56.0836810  74.3636470   5.8972670  64.0942040  73.9371380   4.8417350
  63.4950930  74.6607180   4.6580970  64.6421650  73.8748160   4.0593800
  59.3043490  74.8293590  16.9086970  59.2087090  73.8888320  16.7587370
  60.1475470  75.0508660  16.5135040  62.7006910  72.5734920   6.8720630
  63.0936480  72.8907120   6.0589320  63.0623760  71.6946800   6.9865150
  54.4354030  71.2407260  15.0620750  54.0417420  72.0882470  15.2693530
  53.7472430  70.6033630  15.2529390  61.0099080  71.3242230  18.1317490
  60.3197400  71.1314430  18.7663580  61.7531380  71.6076870  18.6641790
  51.7371080  69.1635720   9.0950830  51.4484130  69.7338580   9.8075810
  52.4816840  68.6840170   9.4582060  63.2862050  75.1640670  10.9671410
  62.5543170  75.6727480  11.3161510  62.8886390  74.3470650  10.6660190
  59.7239440  71.8394870   9.3723900  59.7275500  71.3984820   8.5228440
  60.6190560  72.1612200   9.4795720  55.5741820  71.7221360   8.3318110
  55.2341870  72.1996590   9.0885160  54.8119140  71.2686480   7.9719210
  59.7859590  72.8406950   2.3630660  59.9072410  72.7993430   3.3116480
  59.4008100  73.7031100   2.2077390  63.7487960  70.6174350  10.3794350
  63.7660700  71.0683000  11.2236200  63.5003540  69.7179990  10.5927790
  67.1758710  68.0306530  16.2180730  67.5004480  67.2996190  16.7438710
  67.2115220  67.7120170  15.3161720  53.8750270  79.0520110  15.6380690
  53.4905060  78.4113780  16.2363650  54.1862460  79.7556230  16.2075420
  60.0247410  75.8996650  11.1189310  60.3917540  75.4255220  11.8650650
  59.8352470  76.7738220  11.4597650  52.8887900  70.6440340   7.2482780
  52.6034820  70.2796010   8.0861400  52.8266760  69.9120800   6.6345920
  57.8146780  74.9405290  13.4373520  57.5103850  75.8197270  13.6623880
  58.7693240  75.0005080  13.4730960  56.3428570  79.1466280   4.0340370
  55.5690830  78.6063900   3.8739090  57.0723200  78.6272890   3.6958130
  67.1016550  78.1431640   9.8266760  67.8215670  78.6386930   9.4362870
  66.8998370  77.4649530   9.1820630  62.5626490  69.5369600   3.9696150
  61.7491100  69.0382770   3.8941460  62.3688440  70.3767850   3.5532500
  62.4835350  78.2140700  15.7135760  62.4172660  77.2936370  15.4593350
  61.8540490  78.3116140  16.4280400  65.2774880  73.9089250   2.2658310
  66.1654500  74.2206480   2.0909650  65.2479970  73.0361500   1.8738890
  56.3865970  78.8146660   7.6719180  56.9044640  78.0114920   7.6176070
  55.9349990  78.7525800   8.5136010  61.2735470  80.0812940   2.9446480
  61.6151170  80.8255170   2.4489800  60.4448180  80.3944060   3.3071310
  53.8710510  75.7808030  14.5844880  53.5125450  76.4461880  15.1718220
  53.5765070  74.9491580  14.9557500  57.0723630  76.2392270  17.4684430
  56.7723770  76.3849450  16.5712250  57.8434870  75.6797560  17.3757820
  62.4152080  81.0361270  15.4639560  62.4296620  80.1042230  15.2458470
  61.7077180  81.1221030  16.1029330  68.5776400  82.0743350   4.4620300
  67.9352560  81.4198970   4.7364020  68.1907060  82.4798440   3.6860970
  64.1562880  79.4028780   8.3091990  64.5086700  78.8056910   7.6493360
  63.2725210  79.0773010   8.4800240  60.2426160  80.1626470   5.7162400
  60.9297290  80.7095680   6.0969990  59.4558580  80.7067200   5.7512010
  59.5453370  77.1672500   5.3287760  60.0016150  77.9777750   5.5547950
  59.1941580  76.8495640   6.1606250  61.8485980  82.6778840  12.5580060
  62.4928200  82.8838220  13.2353480  62.2115420  81.9167240  12.1050910
  55.4465150  67.5110150   5.8010280  55.3179780  67.5028050   6.7495200
  54.6227170  67.8493240   5.4501290  63.1218060  80.6811190  11.2757510
  63.7640290  79.9804350  11.3889680  63.6467410  81.4609630  11.0954400
  52.4459080  69.2701270  15.2616980  51.7317600  69.4698190  15.8669590
  52.8654120  68.4940840  15.6331780  66.5490030  78.8831750   2.6610810
  66.2611730  79.3444440   3.4488690  67.3442200  78.4229520   2.9295030
  52.7331670  83.2581530  16.2483510  52.8422790  82.3176270  16.1078900
  52.0812230  83.5236280  15.5997240  60.7244260  81.5297420  17.6481630
  60.4041130  80.8106660  18.1927320  60.0502620  82.2052490  17.7217690
  58.7658430  82.3757870   2.5914780  58.7568530  83.1087560   1.9759290
  57.8456790  82.1289450   2.6841740  54.3665070  77.5972760   3.3361540
  53.7593020  78.3371660   3.3456840  54.8414420  77.6872120   2.5099740
  63.9397860  71.7623580  13.0118430  64.3078680  70.9418790  13.3398000
  63.0796060  71.8225470  13.4274080  67.3059890  70.7180520   3.8205990
  66.6773050  70.8226190   3.1064220  66.8111810  70.9377300   4.6099870
  59.2743920  72.9966470   5.2363870  58.5660070  73.4652810   5.6777480
  59.5588400  72.3388480   5.8709060  60.8999850  74.4163170  13.2356400
  61.3985100  74.8908990  13.9008250  61.0422800  73.4926690  13.4426430
  63.3059350  69.7217130   6.6759660  63.1827130  69.7403260   5.7269170
  64.2543910  69.7696070   6.7958060  60.3936140  84.9572430   5.9487640
  60.6477640  84.9193820   5.0267010  59.4448620  84.8305760   5.9415890
  57.4778940  71.3051550   2.6114580  58.3269470  71.7421700   2.5454770
  57.1110210  71.6171810   3.4386640  68.1066710  70.6331130  14.0784790
  67.6040310  71.3736530  14.4178600  68.9223370  71.0215130  13.7621580
  66.3988720  75.8764310   7.5246150  65.4578860  75.8914540   7.6993840
  66.7132790  75.0900270   7.9706450  55.0717120  74.9908980   1.7683000
  55.1520710  74.0436490   1.8800400  55.9636870  75.3215860   1.8743660
  68.4014300  83.0473160   9.2000410  68.5261720  83.8704330   9.6724220
  69.2679860  82.8363890   8.8524560  55.8731830  85.1404370   8.8717540
  56.6094310  84.5919830   9.1426110  56.2572750  86.0060380   8.7323530
  52.7577310  81.2077940   4.7459050  51.8317090  81.4499080   4.7364460
  53.2233740  82.0352200   4.6243800  54.8790110  84.3250440  18.0603120
  55.6802840  84.6462490  18.4738520  54.3641930  83.9646020  18.7823030
  65.1455110  84.1610600  16.6187940  66.0976860  84.0768620  16.5688180
  64.9983330  84.8252310  17.2921730  68.0364310  83.5404810   2.1179850
  67.7505820  83.1269950   1.3034030  67.8383860  84.4692520   1.9980370
  52.5987920  76.8123900  17.0039170  53.1026940  76.2331180  17.5755400
  51.8595340  77.0964130  17.5415540  59.6525860  78.2194890  16.5374690
  58.8871530  78.7879890  16.4529360  59.8341820  77.9271100  15.6442920
  54.6311000  74.9553490  17.8989240  54.6716340  74.6567360  18.8074470
  55.4856500  75.3561100  17.7396760  58.4089390  77.5549040   3.0592750
  58.8305810  77.3888910   3.9024140  58.5340230  76.7449270   2.5647890
  56.5716810  73.5345590  15.8663730  56.0413270  73.0436540  15.2387070
  57.2404880  73.9629790  15.3321660  65.4694870  78.0015050  15.6304920
  65.8835890  78.1560130  16.4795340  64.5345870  78.1270270  15.7930700
  65.9417040  75.3411210  17.6344070  66.5237810  74.5863530  17.5464550
  66.1178810  75.8718650  16.8575550  57.0589110  70.5007960  15.9461020
  56.9645980  69.8828710  15.2211890  56.4786500  71.2274250  15.7190930
  59.8250550  69.0581200  12.9788410  59.3767850  69.0805460  12.1333960
  59.1915750  68.6600220  13.5758710  60.2310100  77.9535530  13.6000850
  60.6498210  78.7968260  13.4277090  59.3118730  78.0907570  13.3707630
  62.5674000  75.6851710  14.9838690  62.6870210  75.0892850  15.7233530
  63.4268000  75.7221400  14.5639990  64.9061900  76.2388900  13.5601200
  64.3797120  76.7631520  12.9566340  65.2493240  76.8716290  14.1910930
  58.0817520  84.2588540  14.7158580  57.5438610  84.9834600  14.3967280
  58.3351480  83.7818880  13.9255920  59.3342770  72.2273060  16.2414510
  59.9242460  71.9188910  16.9292330  58.5163010  71.7552810  16.3974410
  64.1536200  71.8438870  16.4747530  63.4651720  71.1820410  16.4097520
  64.8742220  71.3977140  16.9195990  64.7836600  68.4390500   2.5337790
  65.0638890  67.5958400   2.8897210  64.0102330  68.6713610   3.0476540
  60.9379730  85.4939750  14.9745230  60.8638430  86.3974890  15.2817600
  60.0358570  85.1751650  14.9467300  61.4865060  84.6598260   2.5971590
  62.3815850  84.9983230   2.6190350  61.5182690  83.9377670   1.9695870
  52.3407020  82.8214340   8.2778850  52.6710030  81.9535400   8.0457490
  52.7698020  83.0272860   9.1083810  56.9368940  81.1523350   5.9380820
  56.6364480  81.0288320   6.8384730  56.8306430  80.2931940   5.5296550
  52.8297230  83.6884930  11.0160480  52.3928220  83.8685730  11.8484630
  53.3974910  84.4459550  10.8742200  69.1617320  77.6767230   3.1441700
  69.9236230  78.2463880   3.2501390  69.1771690  77.1094430   3.9150010
  52.6621660  76.2005160   7.3749360  52.0070500  75.9316800   6.7309060
  53.4999610  76.0909640   6.9251340  70.1677290  78.5317330   7.9883630
  70.5386120  77.7484650   7.5819600  70.8079220  79.2206430   7.8100930
  69.1101830  75.9070590   5.2943650  68.7345430  75.1398520   4.8624940
  68.3804950  76.2893290   5.7818580  53.6997590  76.5857730  11.9152700
  54.0670630  76.4985130  12.7948720  53.1308410  75.8224280  11.8159560
  53.2513590  73.4966820  15.8211120  52.3569640  73.4633580  16.1604830
  53.7911140  73.6953610  16.5862370  66.9389520  70.2798540  17.7062870
  67.8159700  70.2881940  18.0896870  66.9510360  69.5429380  17.0955220
  51.8759740  73.4104090   3.3174690  50.9723820  73.6734290   3.1426350
  52.3600360  73.6815260   2.5374650  68.3852790  74.1328080   8.5950890
  68.9090270  73.6390730   7.9641060  68.9712210  74.2678440   9.3398460
  68.5642510  74.2167950  12.1170440  67.6145220  74.1831490  12.2315430
  68.7455520  75.1268060  11.8820210  67.8752760  73.3901430   4.5343300
  68.3711880  73.1572300   5.3192180  67.6768830  72.5513270   4.1180940
  53.7553300  67.7715150  10.1694340  54.4029490  67.2212530   9.7289500
  54.1755140  68.0258300  10.9910150  69.3039920  72.0262380   7.0680980
  69.1939200  71.8718420   8.0063250  70.0647510  71.4983320   6.8256390
  67.6505640  67.9656510  13.5263980  68.2877860  68.5790650  13.8923170
  67.7980530  68.0017170  12.5813210  70.2668680  70.6280960   2.9343830
  69.4720180  70.5626080   3.4636740  70.4711960  71.5631600   2.9229180
  67.2087100  84.6672510   6.9282220  67.8046170  84.3457080   6.2516640
  67.4665250  84.1944330   7.7195490  53.5085300  67.9270820  12.9119660
  53.1600120  68.3834640  13.6777840  53.1773000  67.0327950  12.9942090
  55.1149670  81.0990420  17.0772850  55.0719300  80.7283330  17.9587310
  55.2460680  82.0367990  17.2174670  58.8155700  82.6550010  12.6782570
  58.5747060  82.9224570  11.7913090  59.7558340  82.8255740  12.7333430
  61.0210120  69.1182700  16.4339080  60.9599010  69.7104530  17.1834490
  61.9610500  69.0108660  16.2889340  63.6584680  68.7752760  16.0731370
  64.2725090  69.0932050  15.4112450  64.2034240  68.2901350  16.6927230
  54.1805940  67.4547020  16.1870430  54.7288930  67.2735070  15.4236540
  54.2461250  66.6641130  16.7226740  54.9537700  84.0452670  14.1970630
  54.3598020  83.9137370  14.9360670  54.9461540  83.2090810  13.7312730
  64.3992720  67.3384900  12.4000660  63.5252560  67.6720010  12.1973590
  64.2903470  66.8658080  13.2252530  65.3064700  69.5455770  13.7842380
  64.9778060  68.7307530  13.4044110  66.2547000  69.5025580  13.6608070
  67.7599310  85.3167810  10.7579950  67.3002280  86.0683620  10.3837970
  67.1311770  84.5974280  10.6994750  54.5849930  81.4111050  13.1478670
  53.8583990  80.7916340  13.0804620  54.6459080  81.8051660  12.2776750
  58.1895030  83.6256050   9.9328080  58.7060050  83.0143410   9.4076340
  58.8392410  84.1284830  10.4239090  60.9290530  84.5164540  10.7597060
  61.2168340  84.2618840   9.8830070  61.4413750  83.9641900  11.3502630
  62.1467540  68.2554740  11.3393570  61.3639330  68.7300240  11.6190330
  61.8530470  67.3509570  11.2306750  66.6988610  68.9577840   9.3842660
  67.1396700  68.9022940   8.5364260  66.4296200  69.8735850   9.4552840
  68.5627180  68.5893080   7.3951480  68.5015580  67.6454300   7.2482500
  69.3419210  68.6973170   7.9404940  52.8679930  84.7285440   6.3575430
  52.7001970  84.0956120   7.0557320  52.0014440  84.9344840   6.0069620
  53.4907950  68.5602220   3.8607290  54.2487310  68.6731100   3.2871320
  53.0285120  69.3971420   3.8150720  60.0321760  70.6741490   6.8509600
  59.2196270  70.2998380   6.5105480  60.5363400  69.9186570   7.1530790
  64.5346740  67.3383940   8.0892670  65.1376110  67.9104150   8.5641190
  63.7939730  67.9023380   7.8666570  67.6781340  67.7405500   3.3632950
  67.8731970  68.6388950   3.6300380  66.8911210  67.5092580   3.8565900
  54.4742630  83.4218670   3.8025570  53.9490250  83.8026700   3.0987530
  54.3987210  84.0469440   4.5235280  55.8633100  69.0866270   2.4009260
  56.3925860  68.2996070   2.2717210  56.4961420  69.7657460   2.6344790
  58.0570940  68.8241410   5.4554650  57.4273680  68.1228720   5.6224780
  57.5176080  69.5845540   5.2387810  60.9962890  85.4380640  18.1265260
  61.9230200  85.2024910  18.1701220  60.9813320  86.2652640  17.6451290
  69.2307950  84.9806210   5.1239510  69.4060140  84.2943950   4.4800430
  68.5329520  85.5053260   4.7316180  58.1826500  68.1025390  17.8907140
  57.9010770  68.6058990  17.1267960  58.5646200  67.3047140  17.5249270
  57.0735600  85.3701050   2.6774820  57.8054420  85.0860330   2.1298710
  57.3329270  85.1314330   3.5674200  56.2350390  81.4865780   2.6821150
  55.6059270  81.9550880   3.2306980  56.3498220  80.6415000   3.1167340
  64.7841960  67.5178970  18.4687610  64.6707410  67.8373580  19.3639130
  65.6011700  67.9191480  18.1724890  63.6900110  56.7627950 101.4783290
  63.6094160  55.8482560 101.2075000  63.2764530  57.2595020 100.7723000
  61.8218150  58.5406970 103.3592560  61.0460250  58.0607410 103.6491130
  62.4731080  57.8612620 103.1848720  55.8383980  58.8526780 104.2368320
  55.0068860  58.5975490 104.6364830  56.4464960  58.9237550 104.9726240
  65.8425580  62.9467160 102.1391690  65.3807110  62.1754400 102.4678860
  66.6551130  62.9733230 102.6444140  55.8185240  62.8866870 104.4326340
  56.1213280  61.9964610 104.2536560  56.5628830  63.4437090 104.2048590
  54.2475930  53.8128670  98.0210710  53.3592630  54.1544640  97.9190590
  54.5317120  53.6128990  97.1291540  52.2108940  56.4134320 103.9050410
  52.7825050  55.6456520 103.9054050  52.2110480  56.7123080 102.9957020
  62.0688890  65.2325170 101.7595680  61.4500330  65.6882670 101.1890120
  62.9240670  65.3876630 101.3585380  61.2627140  61.2164160 103.3662720
  61.1935420  60.2754100 103.2051850  62.0247000  61.3065570 103.9385290
  53.4533810  51.8218680 105.6919340  53.2736650  50.9244430 105.9722100
  53.0513890  52.3690550 106.3666290  62.2932310  54.0234540 103.5931650
  62.6697130  53.1506420 103.4805320  62.1951820  54.3593240 102.7022090
  56.4237320  52.3960170  99.0549090  56.5304070  53.2963900  99.3617850
  55.5129680  52.3478140  98.7643740  66.0756430  51.5184980 100.5259990
  66.8966050  51.0281550 100.5685470  66.1090510  52.1082640 101.2791830
  54.0720480  54.3179180 104.3001680  54.7530590  54.5817550 104.9189080
  53.7568530  53.4780050 104.6339690  58.2645050  55.3646540 103.3874270
  58.7723270  55.8627510 104.0279290  58.7958290  54.5881740 103.2113630
  70.3655980  53.5351730 107.0903620  69.6608150  53.9233440 106.5718730
  70.6313900  54.2302020 107.6924550  56.5481150  50.0045100 107.6537690
  56.5499590  50.5217490 106.8483590  55.7185460  49.5275280 107.6307620
  62.9352240  60.1164410  99.1527590  62.3169510  60.5813860  98.5890310
  63.4475490  60.8091890  99.5697100  57.7984000  59.6440280 105.8311190
  57.4653380  60.2709200 106.4732260  57.9750680  60.1702160 105.0512860
  66.3117910  53.4585360 103.2987530  65.6073480  53.7470250 103.8790640
  66.6730070  54.2685470 102.9387090  56.2296480  51.7155060 105.6608140
  56.5713290  52.5597110 105.3662010  55.2912290  51.8638800 105.7773480
  57.0103100  61.6121080 107.6460370  57.6277100  62.2872160 107.3644820
  56.1496220  62.0209060 107.5547870  52.3035440  60.8020940  96.5267220
  51.9263420  61.2908040  95.7952120  52.5608510  61.4746220  97.1573750
  67.9280690  63.0760490 105.5615010  67.2444210  63.7459600 105.5531680
  68.4674980  63.2741140 104.7959870  69.3804830  52.9040150 103.6896740
  68.4329740  52.9379130 103.8212170  69.7054820  53.7179100 104.0746100
  59.9124370  49.2037330 101.9852730  60.2199350  48.6484220 101.2688230
  58.9825070  49.3381790 101.8025720  65.4639430  64.9204620 104.2760190
  65.4766590  64.5166910 103.4082450  64.9114650  65.6951910 104.1721620
  66.7584850  61.6420840  99.3650360  66.6481180  60.6995170  99.4899780
  66.7553100  62.0036480 100.2513120  64.8624870  59.8234460 105.6042800
  65.2793660  59.6094570 104.7696260  65.5864690  60.0807250 106.1751420
  62.3005130  57.2686160  98.7212850  61.3734410  57.2023540  98.9501320
  62.4529950  58.2066290  98.6068090  62.2874210  53.5403160  95.7180010
  61.3477880  53.7017120  95.8032470  62.6057470  54.2588840  95.1716000
  68.8086970  58.2221680 105.6959040  67.9805600  58.2914770 105.2209170
  69.4037450  58.8075990 105.2274870  66.3302420  58.8306460  99.2248100
  65.7114840  58.4926010  98.5774400  66.3126870  58.1866220  99.9327290
  65.7728980  55.0091000 106.6413910  65.3600160  55.8344710 106.8953900
  65.0404930  54.4236040 106.4490270  57.9061770  57.7950900 101.5032580
  57.5018770  57.0828150 101.0078480  57.9924890  57.4504140 102.3920620
  58.3743470  61.4818460 103.6671790  58.0771760  60.8763930 102.9879570
  59.3243290  61.5195770 103.5561150  56.6190390  54.5694110 105.2831620
  57.1704980  54.6789450 104.5084870  57.1333900  54.9431710 105.9986850
  66.4629080  65.0550330 107.3294890  65.9859640  65.8622520 107.1367500
  65.7790870  64.4028660 107.4821100  57.4661900  61.2200150 110.3179590
  56.5690430  61.4440120 110.5652990  57.4914770  61.3435090 109.3690990
  64.5067120  58.0693270  96.2320850  64.9460400  57.2315700  96.0858670
  65.2195540  58.7022670  96.3184990  56.2933120  58.0913470 108.8936960
  56.1540890  58.9636270 109.2624360  55.4114480  57.7486280 108.7484900
  62.6162500  63.0089340 100.2002090  63.0558410  63.7513670  99.7857480
  62.5549390  63.2515910 101.1241050  68.0884260  49.3236080  94.5461890
  67.7756920  49.4162910  95.4460960  68.8496730  49.9017110  94.4959320
  54.6066400  56.6895880  99.0039230  54.4864000  57.4157970  98.3920500
  54.2967290  55.9198790  98.5267140  52.2451770  59.8611020 104.8107870
  52.3232190  59.9959790 103.8663590  52.8593450  59.1526910 105.0035990
  53.4899400  61.5611210 101.2214050  53.0827480  61.7025800 100.3667650
  54.3812410  61.2771370 101.0185260  69.4461540  62.0075120 109.5586290
  69.5724600  61.7687000 108.6403470  69.4882920  61.1759660 110.0308370
  63.3078280  65.7103120 108.1281100  63.8222950  65.6211130 108.9303530
  62.4647360  66.0562820 108.4209010  65.2832680  65.9958460  97.5565100
  65.1233820  65.7061400  98.4546930  65.1179390  65.2198590  97.0210330
  57.7621060  65.7756990  99.3336720  57.5863540  64.8592530  99.1204520
  56.9076800  66.1344280  99.5734520  64.9858810  63.5046020  96.1163100
  64.2923970  63.5023310  95.4565380  65.7281670  63.0805340  95.6857270
  64.5508740  65.1308730 100.1911590  65.0065690  64.3498110 100.5050210
  64.8901260  65.8415550 100.7352770  69.2985550  54.0607580 110.5236030
  68.6829820  54.5687250 109.9951490  68.9781970  53.1605910 110.4661970
  52.3011290  60.9025190 107.3502330  52.4642330  60.4330550 106.5321700
  52.7663740  60.3948750 108.0151170  57.0730060  50.0330950 102.3862900
  56.6298210  50.8140490 102.0547420  57.6315050  50.3560840 103.0933840
  61.3599870  52.8999470 107.9898220  60.8979240  53.1082490 108.8018160
  60.9577980  52.0858820 107.6868890  66.3604380  54.1208420 109.1194880
  65.5097970  53.8214170 109.4403950  66.2006170  54.3650430 108.2078700
  60.1888880  49.6541650  97.2668730  59.5643060  49.6501520  97.9922040
  60.1019000  48.7872610  96.8704700  59.1105960  50.5778280 104.2452500
  59.4078290  51.4841110 104.1644520  59.6591520  50.0897060 103.6312070
  56.8644280  55.1564520 100.1144150  56.6385200  54.9401690 101.0190770
  56.0836810  55.5892980  99.7690120  64.0942040  55.1627890  98.7134800
  63.4950930  55.8863690  98.5298420  64.6421650  55.1004670  97.9311250
  59.3043490  56.0550100 110.7804420  59.2087090  55.1144830 110.6304820
  60.1475470  56.2765170 110.3852490  62.7006910  53.7991430 100.7438080
  63.0936480  54.1163630  99.9306770  63.0623760  52.9203310 100.8582600
  54.4354030  52.4663770 108.9338200  54.0417420  53.3138980 109.1410980
  53.7472430  51.8290140 109.1246840  51.7371080  50.3892230 102.9668280
  51.4484130  50.9595090 103.6793260  52.4816840  49.9096680 103.3299510
  51.9241310  54.3312350  94.1771000  51.8415980  55.2743110  94.3185990
  51.5724370  54.1887260  93.2983350  63.2862050  56.3897180 104.8388860
  62.5543170  56.8983990 105.1878960  62.8886390  55.5727160 104.5377640
  59.7239440  53.0651380 103.2441350  59.7275500  52.6241330 102.3945890
  60.6190560  53.3868710 103.3513170  55.5741820  52.9477870 102.2035560
  55.2341870  53.4253100 102.9602610  54.8119140  52.4942990 101.8436660
  59.7859590  54.0663460  96.2348110  59.9072410  54.0249940  97.1833930
  59.4008100  54.9287610  96.0794840  63.7487960  51.8430860 104.2511800
  63.7660700  52.2939510 105.0953650  63.5003540  50.9436500 104.4645240
  58.7981090  56.3764600  95.6331410  58.2297990  55.9282850  95.0067320
  59.5070090  56.7357380  95.0996560  67.1758710  49.2563040 110.0898180
  67.5004480  48.5252700 110.6156160  67.2115220  48.9376680 109.1879170
  53.8750270  60.2776620 109.5098140  53.4905060  59.6370290 110.1081100
  54.1862460  60.9812740 110.0792870  60.0247410  57.1253160 104.9906760
  60.3917540  56.6511730 105.7368100  59.8352470  57.9994730 105.3315100
  52.8887900  51.8696850 101.1200230  52.6034820  51.5052520 101.9578850
  52.8266760  51.1377310 100.5063370  57.8146780  56.1661800 107.3090970
  57.5103850  57.0453780 107.5341330  58.7693240  56.2261590 107.3448410
  56.3428570  60.3722790  97.9057820  55.5690830  59.8320410  97.7456540
  57.0723200  59.8529400  97.5675580  67.1016550  59.3688150 103.6984210
  67.8215670  59.8643440 103.3080320  66.8998370  58.6906040 103.0538080
  62.5626490  50.7626110  97.8413600  61.7491100  50.2639280  97.7658910
  62.3688440  51.6024360  97.4249950  62.4835350  59.4397210 109.5853210
  62.4172660  58.5192880 109.3310800  61.8540490  59.5372650 110.2997850
  65.2774880  55.1345760  96.1375760  66.1654500  55.4462990  95.9627100
  65.2479970  54.2618010  95.7456340  56.3865970  60.0403170 101.5436630
  56.9044640  59.2371430 101.4893520  55.9349990  59.9782310 102.3853460
  61.2735470  61.3069450  96.8163930  61.6151170  62.0511680  96.3207250
  60.4448180  61.6200570  97.1788760  53.8710510  57.0064540 108.4562330
  53.5125450  57.6718390 109.0435670  53.5765070  56.1748090 108.8274950
  62.4152080  62.2617780 109.3357010  62.4296620  61.3298740 109.1175920
  61.7077180  62.3477540 109.9746780  67.5489150  56.4457600  95.6055620
  67.4652870  56.8771820  94.7552060  68.2683340  56.9055950  96.0382440
  68.6263290  58.9025120 108.6825590  67.9011480  59.4953900 108.4854980
  69.1538750  58.8948660 107.8838960  68.5776400  63.2999860  98.3337750
  67.9352560  62.6455480  98.6081470  68.1907060  63.7054950  97.5578420
  64.1562880  60.6285290 102.1809440  64.5086700  60.0313420 101.5210810
  63.2725210  60.3029520 102.3517690  60.2426160  61.3882980  99.5879850
  60.9297290  61.9352190  99.9687440  59.4558580  61.9323710  99.6229460
  52.3818560  57.0055800  95.0796930  53.2513410  57.2880600  95.3632850
  51.8908880  57.8191670  94.9645740  59.5453370  58.3929010  99.2005210
  60.0016150  59.2034260  99.4265400  59.1941580  58.0752150 100.0323700
  61.8485980  63.9035350 106.4297510  62.4928200  64.1094730 107.1070930
  62.2115420  63.1423750 105.9768360  55.4465150  48.7366660  99.6727730
  55.3179780  48.7284560 100.6212650  54.6227170  49.0749750  99.3218740
  63.1218060  61.9067700 105.1474960  63.7640290  61.2060860 105.2607130
  63.6467410  62.6866140 104.9671850  66.9673780  62.1916320  94.8714100
  66.7411360  61.4746760  95.4638740  66.5769980  61.9428760  94.0335850
  64.8955680  62.7062600 108.3511020  65.2311920  63.2929290 109.0288940
  63.9756020  62.5755310 108.5808810  52.7489810  66.2183180  95.6458560
  53.1087450  66.8172520  94.9915830  52.6082150  66.7643070  96.4193590
  52.4459080  50.4957780 109.1334430  51.7317600  50.6954700 109.7387040
  52.8654120  49.7197350 109.5049230  66.5490030  60.1088260  96.5328260
  66.2611730  60.5700950  97.3206140  67.3442200  59.6486030  96.8012480
  52.7331670  64.4838040 110.1200960  52.8422790  63.5432780 109.9796350
  52.0812230  64.7492790 109.4714690  58.7658430  63.6014380  96.4632230
  58.7568530  64.3344070  95.8476740  57.8456790  63.3545960  96.5559190
  54.3665070  58.8229270  97.2078990  53.7593020  59.5628170  97.2174290
  54.8414420  58.9128630  96.3817190  63.9397860  52.9880090 106.8835880
  64.3078680  52.1675300 107.2115450  63.0796060  53.0481980 107.2991530
  67.3059890  51.9437030  97.6923440  66.6773050  52.0482700  96.9781670
  66.8111810  52.1633810  98.4817320  61.7518030  63.6642620  95.1257420
  61.8530010  63.4606610  94.1959400  60.8519770  63.4100900  95.3305200
  59.2743920  54.2222980  99.1081320  58.5660070  54.6909320  99.5494930
  59.5588400  53.5644990  99.7426510  60.8999850  55.6419680 107.1073850
  61.3985100  56.1165500 107.7725700  61.0422800  54.7183200 107.3143880
  63.3059350  50.9473640 100.5477110  63.1827130  50.9659770  99.5986620
  64.2543910  50.9952580 100.6675510  60.3936140  66.1828940  99.8205090
  60.6477640  66.1450330  98.8984460  59.4448620  66.0562270  99.8133340
  57.4778940  52.5308060  96.4832030  58.3269470  52.9678210  96.4172220
  57.1110210  52.8428320  97.3104090  68.1066710  51.8587640 107.9502240
  67.6040310  52.5993040 108.2896050  68.9223370  52.2471640 107.6339030
  66.3988720  57.1020820 101.3963600  65.4578860  57.1171050 101.5711290
  66.7132790  56.3156780 101.8423900  56.3770360  58.7840420  94.9567560
  57.1433630  58.6721780  95.5192990  56.4545050  58.0878390  94.3044330
  55.0717120  56.2165490  95.6400450  55.1520710  55.2693000  95.7517850
  55.9636870  56.5472370  95.7461110  68.4014300  64.2729670 103.0717860
  68.5261720  65.0960840 103.5441670  69.2679860  64.0620400 102.7242010
  55.8731830  66.3660880 102.7434990  56.6094310  65.8176340 103.0143560
  56.2572750  67.2316890 102.6040980  52.7577310  62.4334450  98.6176500
  51.8317090  62.6755590  98.6081910  53.2233740  63.2608710  98.4961250
  58.9834140  65.5391190  94.5660560  59.7762750  65.8280020  94.1142350
  58.4638490  65.1083360  93.8873040  68.0364310  64.7661320  95.9897300
  67.7505820  64.3526460  95.1751480  67.8383860  65.6949030  95.8697820
  59.5011540  60.7594600  94.4302910  59.3962180  60.1446950  95.1564290
  59.3335760  60.2360490  93.6465920  59.6525860  59.4451400 110.4092140
  58.8871530  60.0136400 110.3246810  59.8341820  59.1527610 109.5160370
  62.7414270  59.8214630  95.0344900  62.1924370  60.2683930  95.6787640
  63.3633530  59.3163880  95.5582570  66.7949210  61.1756730 110.9667160
  67.5358680  61.5132490 110.4634620  66.0321890  61.3448790 110.4136930
  58.4089390  58.7805550  96.9310200  58.8305810  58.6145420  97.7741590
  58.5340230  57.9705780  96.4365340  56.5716810  54.7602100 109.7381180
  56.0413270  54.2693050 109.1104520  57.2404880  55.1886300 109.2039110
  60.9217030  57.8043160  94.1787300  61.4422690  57.0892180  93.8128450
  61.5685430  58.4429030  94.4787810  65.4694870  59.2271560 109.5022370
  65.8835890  59.3816640 110.3512790  64.5345870  59.3526780 109.6648150
  57.0589110  51.7264470 109.8178470  56.9645980  51.1085220 109.0929340
  56.4786500  52.4530760 109.5908380  59.8250550  50.2837710 106.8505860
  59.3767850  50.3061970 106.0051410  59.1915750  49.8856730 107.4476160
  60.2310100  59.1792040 107.4718300  60.6498210  60.0224770 107.2994540
  59.3118730  59.3164080 107.2425080  62.5674000  56.9108220 108.8556140
  62.6870210  56.3149360 109.5950980  63.4268000  56.9477910 108.4357440
  64.9061900  57.4645410 107.4318650  64.3797120  57.9888030 106.8283790
  65.2493240  58.0972800 108.0628380  57.3048290  54.8538780  93.8768360
  57.1037350  53.9906140  94.2381700  57.1340340  54.7672140  92.9389960
  58.0817520  65.4845050 108.5876030  57.5438610  66.2091110 108.2684730
  58.3351480  65.0075390 107.7973370  59.3342770  53.4529570 110.1131960
  59.9242460  53.1445420 110.8009780  58.5163010  52.9809320 110.2691860
  64.1536200  53.0695380 110.3464980  63.4651720  52.4076920 110.2814970
  64.8742220  52.6233650 110.7913440  64.7836600  49.6647010  96.4055240
  65.0638890  48.8214910  96.7614660  64.0102330  49.8970120  96.9193990
  56.1031090  51.9539400  93.8646240  56.4056990  51.9606830  92.9565390
  56.8425680  51.6037260  94.3613900  60.9379730  66.7196260 108.8462680
  60.8638430  67.6231400 109.1535050  60.0358570  66.4008160 108.8184750
  59.3216020  50.8974020  94.8502440  58.9738020  50.2198010  94.2704890
  59.5228790  50.4363530  95.6645830  61.4865060  65.8854770  96.4689040
  62.3815850  66.2239740  96.4907800  61.5182690  65.1634180  95.8413320
  55.1261220  61.2581820  94.6976040  55.5636090  61.8011490  95.3533620
  55.6108950  60.4328770  94.7072380  52.3407020  64.0470850 102.1496300
  52.6710030  63.1791910 101.9174940  52.7698020  64.2529370 102.9801260
  56.9368940  62.3779860  99.8098270  56.6364480  62.2544830 100.7102180
  56.8306430  61.5188450  99.4014000  52.8297230  64.9141440 104.8877930
  52.3928220  65.0942240 105.7202080  53.3974910  65.6716060 104.7459650
  68.4659410  64.4158440 109.1755240  67.8661400  64.4751000 108.4319160
  68.5953310  63.4763420 109.3052090  69.7060860  62.1576260  94.5124950
  68.8753820  62.2252910  94.9832180  69.8832690  63.0480380  94.2091810
  69.1617320  58.9023740  97.0159150  69.9236230  59.4720390  97.1218840
  69.1771690  58.3350940  97.7867460  52.6621660  57.4261670 101.2466810
  52.0070500  57.1573310 100.6026510  53.4999610  57.3166150 100.7968790
  70.1677290  59.7573840 101.8601080  70.5386120  58.9741160 101.4537050
  70.8079220  60.4462940 101.6818380  67.1511050  61.1410420 107.2731400
  66.3370890  61.5707580 107.5357190  67.5585250  61.7528830 106.6600450
  69.2136490  59.1958110  94.1731670  69.4885330  60.1036990  94.0450890
  69.0247230  59.1320640  95.1093660  65.6112100  52.2202960  95.4685300
  66.0296980  52.0333940  94.6281960  65.3048160  51.3682010  95.7788230
  69.1101830  57.1327100  99.1661100  68.7345430  56.3655030  98.7342390
  68.3804950  57.5149800  99.6536030  53.6997590  57.8114240 105.7870150
  54.0670630  57.7241640 106.6666170  53.1308410  57.0480790 105.6877010
  68.5001450  56.2798620 108.8000620  68.2687540  56.0511370 107.8998570
  68.7606000  57.1998170 108.7545510  53.2513590  54.7223330 109.6928570
  52.3569640  54.6890090 110.0322280  53.7911140  54.9210120 110.4579820
  51.8759740  54.6360600  97.1892140  50.9723820  54.8990800  97.0143800
  52.3600360  54.9071770  96.4092100  68.3852790  55.3584590 102.4668340
  68.9090270  54.8647240 101.8358510  68.9712210  55.4934950 103.2115910
  68.5642510  55.4424460 105.9887890  67.6145220  55.4088000 106.1032880
  68.7455520  56.3524570 105.7537660  54.4186950  53.6926140  95.0986520
  55.1278650  53.2709360  94.6133800  53.7026890  53.7601370  94.4669870
  54.0661110  49.7465470  94.1389170  54.7889240  50.2874410  94.4570390
  54.3385630  49.4728890  93.2630710  67.8752760  54.6157940  98.4060750
  68.3711880  54.3828810  99.1909630  67.6768830  53.7769780  97.9898390
  53.7553300  48.9971660 104.0411790  54.4029490  48.4469040 103.6006950
  54.1755140  49.2514810 104.8627600  69.3039920  53.2518890 100.9398430
  69.1939200  53.0974930 101.8780700  70.0647510  52.7239830 100.6973840
  67.6505640  49.1913020 107.3981430  68.2877860  49.8047160 107.7640620
  67.7980530  49.2273680 106.4530660  67.2087100  65.8929020 100.7999670
  67.8046170  65.5713590 100.1234090  67.4665250  65.4200840 101.5912940
  53.5085300  49.1527330 106.7837110  53.1600120  49.6091150 107.5495290
  53.1773000  48.2584460 106.8659540  58.8155700  63.8806520 106.5500020
  58.5747060  64.1481080 105.6630540  59.7558340  64.0512250 106.6050880
  63.6584680  50.0009270 109.9448820  64.2725090  50.3188560 109.2829900
  64.2034240  49.5157860 110.5644680  70.0759860  65.9000900 107.3510660
  69.5818140  66.2969770 106.6337790  69.4673150  65.2750110 107.7447940
  54.1805940  48.6803530 110.0587880  54.7288930  48.4991580 109.2953990
  54.2461250  47.8897640 110.5944190  54.9537700  65.2709180 108.0688080
  54.3598020  65.1393880 108.8078120  54.9461540  64.4347320 107.6030180
  64.3992720  48.5641410 106.2718110  63.5252560  48.8976520 106.0691040
  64.2903470  48.0914590 107.0969980  65.3064700  50.7712280 107.6559830
  64.9778060  49.9564040 107.2761560  66.2547000  50.7282090 107.5325520
  67.7599310  66.5424320 104.6297400  67.3002280  67.2940130 104.2555420
  67.1311770  65.8230790 104.5712200  54.5849930  62.6367560 107.0196120
  53.8583990  62.0172850 106.9522070  54.6459080  63.0308170 106.1494200
  58.1895030  64.8512560 103.8045530  58.7060050  64.2399920 103.2793790
  58.8392410  65.3541340 104.2956540  60.9290530  65.7421050 104.6314510
  61.2168340  65.4875350 103.7547520  61.4413750  65.1898410 105.2220080
  62.1467540  49.4811250 105.2111020  61.3639330  49.9556750 105.4907780
  61.8530470  48.5766080 105.1024200  66.6988610  50.1834350 103.2560110
  67.1396700  50.1279450 102.4081710  66.4296200  51.0992360 103.3270290
  68.5627180  49.8149590 101.2668930  68.5015580  48.8710810 101.1199950
  69.3419210  49.9229680 101.8122390  52.8679930  65.9541950 100.2292880
  52.7001970  65.3212630 100.9274770  52.0014440  66.1601350  99.8787070
  53.4907950  49.7858730  97.7324740  54.2487310  49.8987610  97.1588770
  53.0285120  50.6227930  97.6868170  60.0321760  51.8998000 100.7227050
  59.2196270  51.5254890 100.3822930  60.5363400  51.1443080 101.0248240
  64.5346740  48.5640450 101.9610120  65.1376110  49.1360660 102.4358640
  63.7939730  49.1279890 101.7384020  67.6781340  48.9662010  97.2350400
  67.8731970  49.8645460  97.5017830  66.8911210  48.7349090  97.7283350
  54.4742630  64.6475180  97.6743020  53.9490250  65.0283210  96.9704980
  54.3987210  65.2725950  98.3952730  55.8633100  50.3122780  96.2726710
  56.3925860  49.5252580  96.1434660  56.4961420  50.9913970  96.5062240
  58.0570940  50.0497920  99.3272100  57.4273680  49.3485230  99.4942230
  57.5176080  50.8102050  99.1105260  69.2307950  66.2062720  98.9956960
  69.4060140  65.5200460  98.3517880  68.5329520  66.7309770  98.6033630
  57.0735600  66.5957560  96.5492270  57.8054420  66.3116840  96.0016160
  57.3329270  66.3570840  97.4391650  56.2350390  62.7122290  96.5538600
  55.6059270  63.1807390  97.1024430  56.3498220  61.8671510  96.9884790
  61.8218150  58.5406970  84.5849070  61.0460250  58.0607410  84.8747640
  62.4731080  57.8612620  84.4105230  55.8383980  58.8526780  85.4624830
  55.0068860  58.5975490  85.8621340  56.4464960  58.9237550  86.1982750
  65.8425580  62.9467160  83.3648200  65.3807110  62.1754400  83.6935370
  66.6551130  62.9733230  83.8700650  55.8185240  62.8866870  85.6582850
  56.1213280  61.9964610  85.4793070  56.5628830  63.4437090  85.4305100
  54.2475930  53.8128670  79.2467220  53.3592630  54.1544640  79.1447100
  54.5317120  53.6128990  78.3548050  52.2108940  56.4134320  85.1306920
  52.7825050  55.6456520  85.1310560  52.2110480  56.7123080  84.2213530
  62.0688890  65.2325170  82.9852190  61.4500330  65.6882670  82.4146630
  62.9240670  65.3876630  82.5841890  61.2627140  61.2164160  84.5919230
  61.1935420  60.2754100  84.4308360  62.0247000  61.3065570  85.1641800
  53.4533810  51.8218680  86.9175850  53.2736650  50.9244430  87.1978610
  53.0513890  52.3690550  87.5922800  62.2932310  54.0234540  84.8188160
  62.6697130  53.1506420  84.7061830  62.1951820  54.3593240  83.9278600
  56.4237320  52.3960170  80.2805600  56.5304070  53.2963900  80.5874360
  55.5129680  52.3478140  79.9900250  54.0720480  54.3179180  85.5258190
  54.7530590  54.5817550  86.1445590  53.7568530  53.4780050  85.8596200
  58.2645050  55.3646540  84.6130780  58.7723270  55.8627510  85.2535800
  58.7958290  54.5881740  84.4370140  70.3655980  53.5351730  88.3160130
  69.6608150  53.9233440  87.7975240  70.6313900  54.2302020  88.9181060
  56.5481150  50.0045100  88.8794200  56.5499590  50.5217490  88.0740100
  55.7185460  49.5275280  88.8564130  57.7984000  59.6440280  87.0567700
  57.4653380  60.2709200  87.6988770  57.9750680  60.1702160  86.2769370
  66.3117910  53.4585360  84.5244040  65.6073480  53.7470250  85.1047150
  66.6730070  54.2685470  84.1643600  56.2296480  51.7155060  86.8864650
  56.5713290  52.5597110  86.5918520  55.2912290  51.8638800  87.0029990
  57.0103100  61.6121080  88.8716880  57.6277100  62.2872160  88.5901330
  56.1496220  62.0209060  88.7804380  67.9280690  63.0760490  86.7871520
  67.2444210  63.7459600  86.7788190  68.4674980  63.2741140  86.0216380
  65.4639430  64.9204620  85.5016700  65.4766590  64.5166910  84.6338960
  64.9114650  65.6951910  85.3978130  64.8624870  59.8234460  86.8299310
  65.2793660  59.6094570  85.9952770  65.5864690  60.0807250  87.4007930
  68.8086970  58.2221680  86.9215550  67.9805600  58.2914770  86.4465680
  69.4037450  58.8075990  86.4531380  65.7728980  55.0091000  87.8670420
  65.3600160  55.8344710  88.1210410  65.0404930  54.4236040  87.6746780
  57.9061770  57.7950900  82.7289090  57.5018770  57.0828150  82.2334990
  57.9924890  57.4504140  83.6177130  58.3743470  61.4818460  84.8928300
  58.0771760  60.8763930  84.2136080  59.3243290  61.5195770  84.7817660
  56.6190390  54.5694110  86.5088130  57.1704980  54.6789450  85.7341380
  57.1333900  54.9431710  87.2243360  66.4629080  65.0550330  88.5551400
  65.9859640  65.8622520  88.3624010  65.7790870  64.4028660  88.7077610
  57.4661900  61.2200150  91.5436100  56.5690430  61.4440120  91.7909500
  57.4914770  61.3435090  90.5947500  56.2933120  58.0913470  90.1193470
  56.1540890  58.9636270  90.4880870  55.4114480  57.7486280  89.9741410
  62.6162500  63.0089340  81.4258600  63.0558410  63.7513670  81.0113990
  62.5549390  63.2515910  82.3497560  58.0913470  64.0335170  92.3278620
  58.0628900  64.4378120  91.4607050  57.9278440  63.1045530  92.1650220
  54.6066400  56.6895880  80.2295740  54.4864000  57.4157970  79.6177010
  54.2967290  55.9198790  79.7523650  70.0428290  64.8162270  93.6242790
  70.5188010  65.2945160  94.3031870  70.6635450  64.7479760  92.8988290
  52.2451770  59.8611020  86.0364380  52.3232190  59.9959790  85.0920100
  52.8593450  59.1526910  86.2292500  53.4899400  61.5611210  82.4470560
  53.0827480  61.7025800  81.5924160  54.3812410  61.2771370  82.2441770
  69.4461540  62.0075120  90.7842800  69.5724600  61.7687000  89.8659980
  69.4882920  61.1759660  91.2564880  63.3078280  65.7103120  89.3537610
  63.8222950  65.6211130  90.1560040  62.4647360  66.0562820  89.6465520
  64.5508740  65.1308730  81.4168100  65.0065690  64.3498110  81.7306720
  64.8901260  65.8415550  81.9609280  69.2985550  54.0607580  91.7492540
  68.6829820  54.5687250  91.2208000  68.9781970  53.1605910  91.6918480
  52.3011290  60.9025190  88.5758840  52.4642330  60.4330550  87.7578210
  52.7663740  60.3948750  89.2407680  57.0730060  50.0330950  83.6119410
  56.6298210  50.8140490  83.2803930  57.6315050  50.3560840  84.3190350
  61.3599870  52.8999470  89.2154730  60.8979240  53.1082490  90.0274670
  60.9577980  52.0858820  88.9125400  66.3604380  54.1208420  90.3451390
  65.5097970  53.8214170  90.6660460  66.2006170  54.3650430  89.4335210
  63.4554090  55.6210170  92.4450180  63.7807500  54.7873920  92.1052410
  64.2434420  56.1438690  92.5928510  56.8644280  55.1564520  81.3400660
  56.6385200  54.9401690  82.2447280  56.0836810  55.5892980  80.9946630
  59.3043490  56.0550100  92.0060930  59.2087090  55.1144830  91.8561330
  60.1475470  56.2765170  91.6109000  54.4354030  52.4663770  90.1594710
  54.0417420  53.3138980  90.3667490  53.7472430  51.8290140  90.3503350
  61.0099080  52.5498740  93.2291450  60.3197400  52.3570940  93.8637540
  61.7531380  52.8333380  93.7615750  51.7371080  50.3892230  84.1924790
  51.4484130  50.9595090  84.9049770  52.4816840  49.9096680  84.5556020
  51.9241310  54.3312350  75.4027510  51.8415980  55.2743110  75.5442500
  51.5724370  54.1887260  74.5239860  63.2862050  56.3897180  86.0645370
  62.5543170  56.8983990  86.4135470  62.8886390  55.5727160  85.7634150
  59.7239440  53.0651380  84.4697860  59.7275500  52.6241330  83.6202400
  60.6190560  53.3868710  84.5769680  55.5741820  52.9477870  83.4292070
  55.2341870  53.4253100  84.1859120  54.8119140  52.4942990  83.0693170
  63.7487960  51.8430860  85.4768310  63.7660700  52.2939510  86.3210160
  63.5003540  50.9436500  85.6901750  67.1758710  49.2563040  91.3154690
  67.5004480  48.5252700  91.8412670  67.2115220  48.9376680  90.4135680
  53.8750270  60.2776620  90.7354650  53.4905060  59.6370290  91.3337610
  54.1862460  60.9812740  91.3049380  60.0247410  57.1253160  86.2163270
  60.3917540  56.6511730  86.9624610  59.8352470  57.9994730  86.5571610
  52.8887900  51.8696850  82.3456740  52.6034820  51.5052520  83.1835360
  52.8266760  51.1377310  81.7319880  57.8146780  56.1661800  88.5347480
  57.5103850  57.0453780  88.7597840  58.7693240  56.2261590  88.5704920
  56.3428570  60.3722790  79.1314330  55.5690830  59.8320410  78.9713050
  57.0723200  59.8529400  78.7932090  67.1016550  59.3688150  84.9240720
  67.8215670  59.8643440  84.5336830  66.8998370  58.6906040  84.2794590
  62.4835350  59.4397210  90.8109720  62.4172660  58.5192880  90.5567310
  61.8540490  59.5372650  91.5254360  56.3865970  60.0403170  82.7693140
  56.9044640  59.2371430  82.7150030  55.9349990  59.9782310  83.6109970
  53.8710510  57.0064540  89.6818840  53.5125450  57.6718390  90.2692180
  53.5765070  56.1748090  90.0531460  57.0723630  57.4648780  92.5658390
  56.7723770  57.6105960  91.6686210  57.8434870  56.9054070  92.4731780
  62.4152080  62.2617780  90.5613520  62.4296620  61.3298740  90.3432430
  61.7077180  62.3477540  91.2003290  68.6263290  58.9025120  89.9082100
  67.9011480  59.4953900  89.7111490  69.1538750  58.8948660  89.1095470
  64.1562880  60.6285290  83.4065950  64.5086700  60.0313420  82.7467320
  63.2725210  60.3029520  83.5774200  61.8485980  63.9035350  87.6554020
  62.4928200  64.1094730  88.3327440  62.2115420  63.1423750  87.2024870
  55.4465150  48.7366660  80.8984240  55.3179780  48.7284560  81.8469160
  54.6227170  49.0749750  80.5475250  63.1218060  61.9067700  86.3731470
  63.7640290  61.2060860  86.4863640  63.6467410  62.6866140  86.1928360
  64.8955680  62.7062600  89.5767530  65.2311920  63.2929290  90.2545450
  63.9756020  62.5755310  89.8065320  52.4459080  50.4957780  90.3590940
  51.7317600  50.6954700  90.9643550  52.8654120  49.7197350  90.7305740
  52.7331670  64.4838040  91.3457470  52.8422790  63.5432780  91.2052860
  52.0812230  64.7492790  90.6971200  60.7244260  62.7553930  92.7455590
  60.4041130  62.0363170  93.2901280  60.0502620  63.4309000  92.8191650
  63.9397860  52.9880090  88.1092390  64.3078680  52.1675300  88.4371960
  63.0796060  53.0481980  88.5248040  60.8999850  55.6419680  88.3330360
  61.3985100  56.1165500  88.9982210  61.0422800  54.7183200  88.5400390
  68.1066710  51.8587640  89.1758750  67.6040310  52.5993040  89.5152560
  68.9223370  52.2471640  88.8595540  54.8790110  65.5506950  93.1577080
  55.6802840  65.8719000  93.5712480  54.3641930  65.1902530  93.8796990
  63.7154740  61.6586820  93.1052490  63.1092900  61.6818420  92.3648240
  63.4108850  60.9269860  93.6419740  65.1455110  65.3867110  91.7161900
  66.0976860  65.3025130  91.6662140  64.9983330  66.0508820  92.3895690
  52.5987920  58.0380410  92.1013130  53.1026940  57.4587690  92.6729360
  51.8595340  58.3220640  92.6389500  59.6525860  59.4451400  91.6348650
  58.8871530  60.0136400  91.5503320  59.8341820  59.1527610  90.7416880
  66.7949210  61.1756730  92.1923670  67.5358680  61.5132490  91.6891130
  66.0321890  61.3448790  91.6393440  54.6311000  56.1810000  92.9963200
  54.6716340  55.8823870  93.9048430  55.4856500  56.5817610  92.8370720
  58.4089390  58.7805550  78.1566710  58.8305810  58.6145420  78.9998100
  58.5340230  57.9705780  77.6621850  56.5716810  54.7602100  90.9637690
  56.0413270  54.2693050  90.3361030  57.2404880  55.1886300  90.4295620
  65.4694870  59.2271560  90.7278880  65.8835890  59.3816640  91.5769300
  64.5345870  59.3526780  90.8904660  65.9417040  56.5667720  92.7318030
  66.5237810  55.8120040  92.6438510  66.1178810  57.0975160  91.9549510
  57.0589110  51.7264470  91.0434980  56.9645980  51.1085220  90.3185850
  56.4786500  52.4530760  90.8164890  59.8250550  50.2837710  88.0762370
  59.3767850  50.3061970  87.2307920  59.1915750  49.8856730  88.6732670
  60.2310100  59.1792040  88.6974810  60.6498210  60.0224770  88.5251050
  59.3118730  59.3164080  88.4681590  62.5674000  56.9108220  90.0812650
  62.6870210  56.3149360  90.8207490  63.4268000  56.9477910  89.6613950
  64.9061900  57.4645410  88.6575160  64.3797120  57.9888030  88.0540300
  65.2493240  58.0972800  89.2884890  58.0817520  65.4845050  89.8132540
  57.5438610  66.2091110  89.4941240  58.3351480  65.0075390  89.0229880
  59.3342770  53.4529570  91.3388470  59.9242460  53.1445420  92.0266290
  58.5163010  52.9809320  91.4948370  64.1536200  53.0695380  91.5721490
  63.4651720  52.4076920  91.5071480  64.8742220  52.6233650  92.0169950
  56.1031090  51.9539400  75.0902750  56.4056990  51.9606830  74.1821900
  56.8425680  51.6037260  75.5870410  60.9379730  66.7196260  90.0719190
  60.8638430  67.6231400  90.3791560  60.0358570  66.4008160  90.0441260
  56.9368940  62.3779860  81.0354780  56.6364480  62.2544830  81.9358690
  56.8306430  61.5188450  80.6270510  52.8297230  64.9141440  86.1134440
  52.3928220  65.0942240  86.9458590  53.3974910  65.6716060  85.9716160
  68.4659410  64.4158440  90.4011750  67.8661400  64.4751000  89.6575670
  68.5953310  63.4763420  90.5308600  52.6621660  57.4261670  82.4723320
  52.0070500  57.1573310  81.8283020  53.4999610  57.3166150  82.0225300
  67.1511050  61.1410420  88.4987910  66.3370890  61.5707580  88.7613700
  67.5585250  61.7528830  87.8856960  53.6997590  57.8114240  87.0126660
  54.0670630  57.7241640  87.8922680  53.1308410  57.0480790  86.9133520
  68.5001450  56.2798620  90.0257130  68.2687540  56.0511370  89.1255080
  68.7606000  57.1998170  89.9802020  53.2513590  54.7223330  90.9185080
  52.3569640  54.6890090  91.2578790  53.7911140  54.9210120  91.6836330
  66.9389520  51.5055050  92.8036830  67.8159700  51.5138450  93.1870830
  66.9510360  50.7685890  92.1929180  51.8759740  54.6360600  78.4148650
  50.9723820  54.8990800  78.2400310  52.3600360  54.9071770  77.6348610
  68.5642510  55.4424460  87.2144400  67.6145220  55.4088000  87.3289390
  68.7455520  56.3524570  86.9794170  54.4186950  53.6926140  76.3243030
  55.1278650  53.2709360  75.8390310  53.7026890  53.7601370  75.6926380
  54.0661110  49.7465470  75.3645680  54.7889240  50.2874410  75.6826900
  54.3385630  49.4728890  74.4887220  53.7553300  48.9971660  85.2668300
  54.4029490  48.4469040  84.8263460  54.1755140  49.2514810  86.0884110
  67.6505640  49.1913020  88.6237940  68.2877860  49.8047160  88.9897130
  67.7980530  49.2273680  87.6787170  53.5085300  49.1527330  88.0093620
  53.1600120  49.6091150  88.7751800  53.1773000  48.2584460  88.0916050
  55.1149670  62.3246930  92.1746810  55.0719300  61.9539840  93.0561270
  55.2460680  63.2624500  92.3148630  58.8155700  63.8806520  87.7756530
  58.5747060  64.1481080  86.8887050  59.7558340  64.0512250  87.8307390
  61.0210120  50.3439210  91.5313040  60.9599010  50.9361040  92.2808450
  61.9610500  50.2365170  91.3863300  63.6584680  50.0009270  91.1705330
  64.2725090  50.3188560  90.5086410  64.2034240  49.5157860  91.7901190
  54.1805940  48.6803530  91.2844390  54.7288930  48.4991580  90.5210500
  54.2461250  47.8897640  91.8200700  54.9537700  65.2709180  89.2944590
  54.3598020  65.1393880  90.0334630  54.9461540  64.4347320  88.8286690
  64.3992720  48.5641410  87.4974620  63.5252560  48.8976520  87.2947550
  64.2903470  48.0914590  88.3226490  65.3064700  50.7712280  88.8816340
  64.9778060  49.9564040  88.5018070  66.2547000  50.7282090  88.7582030
  67.7599310  66.5424320  85.8553910  67.3002280  67.2940130  85.4811930
  67.1311770  65.8230790  85.7968710  54.5849930  62.6367560  88.2452630
  53.8583990  62.0172850  88.1778580  54.6459080  63.0308170  87.3750710
  58.1895030  64.8512560  85.0302040  58.7060050  64.2399920  84.5050300
  58.8392410  65.3541340  85.5213050  60.9290530  65.7421050  85.8571020
  61.2168340  65.4875350  84.9804030  61.4413750  65.1898410  86.4476590
  66.6988610  50.1834350  84.4816620  67.1396700  50.1279450  83.6338220
  66.4296200  51.0992360  84.5526800  53.4907950  49.7858730  78.9581250
  54.2487310  49.8987610  78.3845280  53.0285120  50.6227930  78.9124680
  55.8633100  50.3122780  77.4983220  56.3925860  49.5252580  77.3691170
  56.4961420  50.9913970  77.7318750  58.0570940  50.0497920  80.5528610
  57.4273680  49.3485230  80.7198740  57.5176080  50.8102050  80.3361770
  60.9962890  66.6637150  93.2239220  61.9230200  66.4281420  93.2675180
  60.9813320  67.4909150  92.7425250  58.1826500  49.3281900  92.9881100
  57.9010770  49.8315500  92.2241920  58.5646200  48.5303650  92.6223230
  56.2350390  62.7122290  77.7795110  55.6059270  63.1807390  78.3280940
  56.3498220  61.8671510  78.2141300  64.7841960  48.7435480  93.5661570
  64.6707410  49.0630090  94.4613090  65.6011700  49.1447990  93.2698850
  67.5640450  65.8907010  93.0480260  68.3565770  65.3956240  92.8406220
  67.8573600  66.5697150  93.6555870  53.4533810  51.8218680  68.1432360
  53.2736650  50.9244430  68.4235120  53.0513890  52.3690550  68.8179310
  56.5481150  50.0045100  70.1050710  56.5499590  50.5217490  69.2996610
  55.7185460  49.5275280  70.0820640  56.2296480  51.7155060  68.1121160
  56.5713290  52.5597110  67.8175030  55.2912290  51.8638800  68.2286500
  59.9124370  49.2037330  64.4365750  60.2199350  48.6484220  63.7201250
  58.9825070  49.3381790  64.2538740  59.1105960  50.5778280  66.6965520
  59.4078290  51.4841110  66.6157540  59.6591520  50.0897060  66.0825090
  54.4354030  52.4663770  71.3851220  54.0417420  53.3138980  71.5924000
  53.7472430  51.8290140  71.5759860  52.4459080  50.4957780  71.5847450
  51.7317600  50.6954700  72.1900060  52.8654120  49.7197350  71.9562250
  57.0589110  51.7264470  72.2691490  56.9645980  51.1085220  71.5442360
  56.4786500  52.4530760  72.0421400  59.8250550  50.2837710  69.3018880
  59.3767850  50.3061970  68.4564430  59.1915750  49.8856730  69.8989180
  53.7553300  48.9971660  66.4924810  54.4029490  48.4469040  66.0519970
  54.1755140  49.2514810  67.3140620  53.5085300  49.1527330  69.2350130
  53.1600120  49.6091150  70.0008310  53.1773000  48.2584460  69.3172560
  54.1805940  48.6803530  72.5100900  54.7288930  48.4991580  71.7467010
  54.2461250  47.8897640  73.0457210  62.1467540  49.4811250  67.6624040
  61.3639330  49.9556750  67.9420800  61.8530470  48.5766080  67.5537220
  68.5627180  49.8149590  63.7181950  68.5015580  48.8710810  63.5712970
  69.3419210  49.9229680  64.2635410  64.5346740  48.5640450  64.4123140
  65.1376110  49.1360660  64.8871660  63.7939730  49.1279890  64.1897040
  58.1826500  49.3281900  74.2137610  57.9010770  49.8315500  73.4498430
  58.5646200  48.5303650  73.8479740  63.6900110  56.7627950  45.1552820
  63.6094160  55.8482560  44.8844530  63.2764530  57.2595020  44.4492530
  61.8218150  58.5406970  47.0362090  61.0460250  58.0607410  47.3260660
  62.4731080  57.8612620  46.8618250  55.8185240  62.8866870  48.1095870
  56.1213280  61.9964610  47.9306090  56.5628830  63.4437090  47.8818120
  54.2475930  53.8128670  41.6980240  53.3592630  54.1544640  41.5960120
  54.5317120  53.6128990  40.8061070  52.2108940  56.4134320  47.5819940
  52.7825050  55.6456520  47.5823580  52.2110480  56.7123080  46.6726550
  61.2627140  61.2164160  47.0432250  61.1935420  60.2754100  46.8821380
  62.0247000  61.3065570  47.6154820  53.4533810  51.8218680  49.3688870
  53.2736650  50.9244430  49.6491630  53.0513890  52.3690550  50.0435820
  56.4237320  52.3960170  42.7318620  56.5304070  53.2963900  43.0387380
  55.5129680  52.3478140  42.4413270  54.0720480  54.3179180  47.9771210
  54.7530590  54.5817550  48.5958610  53.7568530  53.4780050  48.3109220
  58.2645050  55.3646540  47.0643800  58.7723270  55.8627510  47.7048820
  58.7958290  54.5881740  46.8883160  56.5481150  50.0045100  51.3307220
  56.5499590  50.5217490  50.5253120  55.7185460  49.5275280  51.3077150
  56.2296480  51.7155060  49.3377670  56.5713290  52.5597110  49.0431540
  55.2912290  51.8638800  49.4543010  52.3035440  60.8020940  40.2036750
  51.9263420  61.2908040  39.4721650  52.5608510  61.4746220  40.8343280
  59.9124370  49.2037330  45.6622260  60.2199350  48.6484220  44.9457760
  58.9825070  49.3381790  45.4795250  62.3005130  57.2686160  42.3982380
  61.3734410  57.2023540  42.6270850  62.4529950  58.2066290  42.2837620
  57.9061770  57.7950900  45.1802110  57.5018770  57.0828150  44.6848010
  57.9924890  57.4504140  46.0690150  58.3743470  61.4818460  47.3441320
  58.0771760  60.8763930  46.6649100  59.3243290  61.5195770  47.2330680
  56.6190390  54.5694110  48.9601150  57.1704980  54.6789450  48.1854400
  57.1333900  54.9431710  49.6756380  54.6066400  56.6895880  42.6808760
  54.4864000  57.4157970  42.0690030  54.2967290  55.9198790  42.2036670
  53.4899400  61.5611210  44.8983580  53.0827480  61.7025800  44.0437180
  54.3812410  61.2771370  44.6954790  57.0730060  50.0330950  46.0632430
  56.6298210  50.8140490  45.7316950  57.6315050  50.3560840  46.7703370
  59.1105960  50.5778280  47.9222030  59.4078290  51.4841110  47.8414050
  59.6591520  50.0897060  47.3081600  56.8644280  55.1564520  43.7913680
  56.6385200  54.9401690  44.6960300  56.0836810  55.5892980  43.4459650
  51.7371080  50.3892230  46.6437810  51.4484130  50.9595090  47.3562790
  52.4816840  49.9096680  47.0069040  51.9241310  54.3312350  37.8540530
  51.8415980  55.2743110  37.9955520  51.5724370  54.1887260  36.9752880
  63.2862050  56.3897180  48.5158390  62.5543170  56.8983990  48.8648490
  62.8886390  55.5727160  48.2147170  59.7239440  53.0651380  46.9210880
  59.7275500  52.6241330  46.0715420  60.6190560  53.3868710  47.0282700
  55.5741820  52.9477870  45.8805090  55.2341870  53.4253100  46.6372140
  54.8119140  52.4942990  45.5206190  59.7859590  54.0663460  39.9117640
  59.9072410  54.0249940  40.8603460  59.4008100  54.9287610  39.7564370
  58.7981090  56.3764600  39.3100940  58.2297990  55.9282850  38.6836850
  59.5070090  56.7357380  38.7766090  60.0247410  57.1253160  48.6676290
  60.3917540  56.6511730  49.4137630  59.8352470  57.9994730  49.0084630
  52.8887900  51.8696850  44.7969760  52.6034820  51.5052520  45.6348380
  52.8266760  51.1377310  44.1832900  56.3428570  60.3722790  41.5827350
  55.5690830  59.8320410  41.4226070  57.0723200  59.8529400  41.2445110
  62.5626490  50.7626110  41.5183130  61.7491100  50.2639280  41.4428440
  62.3688440  51.6024360  41.1019480  56.3865970  60.0403170  45.2206160
  56.9044640  59.2371430  45.1663050  55.9349990  59.9782310  46.0622990
  52.3818560  57.0055800  38.7566460  53.2513410  57.2880600  39.0402380
  51.8908880  57.8191670  38.6415270  59.5453370  58.3929010  42.8774740
  60.0016150  59.2034260  43.1034930  59.1941580  58.0752150  43.7093230
  55.4465150  48.7366660  43.3497260  55.3179780  48.7284560  44.2982180
  54.6227170  49.0749750  42.9988270  52.4459080  50.4957780  52.8103960
  51.7317600  50.6954700  53.4156570  52.8654120  49.7197350  53.1818760
  54.3665070  58.8229270  40.8848520  53.7593020  59.5628170  40.8943820
  54.8414420  58.9128630  40.0586720  59.2743920  54.2222980  42.7850850
  58.5660070  54.6909320  43.2264460  59.5588400  53.5644990  43.4196040
  60.8999850  55.6419680  50.7843380  61.3985100  56.1165500  51.4495230
  61.0422800  54.7183200  50.9913410  57.4778940  52.5308060  40.1601560
  58.3269470  52.9678210  40.0941750  57.1110210  52.8428320  40.9873620
  56.3770360  58.7840420  38.6337090  57.1433630  58.6721780  39.1962520
  56.4545050  58.0878390  37.9813860  55.0717120  56.2165490  39.3169980
  55.1520710  55.2693000  39.4287380  55.9636870  56.5472370  39.4230640
  55.8731830  66.3660880  46.4204520  56.6094310  65.8176340  46.6913090
  56.2572750  67.2316890  46.2810510  58.4089390  58.7805550  40.6079730
  58.8305810  58.6145420  41.4511120  58.5340230  57.9705780  40.1134870
  59.8250550  50.2837710  50.5275390  59.3767850  50.3061970  49.6820940
  59.1915750  49.8856730  51.1245690  60.2310100  59.1792040  51.1487830
  60.6498210  60.0224770  50.9764070  59.3118730  59.3164080  50.9194610
  64.9061900  57.4645410  51.1088180  64.3797120  57.9888030  50.5053320
  65.2493240  58.0972800  51.7397910  57.3048290  54.8538780  37.5537890
  57.1037350  53.9906140  37.9151230  57.1340340  54.7672140  36.6159490
  56.1031090  51.9539400  37.5415770  56.4056990  51.9606830  36.6334920
  56.8425680  51.6037260  38.0383430  59.3216020  50.8974020  38.5271970
  58.9738020  50.2198010  37.9474420  59.5228790  50.4363530  39.3415360
  55.1261220  61.2581820  38.3745570  55.5636090  61.8011490  39.0303150
  55.6108950  60.4328770  38.3841910  52.3407020  64.0470850  45.8265830
  52.6710030  63.1791910  45.5944470  52.7698020  64.2529370  46.6570790
  52.6621660  57.4261670  44.9236340  52.0070500  57.1573310  44.2796040
  53.4999610  57.3166150  44.4738320  51.8759740  54.6360600  40.8661670
  50.9723820  54.8990800  40.6913330  52.3600360  54.9071770  40.0861630
  54.4186950  53.6926140  38.7756050  55.1278650  53.2709360  38.2903330
  53.7026890  53.7601370  38.1439400  54.0661110  49.7465470  37.8158700
  54.7889240  50.2874410  38.1339920  54.3385630  49.4728890  36.9400240
  53.7553300  48.9971660  47.7181320  54.4029490  48.4469040  47.2776480
  54.1755140  49.2514810  48.5397130  53.5085300  49.1527330  50.4606640
  53.1600120  49.6091150  51.2264820  53.1773000  48.2584460  50.5429070
  54.1805940  48.6803530  53.7357410  54.7288930  48.4991580  52.9723520
  54.2461250  47.8897640  54.2713720  53.4907950  49.7858730  41.4094270
  54.2487310  49.8987610  40.8358300  53.0285120  50.6227930  41.3637700
  60.0321760  51.8998000  44.3996580  59.2196270  51.5254890  44.0592460
  60.5363400  51.1443080  44.7017770  55.8633100  50.3122780  39.9496240
  56.3925860  49.5252580  39.8204190  56.4961420  50.9913970  40.1831770
  58.0570940  50.0497920  43.0041630  57.4273680  49.3485230  43.1711760
  57.5176080  50.8102050  42.7874790  63.6900110  56.7627950  26.3809330
  63.6094160  55.8482560  26.1101040  63.2764530  57.2595020  25.6749040
  61.8218150  58.5406970  28.2618600  61.0460250  58.0607410  28.5517170
  62.4731080  57.8612620  28.0874760  55.8383980  58.8526780  29.1394360
  55.0068860  58.5975490  29.5390870  56.4464960  58.9237550  29.8752280
  65.8425580  62.9467160  27.0417730  65.3807110  62.1754400  27.3704900
  66.6551130  62.9733230  27.5470180  54.2475930  53.8128670  22.9236750
  53.3592630  54.1544640  22.8216630  54.5317120  53.6128990  22.0317580
  52.2108940  56.4134320  28.8076450  52.7825050  55.6456520  28.8080090
  52.2110480  56.7123080  27.8983060  62.0688890  65.2325170  26.6621720
  61.4500330  65.6882670  26.0916160  62.9240670  65.3876630  26.2611420
  61.2627140  61.2164160  28.2688760  61.1935420  60.2754100  28.1077890
  62.0247000  61.3065570  28.8411330  53.4533810  51.8218680  30.5945380
  53.2736650  50.9244430  30.8748140  53.0513890  52.3690550  31.2692330
  62.2932310  54.0234540  28.4957690  62.6697130  53.1506420  28.3831360
  62.1951820  54.3593240  27.6048130  56.4237320  52.3960170  23.9575130
  56.5304070  53.2963900  24.2643890  55.5129680  52.3478140  23.6669780
  66.0756430  51.5184980  25.4286030  66.8966050  51.0281550  25.4711510
  66.1090510  52.1082640  26.1817870  54.0720480  54.3179180  29.2027720
  54.7530590  54.5817550  29.8215120  53.7568530  53.4780050  29.5365730
  58.2645050  55.3646540  28.2900310  58.7723270  55.8627510  28.9305330
  58.7958290  54.5881740  28.1139670  70.3655980  53.5351730  31.9929660
  69.6608150  53.9233440  31.4744770  70.6313900  54.2302020  32.5950590
  56.5481150  50.0045100  32.5563730  56.5499590  50.5217490  31.7509630
  55.7185460  49.5275280  32.5333660  62.9352240  60.1164410  24.0553630
  62.3169510  60.5813860  23.4916350  63.4475490  60.8091890  24.4723140
  57.7984000  59.6440280  30.7337230  57.4653380  60.2709200  31.3758300
  57.9750680  60.1702160  29.9538900  66.3117910  53.4585360  28.2013570
  65.6073480  53.7470250  28.7816680  66.6730070  54.2685470  27.8413130
  56.2296480  51.7155060  30.5634180  56.5713290  52.5597110  30.2688050
  55.2912290  51.8638800  30.6799520  57.0103100  61.6121080  32.5486410
  57.6277100  62.2872160  32.2670860  56.1496220  62.0209060  32.4573910
  52.3035440  60.8020940  21.4293260  51.9263420  61.2908040  20.6978160
  52.5608510  61.4746220  22.0599790  67.9280690  63.0760490  30.4641050
  67.2444210  63.7459600  30.4557720  68.4674980  63.2741140  29.6985910
  69.3804830  52.9040150  28.5922780  68.4329740  52.9379130  28.7238210
  69.7054820  53.7179100  28.9772140  59.9124370  49.2037330  26.8878770
  60.2199350  48.6484220  26.1714270  58.9825070  49.3381790  26.7051760
  65.4639430  64.9204620  29.1786230  65.4766590  64.5166910  28.3108490
  64.9114650  65.6951910  29.0747660  66.7584850  61.6420840  24.2676400
  66.6481180  60.6995170  24.3925820  66.7553100  62.0036480  25.1539160
  62.3005130  57.2686160  23.6238890  61.3734410  57.2023540  23.8527360
  62.4529950  58.2066290  23.5094130  62.2874210  53.5403160  20.6206050
  61.3477880  53.7017120  20.7058510  62.6057470  54.2588840  20.0742040
  68.8086970  58.2221680  30.5985080  67.9805600  58.2914770  30.1235210
  69.4037450  58.8075990  30.1300910  66.3302420  58.8306460  24.1274140
  65.7114840  58.4926010  23.4800440  66.3126870  58.1866220  24.8353330
  65.7728980  55.0091000  31.5439950  65.3600160  55.8344710  31.7979940
  65.0404930  54.4236040  31.3516310  57.9061770  57.7950900  26.4058620
  57.5018770  57.0828150  25.9104520  57.9924890  57.4504140  27.2946660
  58.3743470  61.4818460  28.5697830  58.0771760  60.8763930  27.8905610
  59.3243290  61.5195770  28.4587190  56.6190390  54.5694110  30.1857660
  57.1704980  54.6789450  29.4110910  57.1333900  54.9431710  30.9012890
  64.5067120  58.0693270  21.1346890  64.9460400  57.2315700  20.9884710
  65.2195540  58.7022670  21.2211030  56.2933120  58.0913470  33.7963000
  56.1540890  58.9636270  34.1650400  55.4114480  57.7486280  33.6510940
  62.6162500  63.0089340  25.1028130  63.0558410  63.7513670  24.6883520
  62.5549390  63.2515910  26.0267090  68.0884260  49.3236080  19.4487930
  67.7756920  49.4162910  20.3487000  68.8496730  49.9017110  19.3985360
  54.6066400  56.6895880  23.9065270  54.4864000  57.4157970  23.2946540
  54.2967290  55.9198790  23.4293180  52.2451770  59.8611020  29.7133910
  52.3232190  59.9959790  28.7689630  52.8593450  59.1526910  29.9062030
  53.4899400  61.5611210  26.1240090  53.0827480  61.7025800  25.2693690
  54.3812410  61.2771370  25.9211300  65.2832680  65.9958460  22.4591140
  65.1233820  65.7061400  23.3572970  65.1179390  65.2198590  21.9236370
  57.7621060  65.7756990  24.2362760  57.5863540  64.8592530  24.0230560
  56.9076800  66.1344280  24.4760560  64.9858810  63.5046020  21.0189140
  64.2923970  63.5023310  20.3591420  65.7281670  63.0805340  20.5883310
  64.5508740  65.1308730  25.0937630  65.0065690  64.3498110  25.4076250
  64.8901260  65.8415550  25.6378810  52.3011290  60.9025190  32.2528370
  52.4642330  60.4330550  31.4347740  52.7663740  60.3948750  32.9177210
  57.0730060  50.0330950  27.2888940  56.6298210  50.8140490  26.9573460
  57.6315050  50.3560840  27.9959880  61.3599870  52.8999470  32.8924260
  60.8979240  53.1082490  33.7044200  60.9577980  52.0858820  32.5894930
  60.1888880  49.6541650  22.1694770  59.5643060  49.6501520  22.8948080
  60.1019000  48.7872610  21.7730740  59.1105960  50.5778280  29.1478540
  59.4078290  51.4841110  29.0670560  59.6591520  50.0897060  28.5338110
  56.8644280  55.1564520  25.0170190  56.6385200  54.9401690  25.9216810
  56.0836810  55.5892980  24.6716160  64.0942040  55.1627890  23.6160840
  63.4950930  55.8863690  23.4324460  64.6421650  55.1004670  22.8337290
  59.3043490  56.0550100  35.6830460  59.2087090  55.1144830  35.5330860
  60.1475470  56.2765170  35.2878530  62.7006910  53.7991430  25.6464120
  63.0936480  54.1163630  24.8332810  63.0623760  52.9203310  25.7608640
  54.4354030  52.4663770  33.8364240  54.0417420  53.3138980  34.0437020
  53.7472430  51.8290140  34.0272880  51.7371080  50.3892230  27.8694320
  51.4484130  50.9595090  28.5819300  52.4816840  49.9096680  28.2325550
  51.9241310  54.3312350  19.0797040  51.8415980  55.2743110  19.2212030
  51.5724370  54.1887260  18.2009390  63.2862050  56.3897180  29.7414900
  62.5543170  56.8983990  30.0905000  62.8886390  55.5727160  29.4403680
  59.7239440  53.0651380  28.1467390  59.7275500  52.6241330  27.2971930
  60.6190560  53.3868710  28.2539210  55.5741820  52.9477870  27.1061600
  55.2341870  53.4253100  27.8628650  54.8119140  52.4942990  26.7462700
  59.7859590  54.0663460  21.1374150  59.9072410  54.0249940  22.0859970
  59.4008100  54.9287610  20.9820880  63.7487960  51.8430860  29.1537840
  63.7660700  52.2939510  29.9979690  63.5003540  50.9436500  29.3671280
  58.7981090  56.3764600  20.5357450  58.2297990  55.9282850  19.9093360
  59.5070090  56.7357380  20.0022600  53.8750270  60.2776620  34.4124180
  53.4905060  59.6370290  35.0107140  54.1862460  60.9812740  34.9818910
  60.0247410  57.1253160  29.8932800  60.3917540  56.6511730  30.6394140
  59.8352470  57.9994730  30.2341140  52.8887900  51.8696850  26.0226270
  52.6034820  51.5052520  26.8604890  52.8266760  51.1377310  25.4089410
  57.8146780  56.1661800  32.2117010  57.5103850  57.0453780  32.4367370
  58.7693240  56.2261590  32.2474450  56.3428570  60.3722790  22.8083860
  55.5690830  59.8320410  22.6482580  57.0723200  59.8529400  22.4701620
  67.1016550  59.3688150  28.6010250  67.8215670  59.8643440  28.2106360
  66.8998370  58.6906040  27.9564120  62.5626490  50.7626110  22.7439640
  61.7491100  50.2639280  22.6684950  62.3688440  51.6024360  22.3275990
  65.2774880  55.1345760  21.0401800  66.1654500  55.4462990  20.8653140
  65.2479970  54.2618010  20.6482380  56.3865970  60.0403170  26.4462670
  56.9044640  59.2371430  26.3919560  55.9349990  59.9782310  27.2879500
  61.2735470  61.3069450  21.7189970  61.6151170  62.0511680  21.2233290
  60.4448180  61.6200570  22.0814800  53.8710510  57.0064540  33.3588370
  53.5125450  57.6718390  33.9461710  53.5765070  56.1748090  33.7300990
  57.0723630  57.4648780  36.2427920  56.7723770  57.6105960  35.3455740
  57.8434870  56.9054070  36.1501310  67.5489150  56.4457600  20.5081660
  67.4652870  56.8771820  19.6578100  68.2683340  56.9055950  20.9408480
  68.5776400  63.2999860  23.2363790  67.9352560  62.6455480  23.5107510
  68.1907060  63.7054950  22.4604460  64.1562880  60.6285290  27.0835480
  64.5086700  60.0313420  26.4236850  63.2725210  60.3029520  27.2543730
  60.2426160  61.3882980  24.4905890  60.9297290  61.9352190  24.8713480
  59.4558580  61.9323710  24.5255500  52.3818560  57.0055800  19.9822970
  53.2513410  57.2880600  20.2658890  51.8908880  57.8191670  19.8671780
  59.5453370  58.3929010  24.1031250  60.0016150  59.2034260  24.3291440
  59.1941580  58.0752150  24.9349740  55.4465150  48.7366660  24.5753770
  55.3179780  48.7284560  25.5238690  54.6227170  49.0749750  24.2244780
  63.1218060  61.9067700  30.0501000  63.7640290  61.2060860  30.1633170
  63.6467410  62.6866140  29.8697890  66.9673780  62.1916320  19.7740140
  66.7411360  61.4746760  20.3664780  66.5769980  61.9428760  18.9361890
  52.7489810  66.2183180  20.5484600  53.1087450  66.8172520  19.8941870
  52.6082150  66.7643070  21.3219630  52.4459080  50.4957780  34.0360470
  51.7317600  50.6954700  34.6413080  52.8654120  49.7197350  34.4075270
  66.5490030  60.1088260  21.4354300  66.2611730  60.5700950  22.2232180
  67.3442200  59.6486030  21.7038520  58.7658430  63.6014380  21.3658270
  58.7568530  64.3344070  20.7502780  57.8456790  63.3545960  21.4585230
  54.3665070  58.8229270  22.1105030  53.7593020  59.5628170  22.1200330
  54.8414420  58.9128630  21.2843230  63.9397860  52.9880090  31.7861920
  64.3078680  52.1675300  32.1141490  63.0796060  53.0481980  32.2017570
  67.3059890  51.9437030  22.5949480  66.6773050  52.0482700  21.8807710
  66.8111810  52.1633810  23.3843360  61.7518030  63.6642620  20.0283460
  61.8530010  63.4606610  19.0985440  60.8519770  63.4100900  20.2331240
  59.2743920  54.2222980  24.0107360  58.5660070  54.6909320  24.4520970
  59.5588400  53.5644990  24.6452550  60.8999850  55.6419680  32.0099890
  61.3985100  56.1165500  32.6751740  61.0422800  54.7183200  32.2169920
  63.3059350  50.9473640  25.4503150  63.1827130  50.9659770  24.5012660
  64.2543910  50.9952580  25.5701550  60.3936140  66.1828940  24.7231130
  60.6477640  66.1450330  23.8010500  59.4448620  66.0562270  24.7159380
  57.4778940  52.5308060  21.3858070  58.3269470  52.9678210  21.3198260
  57.1110210  52.8428320  22.2130130  68.1066710  51.8587640  32.8528280
  67.6040310  52.5993040  33.1922090  68.9223370  52.2471640  32.5365070
  66.3988720  57.1020820  26.2989640  65.4578860  57.1171050  26.4737330
  66.7132790  56.3156780  26.7449940  56.3770360  58.7840420  19.8593600
  57.1433630  58.6721780  20.4219030  56.4545050  58.0878390  19.2070370
  55.0717120  56.2165490  20.5426490  55.1520710  55.2693000  20.6543890
  55.9636870  56.5472370  20.6487150  68.4014300  64.2729670  27.9743900
  68.5261720  65.0960840  28.4467710  69.2679860  64.0620400  27.6268050
  52.7577310  62.4334450  23.5202540  51.8317090  62.6755590  23.5107950
  53.2233740  63.2608710  23.3987290  58.9834140  65.5391190  19.4686600
  59.7762750  65.8280020  19.0168390  58.4638490  65.1083360  18.7899080
  68.0364310  64.7661320  20.8923340  67.7505820  64.3526460  20.0777520
  67.8383860  65.6949030  20.7723860  52.5987920  58.0380410  35.7782660
  53.1026940  57.4587690  36.3498890  51.8595340  58.3220640  36.3159030
  59.5011540  60.7594600  19.3328950  59.3962180  60.1446950  20.0590330
  59.3335760  60.2360490  18.5491960  59.6525860  59.4451400  35.3118180
  58.8871530  60.0136400  35.2272850  59.8341820  59.1527610  34.4186410
  62.7414270  59.8214630  19.9370940  62.1924370  60.2683930  20.5813680
  63.3633530  59.3163880  20.4608610  54.6311000  56.1810000  36.6732730
  54.6716340  55.8823870  37.5817960  55.4856500  56.5817610  36.5140250
  58.4089390  58.7805550  21.8336240  58.8305810  58.6145420  22.6767630
  58.5340230  57.9705780  21.3391380  56.5716810  54.7602100  34.6407220
  56.0413270  54.2693050  34.0130560  57.2404880  55.1886300  34.1065150
  60.9217030  57.8043160  19.0813340  61.4422690  57.0892180  18.7154490
  61.5685430  58.4429030  19.3813850  57.0589110  51.7264470  34.7204510
  56.9645980  51.1085220  33.9955380  56.4786500  52.4530760  34.4934420
  59.8250550  50.2837710  31.7531900  59.3767850  50.3061970  30.9077450
  59.1915750  49.8856730  32.3502200  60.2310100  59.1792040  32.3744340
  60.6498210  60.0224770  32.2020580  59.3118730  59.3164080  32.1451120
  57.3048290  54.8538780  18.7794400  57.1037350  53.9906140  19.1407740
  57.1340340  54.7672140  17.8416000  59.3342770  53.4529570  35.0158000
  59.9242460  53.1445420  35.7035820  58.5163010  52.9809320  35.1717900
  64.7836600  49.6647010  21.3081280  65.0638890  48.8214910  21.6640700
  64.0102330  49.8970120  21.8220030  56.1031090  51.9539400  18.7672280
  56.4056990  51.9606830  17.8591430  56.8425680  51.6037260  19.2639940
  59.3216020  50.8974020  19.7528480  58.9738020  50.2198010  19.1730930
  59.5228790  50.4363530  20.5671870  61.4865060  65.8854770  21.3715080
  62.3815850  66.2239740  21.3933840  61.5182690  65.1634180  20.7439360
  55.1261220  61.2581820  19.6002080  55.5636090  61.8011490  20.2559660
  55.6108950  60.4328770  19.6098420  52.3407020  64.0470850  27.0522340
  52.6710030  63.1791910  26.8200980  52.7698020  64.2529370  27.8827300
  56.9368940  62.3779860  24.7124310  56.6364480  62.2544830  25.6128220
  56.8306430  61.5188450  24.3040040  52.8297230  64.9141440  29.7903970
  52.3928220  65.0942240  30.6228120  53.3974910  65.6716060  29.6485690
  69.7060860  62.1576260  19.4150990  68.8753820  62.2252910  19.8858220
  69.8832690  63.0480380  19.1117850  69.1617320  58.9023740  21.9185190
  69.9236230  59.4720390  22.0244880  69.1771690  58.3350940  22.6893500
  52.6621660  57.4261670  26.1492850  52.0070500  57.1573310  25.5052550
  53.4999610  57.3166150  25.6994830  70.1677290  59.7573840  26.7627120
  70.5386120  58.9741160  26.3563090  70.8079220  60.4462940  26.5844420
  69.2136490  59.1958110  19.0757710  69.4885330  60.1036990  18.9476930
  69.0247230  59.1320640  20.0119700  65.6112100  52.2202960  20.3711340
  66.0296980  52.0333940  19.5308000  65.3048160  51.3682010  20.6814270
  69.1101830  57.1327100  24.0687140  68.7345430  56.3655030  23.6368430
  68.3804950  57.5149800  24.5562070  53.6997590  57.8114240  30.6896190
  54.0670630  57.7241640  31.5692210  53.1308410  57.0480790  30.5903050
  68.5001450  56.2798620  33.7026660  68.2687540  56.0511370  32.8024610
  68.7606000  57.1998170  33.6571550  53.2513590  54.7223330  34.5954610
  52.3569640  54.6890090  34.9348320  53.7911140  54.9210120  35.3605860
  51.8759740  54.6360600  22.0918180  50.9723820  54.8990800  21.9169840
  52.3600360  54.9071770  21.3118140  68.3852790  55.3584590  27.3694380
  68.9090270  54.8647240  26.7384550  68.9712210  55.4934950  28.1141950
  68.5642510  55.4424460  30.8913930  67.6145220  55.4088000  31.0058920
  68.7455520  56.3524570  30.6563700  54.4186950  53.6926140  20.0012560
  55.1278650  53.2709360  19.5159840  53.7026890  53.7601370  19.3695910
  54.0661110  49.7465470  19.0415210  54.7889240  50.2874410  19.3596430
  54.3385630  49.4728890  18.1656750  67.8752760  54.6157940  23.3086790
  68.3711880  54.3828810  24.0935670  67.6768830  53.7769780  22.8924430
  53.7553300  48.9971660  28.9437830  54.4029490  48.4469040  28.5032990
  54.1755140  49.2514810  29.7653640  69.3039920  53.2518890  25.8424470
  69.1939200  53.0974930  26.7806740  70.0647510  52.7239830  25.5999880
  67.6505640  49.1913020  32.3007470  68.2877860  49.8047160  32.6666660
  67.7980530  49.2273680  31.3556700  70.1930190  51.0826810  19.0830610
  71.1179500  50.9507990  18.8748900  70.1705980  51.1619630  20.0367060
  70.2668680  51.8537470  21.7087320  69.4720180  51.7882590  22.2380230
  70.4711960  52.7888110  21.6972670  67.2087100  65.8929020  25.7025710
  67.8046170  65.5713590  25.0260130  67.4665250  65.4200840  26.4938980
  53.5085300  49.1527330  31.6863150  53.1600120  49.6091150  32.4521330
  53.1773000  48.2584460  31.7685580  61.0210120  50.3439210  35.2082570
  60.9599010  50.9361040  35.9577980  61.9610500  50.2365170  35.0632830
  63.6584680  50.0009270  34.8474860  64.2725090  50.3188560  34.1855940
  64.2034240  49.5157860  35.4670720  54.1805940  48.6803530  34.9613920
  54.7288930  48.4991580  34.1980030  54.2461250  47.8897640  35.4970230
  64.3992720  48.5641410  31.1744150  63.5252560  48.8976520  30.9717080
  64.2903470  48.0914590  31.9996020  65.3064700  50.7712280  32.5585870
  64.9778060  49.9564040  32.1787600  66.2547000  50.7282090  32.4351560
  67.7599310  66.5424320  29.5323440  67.3002280  67.2940130  29.1581460
  67.1311770  65.8230790  29.4738240  54.5849930  62.6367560  31.9222160
  53.8583990  62.0172850  31.8548110  54.6459080  63.0308170  31.0520240
  62.1467540  49.4811250  30.1137060  61.3639330  49.9556750  30.3933820
  61.8530470  48.5766080  30.0050240  66.6988610  50.1834350  28.1586150
  67.1396700  50.1279450  27.3107750  66.4296200  51.0992360  28.2296330
  68.5627180  49.8149590  26.1694970  68.5015580  48.8710810  26.0225990
  69.3419210  49.9229680  26.7148430  52.8679930  65.9541950  25.1318920
  52.7001970  65.3212630  25.8300810  52.0014440  66.1601350  24.7813110
  53.4907950  49.7858730  22.6350780  54.2487310  49.8987610  22.0614810
  53.0285120  50.6227930  22.5894210  60.0321760  51.8998000  25.6253090
  59.2196270  51.5254890  25.2848970  60.5363400  51.1443080  25.9274280
  64.5346740  48.5640450  26.8636160  65.1376110  49.1360660  27.3384680
  63.7939730  49.1279890  26.6410060  67.6781340  48.9662010  22.1376440
  67.8731970  49.8645460  22.4043870  66.8911210  48.7349090  22.6309390
  54.4742630  64.6475180  22.5769060  53.9490250  65.0283210  21.8731020
  54.3987210  65.2725950  23.2978770  55.8633100  50.3122780  21.1752750
  56.3925860  49.5252580  21.0460700  56.4961420  50.9913970  21.4088280
  58.0570940  50.0497920  24.2298140  57.4273680  49.3485230  24.3968270
  57.5176080  50.8102050  24.0131300  69.2307950  66.2062720  23.8983000
  69.4060140  65.5200460  23.2543920  68.5329520  66.7309770  23.5059670
  58.1826500  49.3281900  36.6650630  57.9010770  49.8315500  35.9011450
  58.5646200  48.5303650  36.2992760  57.0735600  66.5957560  21.4518310
  57.8054420  66.3116840  20.9042200  57.3329270  66.3570840  22.3417690
  56.2350390  62.7122290  21.4564640  55.6059270  63.1807390  22.0050470
  56.3498220  61.8671510  21.8910830  63.6900110  56.7627950   7.6065840
  63.6094160  55.8482560   7.3357550  63.2764530  57.2595020   6.9005550
  61.8218150  58.5406970   9.4875110  61.0460250  58.0607410   9.7773680
  62.4731080  57.8612620   9.3131270  55.8383980  58.8526780  10.3650870
  55.0068860  58.5975490  10.7647380  56.4464960  58.9237550  11.1008790
  65.8425580  62.9467160   8.2674240  65.3807110  62.1754400   8.5961410
  66.6551130  62.9733230   8.7726690  55.8185240  62.8866870  10.5608890
  56.1213280  61.9964610  10.3819110  56.5628830  63.4437090  10.3331140
  54.2475930  53.8128670   4.1493260  53.3592630  54.1544640   4.0473140
  54.5317120  53.6128990   3.2574090  52.2108940  56.4134320  10.0332960
  52.7825050  55.6456520  10.0336600  52.2110480  56.7123080   9.1239570
  62.0688890  65.2325170   7.8878230  61.4500330  65.6882670   7.3172670
  62.9240670  65.3876630   7.4867930  61.2627140  61.2164160   9.4945270
  61.1935420  60.2754100   9.3334400  62.0247000  61.3065570  10.0667840
  53.4533810  51.8218680  11.8201890  53.2736650  50.9244430  12.1004650
  53.0513890  52.3690550  12.4948840  62.2932310  54.0234540   9.7214200
  62.6697130  53.1506420   9.6087870  62.1951820  54.3593240   8.8304640
  56.4237320  52.3960170   5.1831640  56.5304070  53.2963900   5.4900400
  55.5129680  52.3478140   4.8926290  66.0756430  51.5184980   6.6542540
  66.8966050  51.0281550   6.6968020  66.1090510  52.1082640   7.4074380
  54.0720480  54.3179180  10.4284230  54.7530590  54.5817550  11.0471630
  53.7568530  53.4780050  10.7622240  58.2645050  55.3646540   9.5156820
  58.7723270  55.8627510  10.1561840  58.7958290  54.5881740   9.3396180
  70.3655980  53.5351730  13.2186170  69.6608150  53.9233440  12.7001280
  70.6313900  54.2302020  13.8207100  56.5481150  50.0045100  13.7820240
  56.5499590  50.5217490  12.9766140  55.7185460  49.5275280  13.7590170
  62.9352240  60.1164410   5.2810140  62.3169510  60.5813860   4.7172860
  63.4475490  60.8091890   5.6979650  57.7984000  59.6440280  11.9593740
  57.4653380  60.2709200  12.6014810  57.9750680  60.1702160  11.1795410
  66.3117910  53.4585360   9.4270080  65.6073480  53.7470250  10.0073190
  66.6730070  54.2685470   9.0669640  56.2296480  51.7155060  11.7890690
  56.5713290  52.5597110  11.4944560  55.2912290  51.8638800  11.9056030
  57.0103100  61.6121080  13.7742920  57.6277100  62.2872160  13.4927370
  56.1496220  62.0209060  13.6830420  52.3035440  60.8020940   2.6549770
  51.9263420  61.2908040   1.9234670  52.5608510  61.4746220   3.2856300
  67.9280690  63.0760490  11.6897560  67.2444210  63.7459600  11.6814230
  68.4674980  63.2741140  10.9242420  69.3804830  52.9040150   9.8179290
  68.4329740  52.9379130   9.9494720  69.7054820  53.7179100  10.2028650
  59.9124370  49.2037330   8.1135280  60.2199350  48.6484220   7.3970780
  58.9825070  49.3381790   7.9308270  65.4639430  64.9204620  10.4042740
  65.4766590  64.5166910   9.5365000  64.9114650  65.6951910  10.3004170
  66.7584850  61.6420840   5.4932910  66.6481180  60.6995170   5.6182330
  66.7553100  62.0036480   6.3795670  64.8624870  59.8234460  11.7325350
  65.2793660  59.6094570  10.8978810  65.5864690  60.0807250  12.3033970
  62.3005130  57.2686160   4.8495400  61.3734410  57.2023540   5.0783870
  62.4529950  58.2066290   4.7350640  62.2874210  53.5403160   1.8462560
  61.3477880  53.7017120   1.9315020  62.6057470  54.2588840   1.2998550
  68.8086970  58.2221680  11.8241590  67.9805600  58.2914770  11.3491720
  69.4037450  58.8075990  11.3557420  66.3302420  58.8306460   5.3530650
  65.7114840  58.4926010   4.7056950  66.3126870  58.1866220   6.0609840
  65.7728980  55.0091000  12.7696460  65.3600160  55.8344710  13.0236450
  65.0404930  54.4236040  12.5772820  57.9061770  57.7950900   7.6315130
  57.5018770  57.0828150   7.1361030  57.9924890  57.4504140   8.5203170
  58.3743470  61.4818460   9.7954340  58.0771760  60.8763930   9.1162120
  59.3243290  61.5195770   9.6843700  56.6190390  54.5694110  11.4114170
  57.1704980  54.6789450  10.6367420  57.1333900  54.9431710  12.1269400
  66.4629080  65.0550330  13.4577440  65.9859640  65.8622520  13.2650050
  65.7790870  64.4028660  13.6103650  57.4661900  61.2200150  16.4462140
  56.5690430  61.4440120  16.6935540  57.4914770  61.3435090  15.4973540
  64.5067120  58.0693270   2.3603400  64.9460400  57.2315700   2.2141220
  65.2195540  58.7022670   2.4467540  56.2933120  58.0913470  15.0219510
  56.1540890  58.9636270  15.3906910  55.4114480  57.7486280  14.8767450
  62.6162500  63.0089340   6.3284640  63.0558410  63.7513670   5.9140030
  62.5549390  63.2515910   7.2523600  58.0913470  64.0335170  17.2304660
  58.0628900  64.4378120  16.3633090  57.9278440  63.1045530  17.0676260
  54.6066400  56.6895880   5.1321780  54.4864000  57.4157970   4.5203050
  54.2967290  55.9198790   4.6549690  70.0428290  64.8162270  18.5268830
  70.5188010  65.2945160  19.2057910  70.6635450  64.7479760  17.8014330
  52.2451770  59.8611020  10.9390420  52.3232190  59.9959790   9.9946140
  52.8593450  59.1526910  11.1318540  53.4899400  61.5611210   7.3496600
  53.0827480  61.7025800   6.4950200  54.3812410  61.2771370   7.1467810
  69.4461540  62.0075120  15.6868840  69.5724600  61.7687000  14.7686020
  69.4882920  61.1759660  16.1590920  63.3078280  65.7103120  14.2563650
  63.8222950  65.6211130  15.0586080  62.4647360  66.0562820  14.5491560
  65.2832680  65.9958460   3.6847650  65.1233820  65.7061400   4.5829480
  65.1179390  65.2198590   3.1492880  57.7621060  65.7756990   5.4619270
  57.5863540  64.8592530   5.2487070  56.9076800  66.1344280   5.7017070
  64.9858810  63.5046020   2.2445650  64.2923970  63.5023310   1.5847930
  65.7281670  63.0805340   1.8139820  64.5508740  65.1308730   6.3194140
  65.0065690  64.3498110   6.6332760  64.8901260  65.8415550   6.8635320
  69.2985550  54.0607580  16.6518580  68.6829820  54.5687250  16.1234040
  68.9781970  53.1605910  16.5944520  52.3011290  60.9025190  13.4784880
  52.4642330  60.4330550  12.6604250  52.7663740  60.3948750  14.1433720
  57.0730060  50.0330950   8.5145450  56.6298210  50.8140490   8.1829970
  57.6315050  50.3560840   9.2216390  61.3599870  52.8999470  14.1180770
  60.8979240  53.1082490  14.9300710  60.9577980  52.0858820  13.8151440
  66.3604380  54.1208420  15.2477430  65.5097970  53.8214170  15.5686500
  66.2006170  54.3650430  14.3361250  63.4554090  55.6210170  17.3476220
  63.7807500  54.7873920  17.0078450  64.2434420  56.1438690  17.4954550
  60.1888880  49.6541650   3.3951280  59.5643060  49.6501520   4.1204590
  60.1019000  48.7872610   2.9987250  59.1105960  50.5778280  10.3735050
  59.4078290  51.4841110  10.2927070  59.6591520  50.0897060   9.7594620
  56.8644280  55.1564520   6.2426700  56.6385200  54.9401690   7.1473320
  56.0836810  55.5892980   5.8972670  64.0942040  55.1627890   4.8417350
  63.4950930  55.8863690   4.6580970  64.6421650  55.1004670   4.0593800
  59.3043490  56.0550100  16.9086970  59.2087090  55.1144830  16.7587370
  60.1475470  56.2765170  16.5135040  62.7006910  53.7991430   6.8720630
  63.0936480  54.1163630   6.0589320  63.0623760  52.9203310   6.9865150
  54.4354030  52.4663770  15.0620750  54.0417420  53.3138980  15.2693530
  53.7472430  51.8290140  15.2529390  61.0099080  52.5498740  18.1317490
  60.3197400  52.3570940  18.7663580  61.7531380  52.8333380  18.6641790
  51.7371080  50.3892230   9.0950830  51.4484130  50.9595090   9.8075810
  52.4816840  49.9096680   9.4582060  63.2862050  56.3897180  10.9671410
  62.5543170  56.8983990  11.3161510  62.8886390  55.5727160  10.6660190
  59.7239440  53.0651380   9.3723900  59.7275500  52.6241330   8.5228440
  60.6190560  53.3868710   9.4795720  55.5741820  52.9477870   8.3318110
  55.2341870  53.4253100   9.0885160  54.8119140  52.4942990   7.9719210
  59.7859590  54.0663460   2.3630660  59.9072410  54.0249940   3.3116480
  59.4008100  54.9287610   2.2077390  63.7487960  51.8430860  10.3794350
  63.7660700  52.2939510  11.2236200  63.5003540  50.9436500  10.5927790
  67.1758710  49.2563040  16.2180730  67.5004480  48.5252700  16.7438710
  67.2115220  48.9376680  15.3161720  53.8750270  60.2776620  15.6380690
  53.4905060  59.6370290  16.2363650  54.1862460  60.9812740  16.2075420
  60.0247410  57.1253160  11.1189310  60.3917540  56.6511730  11.8650650
  59.8352470  57.9994730  11.4597650  52.8887900  51.8696850   7.2482780
  52.6034820  51.5052520   8.0861400  52.8266760  51.1377310   6.6345920
  57.8146780  56.1661800  13.4373520  57.5103850  57.0453780  13.6623880
  58.7693240  56.2261590  13.4730960  56.3428570  60.3722790   4.0340370
  55.5690830  59.8320410   3.8739090  57.0723200  59.8529400   3.6958130
  67.1016550  59.3688150   9.8266760  67.8215670  59.8643440   9.4362870
  66.8998370  58.6906040   9.1820630  62.5626490  50.7626110   3.9696150
  61.7491100  50.2639280   3.8941460  62.3688440  51.6024360   3.5532500
  62.4835350  59.4397210  15.7135760  62.4172660  58.5192880  15.4593350
  61.8540490  59.5372650  16.4280400  65.2774880  55.1345760   2.2658310
  66.1654500  55.4462990   2.0909650  65.2479970  54.2618010   1.8738890
  56.3865970  60.0403170   7.6719180  56.9044640  59.2371430   7.6176070
  55.9349990  59.9782310   8.5136010  61.2735470  61.3069450   2.9446480
  61.6151170  62.0511680   2.4489800  60.4448180  61.6200570   3.3071310
  53.8710510  57.0064540  14.5844880  53.5125450  57.6718390  15.1718220
  53.5765070  56.1748090  14.9557500  57.0723630  57.4648780  17.4684430
  56.7723770  57.6105960  16.5712250  57.8434870  56.9054070  17.3757820
  62.4152080  62.2617780  15.4639560  62.4296620  61.3298740  15.2458470
  61.7077180  62.3477540  16.1029330  68.6263290  58.9025120  14.8108140
  67.9011480  59.4953900  14.6137530  69.1538750  58.8948660  14.0121510
  68.5776400  63.2999860   4.4620300  67.9352560  62.6455480   4.7364020
  68.1907060  63.7054950   3.6860970  64.1562880  60.6285290   8.3091990
  64.5086700  60.0313420   7.6493360  63.2725210  60.3029520   8.4800240
  60.2426160  61.3882980   5.7162400  60.9297290  61.9352190   6.0969990
  59.4558580  61.9323710   5.7512010  59.5453370  58.3929010   5.3287760
  60.0016150  59.2034260   5.5547950  59.1941580  58.0752150   6.1606250
  61.8485980  63.9035350  12.5580060  62.4928200  64.1094730  13.2353480
  62.2115420  63.1423750  12.1050910  55.4465150  48.7366660   5.8010280
  55.3179780  48.7284560   6.7495200  54.6227170  49.0749750   5.4501290
  63.1218060  61.9067700  11.2757510  63.7640290  61.2060860  11.3889680
  63.6467410  62.6866140  11.0954400  64.8955680  62.7062600  14.4793570
  65.2311920  63.2929290  15.1571490  63.9756020  62.5755310  14.7091360
  52.4459080  50.4957780  15.2616980  51.7317600  50.6954700  15.8669590
  52.8654120  49.7197350  15.6331780  66.5490030  60.1088260   2.6610810
  66.2611730  60.5700950   3.4488690  67.3442200  59.6486030   2.9295030
  52.7331670  64.4838040  16.2483510  52.8422790  63.5432780  16.1078900
  52.0812230  64.7492790  15.5997240  60.7244260  62.7553930  17.6481630
  60.4041130  62.0363170  18.1927320  60.0502620  63.4309000  17.7217690
  58.7658430  63.6014380   2.5914780  58.7568530  64.3344070   1.9759290
  57.8456790  63.3545960   2.6841740  54.3665070  58.8229270   3.3361540
  53.7593020  59.5628170   3.3456840  54.8414420  58.9128630   2.5099740
  63.9397860  52.9880090  13.0118430  64.3078680  52.1675300  13.3398000
  63.0796060  53.0481980  13.4274080  67.3059890  51.9437030   3.8205990
  66.6773050  52.0482700   3.1064220  66.8111810  52.1633810   4.6099870
  59.2743920  54.2222980   5.2363870  58.5660070  54.6909320   5.6777480
  59.5588400  53.5644990   5.8709060  60.8999850  55.6419680  13.2356400
  61.3985100  56.1165500  13.9008250  61.0422800  54.7183200  13.4426430
  63.3059350  50.9473640   6.6759660  63.1827130  50.9659770   5.7269170
  64.2543910  50.9952580   6.7958060  60.3936140  66.1828940   5.9487640
  60.6477640  66.1450330   5.0267010  59.4448620  66.0562270   5.9415890
  57.4778940  52.5308060   2.6114580  58.3269470  52.9678210   2.5454770
  57.1110210  52.8428320   3.4386640  68.1066710  51.8587640  14.0784790
  67.6040310  52.5993040  14.4178600  68.9223370  52.2471640  13.7621580
  66.3988720  57.1020820   7.5246150  65.4578860  57.1171050   7.6993840
  66.7132790  56.3156780   7.9706450  55.0717120  56.2165490   1.7683000
  55.1520710  55.2693000   1.8800400  55.9636870  56.5472370   1.8743660
  68.4014300  64.2729670   9.2000410  68.5261720  65.0960840   9.6724220
  69.2679860  64.0620400   8.8524560  55.8731830  66.3660880   8.8717540
  56.6094310  65.8176340   9.1426110  56.2572750  67.2316890   8.7323530
  52.7577310  62.4334450   4.7459050  51.8317090  62.6755590   4.7364460
  53.2233740  63.2608710   4.6243800  54.8790110  65.5506950  18.0603120
  55.6802840  65.8719000  18.4738520  54.3641930  65.1902530  18.7823030
  63.7154740  61.6586820  18.0078530  63.1092900  61.6818420  17.2674280
  63.4108850  60.9269860  18.5445780  65.1455110  65.3867110  16.6187940
  66.0976860  65.3025130  16.5688180  64.9983330  66.0508820  17.2921730
  68.0364310  64.7661320   2.1179850  67.7505820  64.3526460   1.3034030
  67.8383860  65.6949030   1.9980370  52.5987920  58.0380410  17.0039170
  53.1026940  57.4587690  17.5755400  51.8595340  58.3220640  17.5415540
  59.6525860  59.4451400  16.5374690  58.8871530  60.0136400  16.4529360
  59.8341820  59.1527610  15.6442920  66.7949210  61.1756730  17.0949710
  67.5358680  61.5132490  16.5917170  66.0321890  61.3448790  16.5419480
  54.6311000  56.1810000  17.8989240  54.6716340  55.8823870  18.8074470
  55.4856500  56.5817610  17.7396760  58.4089390  58.7805550   3.0592750
  58.8305810  58.6145420   3.9024140  58.5340230  57.9705780   2.5647890
  56.5716810  54.7602100  15.8663730  56.0413270  54.2693050  15.2387070
  57.2404880  55.1886300  15.3321660  65.4694870  59.2271560  15.6304920
  65.8835890  59.3816640  16.4795340  64.5345870  59.3526780  15.7930700
  65.9417040  56.5667720  17.6344070  66.5237810  55.8120040  17.5464550
  66.1178810  57.0975160  16.8575550  57.0589110  51.7264470  15.9461020
  56.9645980  51.1085220  15.2211890  56.4786500  52.4530760  15.7190930
  59.8250550  50.2837710  12.9788410  59.3767850  50.3061970  12.1333960
  59.1915750  49.8856730  13.5758710  60.2310100  59.1792040  13.6000850
  60.6498210  60.0224770  13.4277090  59.3118730  59.3164080  13.3707630
  62.5674000  56.9108220  14.9838690  62.6870210  56.3149360  15.7233530
  63.4268000  56.9477910  14.5639990  64.9061900  57.4645410  13.5601200
  64.3797120  57.9888030  12.9566340  65.2493240  58.0972800  14.1910930
  58.0817520  65.4845050  14.7158580  57.5438610  66.2091110  14.3967280
  58.3351480  65.0075390  13.9255920  59.3342770  53.4529570  16.2414510
  59.9242460  53.1445420  16.9292330  58.5163010  52.9809320  16.3974410
  64.1536200  53.0695380  16.4747530  63.4651720  52.4076920  16.4097520
  64.8742220  52.6233650  16.9195990  64.7836600  49.6647010   2.5337790
  65.0638890  48.8214910   2.8897210  64.0102330  49.8970120   3.0476540
  60.9379730  66.7196260  14.9745230  60.8638430  67.6231400  15.2817600
  60.0358570  66.4008160  14.9467300  61.4865060  65.8854770   2.5971590
  62.3815850  66.2239740   2.6190350  61.5182690  65.1634180   1.9695870
  52.3407020  64.0470850   8.2778850  52.6710030  63.1791910   8.0457490
  52.7698020  64.2529370   9.1083810  56.9368940  62.3779860   5.9380820
  56.6364480  62.2544830   6.8384730  56.8306430  61.5188450   5.5296550
  52.8297230  64.9141440  11.0160480  52.3928220  65.0942240  11.8484630
  53.3974910  65.6716060  10.8742200  68.4659410  64.4158440  15.3037790
  67.8661400  64.4751000  14.5601710  68.5953310  63.4763420  15.4334640
  69.1617320  58.9023740   3.1441700  69.9236230  59.4720390   3.2501390
  69.1771690  58.3350940   3.9150010  52.6621660  57.4261670   7.3749360
  52.0070500  57.1573310   6.7309060  53.4999610  57.3166150   6.9251340
  70.1677290  59.7573840   7.9883630  70.5386120  58.9741160   7.5819600
  70.8079220  60.4462940   7.8100930  67.1511050  61.1410420  13.4013950
  66.3370890  61.5707580  13.6639740  67.5585250  61.7528830  12.7883000
  69.1101830  57.1327100   5.2943650  68.7345430  56.3655030   4.8624940
  68.3804950  57.5149800   5.7818580  53.6997590  57.8114240  11.9152700
  54.0670630  57.7241640  12.7948720  53.1308410  57.0480790  11.8159560
  68.5001450  56.2798620  14.9283170  68.2687540  56.0511370  14.0281120
  68.7606000  57.1998170  14.8828060  53.2513590  54.7223330  15.8211120
  52.3569640  54.6890090  16.1604830  53.7911140  54.9210120  16.5862370
  66.9389520  51.5055050  17.7062870  67.8159700  51.5138450  18.0896870
  66.9510360  50.7685890  17.0955220  51.8759740  54.6360600   3.3174690
  50.9723820  54.8990800   3.1426350  52.3600360  54.9071770   2.5374650
  68.3852790  55.3584590   8.5950890  68.9090270  54.8647240   7.9641060
  68.9712210  55.4934950   9.3398460  68.5642510  55.4424460  12.1170440
  67.6145220  55.4088000  12.2315430  68.7455520  56.3524570  11.8820210
  67.8752760  54.6157940   4.5343300  68.3711880  54.3828810   5.3192180
  67.6768830  53.7769780   4.1180940  53.7553300  48.9971660  10.1694340
  54.4029490  48.4469040   9.7289500  54.1755140  49.2514810  10.9910150
  69.3039920  53.2518890   7.0680980  69.1939200  53.0974930   8.0063250
  70.0647510  52.7239830   6.8256390  67.6505640  49.1913020  13.5263980
  68.2877860  49.8047160  13.8923170  67.7980530  49.2273680  12.5813210
  70.2668680  51.8537470   2.9343830  69.4720180  51.7882590   3.4636740
  70.4711960  52.7888110   2.9229180  67.2087100  65.8929020   6.9282220
  67.8046170  65.5713590   6.2516640  67.4665250  65.4200840   7.7195490
  53.5085300  49.1527330  12.9119660  53.1600120  49.6091150  13.6777840
  53.1773000  48.2584460  12.9942090  55.1149670  62.3246930  17.0772850
  55.0719300  61.9539840  17.9587310  55.2460680  63.2624500  17.2174670
  58.8155700  63.8806520  12.6782570  58.5747060  64.1481080  11.7913090
  59.7558340  64.0512250  12.7333430  61.0210120  50.3439210  16.4339080
  60.9599010  50.9361040  17.1834490  61.9610500  50.2365170  16.2889340
  63.6584680  50.0009270  16.0731370  64.2725090  50.3188560  15.4112450
  64.2034240  49.5157860  16.6927230  70.0759860  65.9000900  13.4793210
  69.5818140  66.2969770  12.7620340  69.4673150  65.2750110  13.8730490
  54.1805940  48.6803530  16.1870430  54.7288930  48.4991580  15.4236540
  54.2461250  47.8897640  16.7226740  54.9537700  65.2709180  14.1970630
  54.3598020  65.1393880  14.9360670  54.9461540  64.4347320  13.7312730
  64.3992720  48.5641410  12.4000660  63.5252560  48.8976520  12.1973590
  64.2903470  48.0914590  13.2252530  65.3064700  50.7712280  13.7842380
  64.9778060  49.9564040  13.4044110  66.2547000  50.7282090  13.6608070
  67.7599310  66.5424320  10.7579950  67.3002280  67.2940130  10.3837970
  67.1311770  65.8230790  10.6994750  54.5849930  62.6367560  13.1478670
  53.8583990  62.0172850  13.0804620  54.6459080  63.0308170  12.2776750
  58.1895030  64.8512560   9.9328080  58.7060050  64.2399920   9.4076340
  58.8392410  65.3541340  10.4239090  60.9290530  65.7421050  10.7597060
  61.2168340  65.4875350   9.8830070  61.4413750  65.1898410  11.3502630
  62.1467540  49.4811250  11.3393570  61.3639330  49.9556750  11.6190330
  61.8530470  48.5766080  11.2306750  66.6988610  50.1834350   9.3842660
  67.1396700  50.1279450   8.5364260  66.4296200  51.0992360   9.4552840
  68.5627180  49.8149590   7.3951480  68.5015580  48.8710810   7.2482500
  69.3419210  49.9229680   7.9404940  52.8679930  65.9541950   6.3575430
  52.7001970  65.3212630   7.0557320  52.0014440  66.1601350   6.0069620
  53.4907950  49.7858730   3.8607290  54.2487310  49.8987610   3.2871320
  53.0285120  50.6227930   3.8150720  60.0321760  51.8998000   6.8509600
  59.2196270  51.5254890   6.5105480  60.5363400  51.1443080   7.1530790
  64.5346740  48.5640450   8.0892670  65.1376110  49.1360660   8.5641190
  63.7939730  49.1279890   7.8666570  67.6781340  48.9662010   3.3632950
  67.8731970  49.8645460   3.6300380  66.8911210  48.7349090   3.8565900
  54.4742630  64.6475180   3.8025570  53.9490250  65.0283210   3.0987530
  54.3987210  65.2725950   4.5235280  55.8633100  50.3122780   2.4009260
  56.3925860  49.5252580   2.2717210  56.4961420  50.9913970   2.6344790
  58.0570940  50.0497920   5.4554650  57.4273680  49.3485230   5.6224780
  57.5176080  50.8102050   5.2387810  60.9962890  66.6637150  18.1265260
  61.9230200  66.4281420  18.1701220  60.9813320  67.4909150  17.6451290
  69.2307950  66.2062720   5.1239510  69.4060140  65.5200460   4.4800430
  68.5329520  66.7309770   4.7316180  58.1826500  49.3281900  17.8907140
  57.9010770  49.8315500  17.1267960  58.5646200  48.5303650  17.5249270
  57.0735600  66.5957560   2.6774820  57.8054420  66.3116840   2.1298710
  57.3329270  66.3570840   3.5674200  56.2350390  62.7122290   2.6821150
  55.6059270  63.1807390   3.2306980  56.3498220  61.8671510   3.1167340
  64.7841960  48.7435480  18.4687610  64.6707410  49.0630090  19.3639130
  65.6011700  49.1447990  18.1724890  67.5640450  65.8907010  17.9506300
  68.3565770  65.3956240  17.7432260  67.8573600  66.5697150  18.5581910
  63.6900110  37.9884460 101.4783290  63.6094160  37.0739070 101.2075000
  63.2764530  38.4851530 100.7723000  61.8218150  39.7663480 103.3592560
  61.0460250  39.2863920 103.6491130  62.4731080  39.0869130 103.1848720
  55.8383980  40.0783290 104.2368320  55.0068860  39.8232000 104.6364830
  56.4464960  40.1494060 104.9726240  65.8425580  44.1723670 102.1391690
  65.3807110  43.4010910 102.4678860  66.6551130  44.1989740 102.6444140
  55.8185240  44.1123380 104.4326340  56.1213280  43.2221120 104.2536560
  56.5628830  44.6693600 104.2048590  54.2475930  35.0385180  98.0210710
  53.3592630  35.3801150  97.9190590  54.5317120  34.8385500  97.1291540
  52.2108940  37.6390830 103.9050410  52.7825050  36.8713030 103.9054050
  52.2110480  37.9379590 102.9957020  62.0688890  46.4581680 101.7595680
  61.4500330  46.9139180 101.1890120  62.9240670  46.6133140 101.3585380
  61.2627140  42.4420670 103.3662720  61.1935420  41.5010610 103.2051850
  62.0247000  42.5322080 103.9385290  53.4533810  33.0475190 105.6919340
  53.2736650  32.1500940 105.9722100  53.0513890  33.5947060 106.3666290
  62.2932310  35.2491050 103.5931650  62.6697130  34.3762930 103.4805320
  62.1951820  35.5849750 102.7022090  56.4237320  33.6216680  99.0549090
  56.5304070  34.5220410  99.3617850  55.5129680  33.5734650  98.7643740
  66.0756430  32.7441490 100.5259990  66.8966050  32.2538060 100.5685470
  66.1090510  33.3339150 101.2791830  54.0720480  35.5435690 104.3001680
  54.7530590  35.8074060 104.9189080  53.7568530  34.7036560 104.6339690
  58.2645050  36.5903050 103.3874270  58.7723270  37.0884020 104.0279290
  58.7958290  35.8138250 103.2113630  70.3655980  34.7608240 107.0903620
  69.6608150  35.1489950 106.5718730  70.6313900  35.4558530 107.6924550
  56.5481150  31.2301610 107.6537690  56.5499590  31.7474000 106.8483590
  55.7185460  30.7531790 107.6307620  62.9352240  41.3420920  99.1527590
  62.3169510  41.8070370  98.5890310  63.4475490  42.0348400  99.5697100
  57.7984000  40.8696790 105.8311190  57.4653380  41.4965710 106.4732260
  57.9750680  41.3958670 105.0512860  66.3117910  34.6841870 103.2987530
  65.6073480  34.9726760 103.8790640  66.6730070  35.4941980 102.9387090
  56.2296480  32.9411570 105.6608140  56.5713290  33.7853620 105.3662010
  55.2912290  33.0895310 105.7773480  57.0103100  42.8377590 107.6460370
  57.6277100  43.5128670 107.3644820  56.1496220  43.2465570 107.5547870
  52.3035440  42.0277450  96.5267220  51.9263420  42.5164550  95.7952120
  52.5608510  42.7002730  97.1573750  67.9280690  44.3017000 105.5615010
  67.2444210  44.9716110 105.5531680  68.4674980  44.4997650 104.7959870
  69.3804830  34.1296660 103.6896740  68.4329740  34.1635640 103.8212170
  69.7054820  34.9435610 104.0746100  59.9124370  30.4293840 101.9852730
  60.2199350  29.8740730 101.2688230  58.9825070  30.5638300 101.8025720
  65.4639430  46.1461130 104.2760190  65.4766590  45.7423420 103.4082450
  64.9114650  46.9208420 104.1721620  66.7584850  42.8677350  99.3650360
  66.6481180  41.9251680  99.4899780  66.7553100  43.2292990 100.2513120
  64.8624870  41.0490970 105.6042800  65.2793660  40.8351080 104.7696260
  65.5864690  41.3063760 106.1751420  62.3005130  38.4942670  98.7212850
  61.3734410  38.4280050  98.9501320  62.4529950  39.4322800  98.6068090
  62.2874210  34.7659670  95.7180010  61.3477880  34.9273630  95.8032470
  62.6057470  35.4845350  95.1716000  68.8086970  39.4478190 105.6959040
  67.9805600  39.5171280 105.2209170  69.4037450  40.0332500 105.2274870
  66.3302420  40.0562970  99.2248100  65.7114840  39.7182520  98.5774400
  66.3126870  39.4122730  99.9327290  65.7728980  36.2347510 106.6413910
  65.3600160  37.0601220 106.8953900  65.0404930  35.6492550 106.4490270
  57.9061770  39.0207410 101.5032580  57.5018770  38.3084660 101.0078480
  57.9924890  38.6760650 102.3920620  58.3743470  42.7074970 103.6671790
  58.0771760  42.1020440 102.9879570  59.3243290  42.7452280 103.5561150
  56.6190390  35.7950620 105.2831620  57.1704980  35.9045960 104.5084870
  57.1333900  36.1688220 105.9986850  66.4629080  46.2806840 107.3294890
  65.9859640  47.0879030 107.1367500  65.7790870  45.6285170 107.4821100
  57.4661900  42.4456660 110.3179590  56.5690430  42.6696630 110.5652990
  57.4914770  42.5691600 109.3690990  64.5067120  39.2949780  96.2320850
  64.9460400  38.4572210  96.0858670  65.2195540  39.9279180  96.3184990
  56.2933120  39.3169980 108.8936960  56.1540890  40.1892780 109.2624360
  55.4114480  38.9742790 108.7484900  62.6162500  44.2345850 100.2002090
  63.0558410  44.9770180  99.7857480  62.5549390  44.4772420 101.1241050
  68.0884260  30.5492590  94.5461890  67.7756920  30.6419420  95.4460960
  68.8496730  31.1273620  94.4959320  54.6066400  37.9152390  99.0039230
  54.4864000  38.6414480  98.3920500  54.2967290  37.1455300  98.5267140
  52.2451770  41.0867530 104.8107870  52.3232190  41.2216300 103.8663590
  52.8593450  40.3783420 105.0035990  53.4899400  42.7867720 101.2214050
  53.0827480  42.9282310 100.3667650  54.3812410  42.5027880 101.0185260
  69.4461540  43.2331630 109.5586290  69.5724600  42.9943510 108.6403470
  69.4882920  42.4016170 110.0308370  63.3078280  46.9359630 108.1281100
  63.8222950  46.8467640 108.9303530  62.4647360  47.2819330 108.4209010
  65.2832680  47.2214970  97.5565100  65.1233820  46.9317910  98.4546930
  65.1179390  46.4455100  97.0210330  57.7621060  47.0013500  99.3336720
  57.5863540  46.0849040  99.1204520  56.9076800  47.3600790  99.5734520
  64.9858810  44.7302530  96.1163100  64.2923970  44.7279820  95.4565380
  65.7281670  44.3061850  95.6857270  64.5508740  46.3565240 100.1911590
  65.0065690  45.5754620 100.5050210  64.8901260  47.0672060 100.7352770
  69.2985550  35.2864090 110.5236030  68.6829820  35.7943760 109.9951490
  68.9781970  34.3862420 110.4661970  52.3011290  42.1281700 107.3502330
  52.4642330  41.6587060 106.5321700  52.7663740  41.6205260 108.0151170
  57.0730060  31.2587460 102.3862900  56.6298210  32.0397000 102.0547420
  57.6315050  31.5817350 103.0933840  61.3599870  34.1255980 107.9898220
  60.8979240  34.3339000 108.8018160  60.9577980  33.3115330 107.6868890
  66.3604380  35.3464930 109.1194880  65.5097970  35.0470680 109.4403950
  66.2006170  35.5906940 108.2078700  60.1888880  30.8798160  97.2668730
  59.5643060  30.8758030  97.9922040  60.1019000  30.0129120  96.8704700
  59.1105960  31.8034790 104.2452500  59.4078290  32.7097620 104.1644520
  59.6591520  31.3153570 103.6312070  56.8644280  36.3821030 100.1144150
  56.6385200  36.1658200 101.0190770  56.0836810  36.8149490  99.7690120
  64.0942040  36.3884400  98.7134800  63.4950930  37.1120200  98.5298420
  64.6421650  36.3261180  97.9311250  59.3043490  37.2806610 110.7804420
  59.2087090  36.3401340 110.6304820  60.1475470  37.5021680 110.3852490
  62.7006910  35.0247940 100.7438080  63.0936480  35.3420140  99.9306770
  63.0623760  34.1459820 100.8582600  54.4354030  33.6920280 108.9338200
  54.0417420  34.5395490 109.1410980  53.7472430  33.0546650 109.1246840
  51.7371080  31.6148740 102.9668280  51.4484130  32.1851600 103.6793260
  52.4816840  31.1353190 103.3299510  51.9241310  35.5568860  94.1771000
  51.8415980  36.4999620  94.3185990  51.5724370  35.4143770  93.2983350
  63.2862050  37.6153690 104.8388860  62.5543170  38.1240500 105.1878960
  62.8886390  36.7983670 104.5377640  59.7239440  34.2907890 103.2441350
  59.7275500  33.8497840 102.3945890  60.6190560  34.6125220 103.3513170
  55.5741820  34.1734380 102.2035560  55.2341870  34.6509610 102.9602610
  54.8119140  33.7199500 101.8436660  59.7859590  35.2919970  96.2348110
  59.9072410  35.2506450  97.1833930  59.4008100  36.1544120  96.0794840
  63.7487960  33.0687370 104.2511800  63.7660700  33.5196020 105.0953650
  63.5003540  32.1693010 104.4645240  58.7981090  37.6021110  95.6331410
  58.2297990  37.1539360  95.0067320  59.5070090  37.9613890  95.0996560
  67.1758710  30.4819550 110.0898180  67.5004480  29.7509210 110.6156160
  67.2115220  30.1633190 109.1879170  53.8750270  41.5033130 109.5098140
  53.4905060  40.8626800 110.1081100  54.1862460  42.2069250 110.0792870
  60.0247410  38.3509670 104.9906760  60.3917540  37.8768240 105.7368100
  59.8352470  39.2251240 105.3315100  52.8887900  33.0953360 101.1200230
  52.6034820  32.7309030 101.9578850  52.8266760  32.3633820 100.5063370
  57.8146780  37.3918310 107.3090970  57.5103850  38.2710290 107.5341330
  58.7693240  37.4518100 107.3448410  56.3428570  41.5979300  97.9057820
  55.5690830  41.0576920  97.7456540  57.0723200  41.0785910  97.5675580
  67.1016550  40.5944660 103.6984210  67.8215670  41.0899950 103.3080320
  66.8998370  39.9162550 103.0538080  62.5626490  31.9882620  97.8413600
  61.7491100  31.4895790  97.7658910  62.3688440  32.8280870  97.4249950
  62.4835350  40.6653720 109.5853210  62.4172660  39.7449390 109.3310800
  61.8540490  40.7629160 110.2997850  65.2774880  36.3602270  96.1375760
  66.1654500  36.6719500  95.9627100  65.2479970  35.4874520  95.7456340
  56.3865970  41.2659680 101.5436630  56.9044640  40.4627940 101.4893520
  55.9349990  41.2038820 102.3853460  61.2735470  42.5325960  96.8163930
  61.6151170  43.2768190  96.3207250  60.4448180  42.8457080  97.1788760
  53.8710510  38.2321050 108.4562330  53.5125450  38.8974900 109.0435670
  53.5765070  37.4004600 108.8274950  62.4152080  43.4874290 109.3357010
  62.4296620  42.5555250 109.1175920  61.7077180  43.5734050 109.9746780
  67.5489150  37.6714110  95.6055620  67.4652870  38.1028330  94.7552060
  68.2683340  38.1312460  96.0382440  68.6263290  40.1281630 108.6825590
  67.9011480  40.7210410 108.4854980  69.1538750  40.1205170 107.8838960
  68.5776400  44.5256370  98.3337750  67.9352560  43.8711990  98.6081470
  68.1907060  44.9311460  97.5578420  64.1562880  41.8541800 102.1809440
  64.5086700  41.2569930 101.5210810  63.2725210  41.5286030 102.3517690
  60.2426160  42.6139490  99.5879850  60.9297290  43.1608700  99.9687440
  59.4558580  43.1580220  99.6229460  52.3818560  38.2312310  95.0796930
  53.2513410  38.5137110  95.3632850  51.8908880  39.0448180  94.9645740
  59.5453370  39.6185520  99.2005210  60.0016150  40.4290770  99.4265400
  59.1941580  39.3008660 100.0323700  61.8485980  45.1291860 106.4297510
  62.4928200  45.3351240 107.1070930  62.2115420  44.3680260 105.9768360
  55.4465150  29.9623170  99.6727730  55.3179780  29.9541070 100.6212650
  54.6227170  30.3006260  99.3218740  63.1218060  43.1324210 105.1474960
  63.7640290  42.4317370 105.2607130  63.6467410  43.9122650 104.9671850
  66.9673780  43.4172830  94.8714100  66.7411360  42.7003270  95.4638740
  66.5769980  43.1685270  94.0335850  64.8955680  43.9319110 108.3511020
  65.2311920  44.5185800 109.0288940  63.9756020  43.8011820 108.5808810
  52.7489810  47.4439690  95.6458560  53.1087450  48.0429030  94.9915830
  52.6082150  47.9899580  96.4193590  52.4459080  31.7214290 109.1334430
  51.7317600  31.9211210 109.7387040  52.8654120  30.9453860 109.5049230
  66.5490030  41.3344770  96.5328260  66.2611730  41.7957460  97.3206140
  67.3442200  40.8742540  96.8012480  52.7331670  45.7094550 110.1200960
  52.8422790  44.7689290 109.9796350  52.0812230  45.9749300 109.4714690
  58.7658430  44.8270890  96.4632230  58.7568530  45.5600580  95.8476740
  57.8456790  44.5802470  96.5559190  54.3665070  40.0485780  97.2078990
  53.7593020  40.7884680  97.2174290  54.8414420  40.1385140  96.3817190
  63.9397860  34.2136600 106.8835880  64.3078680  33.3931810 107.2115450
  63.0796060  34.2738490 107.2991530  67.3059890  33.1693540  97.6923440
  66.6773050  33.2739210  96.9781670  66.8111810  33.3890320  98.4817320
  61.7518030  44.8899130  95.1257420  61.8530010  44.6863120  94.1959400
  60.8519770  44.6357410  95.3305200  59.2743920  35.4479490  99.1081320
  58.5660070  35.9165830  99.5494930  59.5588400  34.7901500  99.7426510
  60.8999850  36.8676190 107.1073850  61.3985100  37.3422010 107.7725700
  61.0422800  35.9439710 107.3143880  63.3059350  32.1730150 100.5477110
  63.1827130  32.1916280  99.5986620  64.2543910  32.2209090 100.6675510
  60.3936140  47.4085450  99.8205090  60.6477640  47.3706840  98.8984460
  59.4448620  47.2818780  99.8133340  57.4778940  33.7564570  96.4832030
  58.3269470  34.1934720  96.4172220  57.1110210  34.0684830  97.3104090
  68.1066710  33.0844150 107.9502240  67.6040310  33.8249550 108.2896050
  68.9223370  33.4728150 107.6339030  66.3988720  38.3277330 101.3963600
  65.4578860  38.3427560 101.5711290  66.7132790  37.5413290 101.8423900
  56.3770360  40.0096930  94.9567560  57.1433630  39.8978290  95.5192990
  56.4545050  39.3134900  94.3044330  55.0717120  37.4422000  95.6400450
  55.1520710  36.4949510  95.7517850  55.9636870  37.7728880  95.7461110
  68.4014300  45.4986180 103.0717860  68.5261720  46.3217350 103.5441670
  69.2679860  45.2876910 102.7242010  55.8731830  47.5917390 102.7434990
  56.6094310  47.0432850 103.0143560  56.2572750  48.4573400 102.6040980
  52.7577310  43.6590960  98.6176500  51.8317090  43.9012100  98.6081910
  53.2233740  44.4865220  98.4961250  58.9834140  46.7647700  94.5660560
  59.7762750  47.0536530  94.1142350  58.4638490  46.3339870  93.8873040
  68.0364310  45.9917830  95.9897300  67.7505820  45.5782970  95.1751480
  67.8383860  46.9205540  95.8697820  59.5011540  41.9851110  94.4302910
  59.3962180  41.3703460  95.1564290  59.3335760  41.4617000  93.6465920
  59.6525860  40.6707910 110.4092140  58.8871530  41.2392910 110.3246810
  59.8341820  40.3784120 109.5160370  62.7414270  41.0471140  95.0344900
  62.1924370  41.4940440  95.6787640  63.3633530  40.5420390  95.5582570
  66.7949210  42.4013240 110.9667160  67.5358680  42.7389000 110.4634620
  66.0321890  42.5705300 110.4136930  58.4089390  40.0062060  96.9310200
  58.8305810  39.8401930  97.7741590  58.5340230  39.1962290  96.4365340
  56.5716810  35.9858610 109.7381180  56.0413270  35.4949560 109.1104520
  57.2404880  36.4142810 109.2039110  60.9217030  39.0299670  94.1787300
  61.4422690  38.3148690  93.8128450  61.5685430  39.6685540  94.4787810
  65.4694870  40.4528070 109.5022370  65.8835890  40.6073150 110.3512790
  64.5345870  40.5783290 109.6648150  57.0589110  32.9520980 109.8178470
  56.9645980  32.3341730 109.0929340  56.4786500  33.6787270 109.5908380
  59.8250550  31.5094220 106.8505860  59.3767850  31.5318480 106.0051410
  59.1915750  31.1113240 107.4476160  60.2310100  40.4048550 107.4718300
  60.6498210  41.2481280 107.2994540  59.3118730  40.5420590 107.2425080
  62.5674000  38.1364730 108.8556140  62.6870210  37.5405870 109.5950980
  63.4268000  38.1734420 108.4357440  64.9061900  38.6901920 107.4318650
  64.3797120  39.2144540 106.8283790  65.2493240  39.3229310 108.0628380
  58.0817520  46.7101560 108.5876030  57.5438610  47.4347620 108.2684730
  58.3351480  46.2331900 107.7973370  59.3342770  34.6786080 110.1131960
  59.9242460  34.3701930 110.8009780  58.5163010  34.2065830 110.2691860
  64.1536200  34.2951890 110.3464980  63.4651720  33.6333430 110.2814970
  64.8742220  33.8490160 110.7913440  64.7836600  30.8903520  96.4055240
  65.0638890  30.0471420  96.7614660  64.0102330  31.1226630  96.9193990
  60.9379730  47.9452770 108.8462680  60.8638430  48.8487910 109.1535050
  60.0358570  47.6264670 108.8184750  61.4865060  47.1111280  96.4689040
  62.3815850  47.4496250  96.4907800  61.5182690  46.3890690  95.8413320
  55.1261220  42.4838330  94.6976040  55.5636090  43.0268000  95.3533620
  55.6108950  41.6585280  94.7072380  52.3407020  45.2727360 102.1496300
  52.6710030  44.4048420 101.9174940  52.7698020  45.4785880 102.9801260
  56.9368940  43.6036370  99.8098270  56.6364480  43.4801340 100.7102180
  56.8306430  42.7444960  99.4014000  52.8297230  46.1397950 104.8877930
  52.3928220  46.3198750 105.7202080  53.3974910  46.8972570 104.7459650
  68.4659410  45.6414950 109.1755240  67.8661400  45.7007510 108.4319160
  68.5953310  44.7019930 109.3052090  69.7060860  43.3832770  94.5124950
  68.8753820  43.4509420  94.9832180  69.8832690  44.2736890  94.2091810
  69.1617320  40.1280250  97.0159150  69.9236230  40.6976900  97.1218840
  69.1771690  39.5607450  97.7867460  52.6621660  38.6518180 101.2466810
  52.0070500  38.3829820 100.6026510  53.4999610  38.5422660 100.7968790
  70.1677290  40.9830350 101.8601080  70.5386120  40.1997670 101.4537050
  70.8079220  41.6719450 101.6818380  67.1511050  42.3666930 107.2731400
  66.3370890  42.7964090 107.5357190  67.5585250  42.9785340 106.6600450
  69.2136490  40.4214620  94.1731670  69.4885330  41.3293500  94.0450890
  69.0247230  40.3577150  95.1093660  65.6112100  33.4459470  95.4685300
  66.0296980  33.2590450  94.6281960  65.3048160  32.5938520  95.7788230
  69.1101830  38.3583610  99.1661100  68.7345430  37.5911540  98.7342390
  68.3804950  38.7406310  99.6536030  53.6997590  39.0370750 105.7870150
  54.0670630  38.9498150 106.6666170  53.1308410  38.2737300 105.6877010
  68.5001450  37.5055130 108.8000620  68.2687540  37.2767880 107.8998570
  68.7606000  38.4254680 108.7545510  53.2513590  35.9479840 109.6928570
  52.3569640  35.9146600 110.0322280  53.7911140  36.1466630 110.4579820
  51.8759740  35.8617110  97.1892140  50.9723820  36.1247310  97.0143800
  52.3600360  36.1328280  96.4092100  68.3852790  36.5841100 102.4668340
  68.9090270  36.0903750 101.8358510  68.9712210  36.7191460 103.2115910
  68.5642510  36.6680970 105.9887890  67.6145220  36.6344510 106.1032880
  68.7455520  37.5781080 105.7537660  67.8752760  35.8414450  98.4060750
  68.3711880  35.6085320  99.1909630  67.6768830  35.0026290  97.9898390
  53.7553300  30.2228170 104.0411790  54.4029490  29.6725550 103.6006950
  54.1755140  30.4771320 104.8627600  69.3039920  34.4775400 100.9398430
  69.1939200  34.3231440 101.8780700  70.0647510  33.9496340 100.6973840
  67.6505640  30.4169530 107.3981430  68.2877860  31.0303670 107.7640620
  67.7980530  30.4530190 106.4530660  70.1930190  32.3083320  94.1804570
  71.1179500  32.1764500  93.9722860  70.1705980  32.3876140  95.1341020
  70.2668680  33.0793980  96.8061280  69.4720180  33.0139100  97.3354190
  70.4711960  34.0144620  96.7946630  67.2087100  47.1185530 100.7999670
  67.8046170  46.7970100 100.1234090  67.4665250  46.6457350 101.5912940
  53.5085300  30.3783840 106.7837110  53.1600120  30.8347660 107.5495290
  53.1773000  29.4840970 106.8659540  58.8155700  45.1063030 106.5500020
  58.5747060  45.3737590 105.6630540  59.7558340  45.2768760 106.6050880
  63.6584680  31.2265780 109.9448820  64.2725090  31.5445070 109.2829900
  64.2034240  30.7414370 110.5644680  70.0759860  47.1257410 107.3510660
  69.5818140  47.5226280 106.6337790  69.4673150  46.5006620 107.7447940
  54.1805940  29.9060040 110.0587880  54.7288930  29.7248090 109.2953990
  54.2461250  29.1154150 110.5944190  54.9537700  46.4965690 108.0688080
  54.3598020  46.3650390 108.8078120  54.9461540  45.6603830 107.6030180
  64.3992720  29.7897920 106.2718110  63.5252560  30.1233030 106.0691040
  64.2903470  29.3171100 107.0969980  65.3064700  31.9968790 107.6559830
  64.9778060  31.1820550 107.2761560  66.2547000  31.9538600 107.5325520
  67.7599310  47.7680830 104.6297400  67.3002280  48.5196640 104.2555420
  67.1311770  47.0487300 104.5712200  54.5849930  43.8624070 107.0196120
  53.8583990  43.2429360 106.9522070  54.6459080  44.2564680 106.1494200
  58.1895030  46.0769070 103.8045530  58.7060050  45.4656430 103.2793790
  58.8392410  46.5797850 104.2956540  60.9290530  46.9677560 104.6314510
  61.2168340  46.7131860 103.7547520  61.4413750  46.4154920 105.2220080
  62.1467540  30.7067760 105.2111020  61.3639330  31.1813260 105.4907780
  61.8530470  29.8022590 105.1024200  66.6988610  31.4090860 103.2560110
  67.1396700  31.3535960 102.4081710  66.4296200  32.3248870 103.3270290
  68.5627180  31.0406100 101.2668930  68.5015580  30.0967320 101.1199950
  69.3419210  31.1486190 101.8122390  52.8679930  47.1798460 100.2292880
  52.7001970  46.5469140 100.9274770  52.0014440  47.3857860  99.8787070
  53.4907950  31.0115240  97.7324740  54.2487310  31.1244120  97.1588770
  53.0285120  31.8484440  97.6868170  60.0321760  33.1254510 100.7227050
  59.2196270  32.7511400 100.3822930  60.5363400  32.3699590 101.0248240
  64.5346740  29.7896960 101.9610120  65.1376110  30.3617170 102.4358640
  63.7939730  30.3536400 101.7384020  67.6781340  30.1918520  97.2350400
  67.8731970  31.0901970  97.5017830  66.8911210  29.9605600  97.7283350
  54.4742630  45.8731690  97.6743020  53.9490250  46.2539720  96.9704980
  54.3987210  46.4982460  98.3952730  58.0570940  31.2754430  99.3272100
  57.4273680  30.5741740  99.4942230  57.5176080  32.0358560  99.1105260
  69.2307950  47.4319230  98.9956960  69.4060140  46.7456970  98.3517880
  68.5329520  47.9566280  98.6033630  57.0735600  47.8214070  96.5492270
  57.8054420  47.5373350  96.0016160  57.3329270  47.5827350  97.4391650
  56.2350390  43.9378800  96.5538600  55.6059270  44.4063900  97.1024430
  56.3498220  43.0928020  96.9884790  61.8218150  39.7663480  84.5849070
  61.0460250  39.2863920  84.8747640  62.4731080  39.0869130  84.4105230
  55.8185240  44.1123380  85.6582850  56.1213280  43.2221120  85.4793070
  56.5628830  44.6693600  85.4305100  54.2475930  35.0385180  79.2467220
  53.3592630  35.3801150  79.1447100  54.5317120  34.8385500  78.3548050
  61.2627140  42.4420670  84.5919230  61.1935420  41.5010610  84.4308360
  62.0247000  42.5322080  85.1641800  58.2645050  36.5903050  84.6130780
  58.7723270  37.0884020  85.2535800  58.7958290  35.8138250  84.4370140
  70.3655980  34.7608240  88.3160130  69.6608150  35.1489950  87.7975240
  70.6313900  35.4558530  88.9181060  57.7984000  40.8696790  87.0567700
  57.4653380  41.4965710  87.6988770  57.9750680  41.3958670  86.2769370
  57.0103100  42.8377590  88.8716880  57.6277100  43.5128670  88.5901330
  56.1496220  43.2465570  88.7804380  67.9280690  44.3017000  86.7871520
  67.2444210  44.9716110  86.7788190  68.4674980  44.4997650  86.0216380
  69.3804830  34.1296660  84.9153250  68.4329740  34.1635640  85.0468680
  69.7054820  34.9435610  85.3002610  64.8624870  41.0490970  86.8299310
  65.2793660  40.8351080  85.9952770  65.5864690  41.3063760  87.4007930
  68.8086970  39.4478190  86.9215550  67.9805600  39.5171280  86.4465680
  69.4037450  40.0332500  86.4531380  58.3743470  42.7074970  84.8928300
  58.0771760  42.1020440  84.2136080  59.3243290  42.7452280  84.7817660
  66.4629080  46.2806840  88.5551400  65.9859640  47.0879030  88.3624010
  65.7790870  45.6285170  88.7077610  57.4661900  42.4456660  91.5436100
  56.5690430  42.6696630  91.7909500  57.4914770  42.5691600  90.5947500
  56.2933120  39.3169980  90.1193470  56.1540890  40.1892780  90.4880870
  55.4114480  38.9742790  89.9741410  58.0913470  45.2591680  92.3278620
  58.0628900  45.6634630  91.4607050  57.9278440  44.3302040  92.1650220
  70.0428290  46.0418780  93.6242790  70.5188010  46.5201670  94.3031870
  70.6635450  45.9736270  92.8988290  52.2451770  41.0867530  86.0364380
  52.3232190  41.2216300  85.0920100  52.8593450  40.3783420  86.2292500
  53.4899400  42.7867720  82.4470560  53.0827480  42.9282310  81.5924160
  54.3812410  42.5027880  82.2441770  69.4461540  43.2331630  90.7842800
  69.5724600  42.9943510  89.8659980  69.4882920  42.4016170  91.2564880
  63.3078280  46.9359630  89.3537610  63.8222950  46.8467640  90.1560040
  62.4647360  47.2819330  89.6465520  69.2985550  35.2864090  91.7492540
  68.6829820  35.7943760  91.2208000  68.9781970  34.3862420  91.6918480
  52.3011290  42.1281700  88.5758840  52.4642330  41.6587060  87.7578210
  52.7663740  41.6205260  89.2407680  66.3604380  35.3464930  90.3451390
  65.5097970  35.0470680  90.6660460  66.2006170  35.5906940  89.4335210
  63.4554090  36.8466680  92.4450180  63.7807500  36.0130430  92.1052410
  64.2434420  37.3695200  92.5928510  53.8750270  41.5033130  90.7354650
  53.4905060  40.8626800  91.3337610  54.1862460  42.2069250  91.3049380
  60.0247410  38.3509670  86.2163270  60.3917540  37.8768240  86.9624610
  59.8352470  39.2251240  86.5571610  57.8146780  37.3918310  88.5347480
  57.5103850  38.2710290  88.7597840  58.7693240  37.4518100  88.5704920
  62.4835350  40.6653720  90.8109720  62.4172660  39.7449390  90.5567310
  61.8540490  40.7629160  91.5254360  57.0723630  38.6905290  92.5658390
  56.7723770  38.8362470  91.6686210  57.8434870  38.1310580  92.4731780
  62.4152080  43.4874290  90.5613520  62.4296620  42.5555250  90.3432430
  61.7077180  43.5734050  91.2003290  68.6263290  40.1281630  89.9082100
  67.9011480  40.7210410  89.7111490  69.1538750  40.1205170  89.1095470
  61.8485980  45.1291860  87.6554020  62.4928200  45.3351240  88.3327440
  62.2115420  44.3680260  87.2024870  63.1218060  43.1324210  86.3731470
  63.7640290  42.4317370  86.4863640  63.6467410  43.9122650  86.1928360
  64.8955680  43.9319110  89.5767530  65.2311920  44.5185800  90.2545450
  63.9756020  43.8011820  89.8065320  52.7489810  47.4439690  76.8715070
  53.1087450  48.0429030  76.2172340  52.6082150  47.9899580  77.6450100
  52.7331670  45.7094550  91.3457470  52.8422790  44.7689290  91.2052860
  52.0812230  45.9749300  90.6971200  60.7244260  43.9810440  92.7455590
  60.4041130  43.2619680  93.2901280  60.0502620  44.6565510  92.8191650
  68.1066710  33.0844150  89.1758750  67.6040310  33.8249550  89.5152560
  68.9223370  33.4728150  88.8595540  55.8731830  47.5917390  83.9691500
  56.6094310  47.0432850  84.2400070  56.2572750  48.4573400  83.8297490
  52.7577310  43.6590960  79.8433010  51.8317090  43.9012100  79.8338420
  53.2233740  44.4865220  79.7217760  54.8790110  46.7763460  93.1577080
  55.6802840  47.0975510  93.5712480  54.3641930  46.4159040  93.8796990
  63.7154740  42.8843330  93.1052490  63.1092900  42.9074930  92.3648240
  63.4108850  42.1526370  93.6419740  65.1455110  46.6123620  91.7161900
  66.0976860  46.5281640  91.6662140  64.9983330  47.2765330  92.3895690
  52.5987920  39.2636920  92.1013130  53.1026940  38.6844200  92.6729360
  51.8595340  39.5477150  92.6389500  59.6525860  40.6707910  91.6348650
  58.8871530  41.2392910  91.5503320  59.8341820  40.3784120  90.7416880
  66.7949210  42.4013240  92.1923670  67.5358680  42.7389000  91.6891130
  66.0321890  42.5705300  91.6393440  65.4694870  40.4528070  90.7278880
  65.8835890  40.6073150  91.5769300  64.5345870  40.5783290  90.8904660
  65.9417040  37.7924230  92.7318030  66.5237810  37.0376550  92.6438510
  66.1178810  38.3231670  91.9549510  60.2310100  40.4048550  88.6974810
  60.6498210  41.2481280  88.5251050  59.3118730  40.5420590  88.4681590
  62.5674000  38.1364730  90.0812650  62.6870210  37.5405870  90.8207490
  63.4268000  38.1734420  89.6613950  64.9061900  38.6901920  88.6575160
  64.3797120  39.2144540  88.0540300  65.2493240  39.3229310  89.2884890
  58.0817520  46.7101560  89.8132540  57.5438610  47.4347620  89.4941240
  58.3351480  46.2331900  89.0229880  60.9379730  47.9452770  90.0719190
  60.8638430  48.8487910  90.3791560  60.0358570  47.6264670  90.0441260
  52.3407020  45.2727360  83.3752810  52.6710030  44.4048420  83.1431450
  52.7698020  45.4785880  84.2057770  56.9368940  43.6036370  81.0354780
  56.6364480  43.4801340  81.9358690  56.8306430  42.7444960  80.6270510
  52.8297230  46.1397950  86.1134440  52.3928220  46.3198750  86.9458590
  53.3974910  46.8972570  85.9716160  68.4659410  45.6414950  90.4011750
  67.8661400  45.7007510  89.6575670  68.5953310  44.7019930  90.5308600
  67.1511050  42.3666930  88.4987910  66.3370890  42.7964090  88.7613700
  67.5585250  42.9785340  87.8856960  68.5001450  37.5055130  90.0257130
  68.2687540  37.2767880  89.1255080  68.7606000  38.4254680  89.9802020
  66.9389520  32.7311560  92.8036830  67.8159700  32.7394960  93.1870830
  66.9510360  31.9942400  92.1929180  68.3852790  36.5841100  83.6924850
  68.9090270  36.0903750  83.0615020  68.9712210  36.7191460  84.4372420
  68.5642510  36.6680970  87.2144400  67.6145220  36.6344510  87.3289390
  68.7455520  37.5781080  86.9794170  55.1149670  43.5503440  92.1746810
  55.0719300  43.1796350  93.0561270  55.2460680  44.4881010  92.3148630
  58.8155700  45.1063030  87.7756530  58.5747060  45.3737590  86.8887050
  59.7558340  45.2768760  87.8307390  70.0759860  47.1257410  88.5767170
  69.5818140  47.5226280  87.8594300  69.4673150  46.5006620  88.9704450
  54.9537700  46.4965690  89.2944590  54.3598020  46.3650390  90.0334630
  54.9461540  45.6603830  88.8286690  67.7599310  47.7680830  85.8553910
  67.3002280  48.5196640  85.4811930  67.1311770  47.0487300  85.7968710
  54.5849930  43.8624070  88.2452630  53.8583990  43.2429360  88.1778580
  54.6459080  44.2564680  87.3750710  58.1895030  46.0769070  85.0302040
  58.7060050  45.4656430  84.5050300  58.8392410  46.5797850  85.5213050
  52.8679930  47.1798460  81.4549390  52.7001970  46.5469140  82.1531280
  52.0014440  47.3857860  81.1043580  53.4907950  31.0115240  78.9581250
  54.2487310  31.1244120  78.3845280  53.0285120  31.8484440  78.9124680
  54.4742630  45.8731690  78.8999530  53.9490250  46.2539720  78.1961490
  54.3987210  46.4982460  79.6209240  60.9962890  47.8893660  93.2239220
  61.9230200  47.6537930  93.2675180  60.9813320  48.7165660  92.7425250
  57.0735600  47.8214070  77.7748780  57.8054420  47.5373350  77.2272670
  57.3329270  47.5827350  78.6648160  56.2350390  43.9378800  77.7795110
  55.6059270  44.4063900  78.3280940  56.3498220  43.0928020  78.2141300
  67.5640450  47.1163520  93.0480260  68.3565770  46.6212750  92.8406220
  67.8573600  47.7953660  93.6555870  63.6900110  37.9884460  63.9296310
  63.6094160  37.0739070  63.6588020  63.2764530  38.4851530  63.2236020
  55.8383980  40.0783290  66.6881340  55.0068860  39.8232000  67.0877850
  56.4464960  40.1494060  67.4239260  55.8185240  44.1123380  66.8839360
  56.1213280  43.2221120  66.7049580  56.5628830  44.6693600  66.6561610
  52.2108940  37.6390830  66.3563430  52.7825050  36.8713030  66.3567070
  52.2110480  37.9379590  65.4470040  62.0688890  46.4581680  64.2108700
  61.4500330  46.9139180  63.6403140  62.9240670  46.6133140  63.8098400
  53.4533810  33.0475190  68.1432360  53.2736650  32.1500940  68.4235120
  53.0513890  33.5947060  68.8179310  66.0756430  32.7441490  62.9773010
  66.8966050  32.2538060  63.0198490  66.1090510  33.3339150  63.7304850
  54.0720480  35.5435690  66.7514700  54.7530590  35.8074060  67.3702100
  53.7568530  34.7036560  67.0852710  58.2645050  36.5903050  65.8387290
  58.7723270  37.0884020  66.4792310  58.7958290  35.8138250  65.6626650
  62.9352240  41.3420920  61.6040610  62.3169510  41.8070370  61.0403330
  63.4475490  42.0348400  62.0210120  57.7984000  40.8696790  68.2824210
  57.4653380  41.4965710  68.9245280  57.9750680  41.3958670  67.5025880
  56.2296480  32.9411570  68.1121160  56.5713290  33.7853620  67.8175030
  55.2912290  33.0895310  68.2286500  57.0103100  42.8377590  70.0973390
  57.6277100  43.5128670  69.8157840  56.1496220  43.2465570  70.0060890
  52.3035440  42.0277450  58.9780240  51.9263420  42.5164550  58.2465140
  52.5608510  42.7002730  59.6086770  69.3804830  34.1296660  66.1409760
  68.4329740  34.1635640  66.2725190  69.7054820  34.9435610  66.5259120
  66.7584850  42.8677350  61.8163380  66.6481180  41.9251680  61.9412800
  66.7553100  43.2292990  62.7026140  66.3302420  40.0562970  61.6761120
  65.7114840  39.7182520  61.0287420  66.3126870  39.4122730  62.3840310
  58.3743470  42.7074970  66.1184810  58.0771760  42.1020440  65.4392590
  59.3243290  42.7452280  66.0074170  56.6190390  35.7950620  67.7344640
  57.1704980  35.9045960  66.9597890  57.1333900  36.1688220  68.4499870
  62.6162500  44.2345850  62.6515110  63.0558410  44.9770180  62.2370500
  62.5549390  44.4772420  63.5754070  58.0913470  45.2591680  73.5535130
  58.0628900  45.6634630  72.6863560  57.9278440  44.3302040  73.3906730
  68.0884260  30.5492590  56.9974910  67.7756920  30.6419420  57.8973980
  68.8496730  31.1273620  56.9472340  52.2451770  41.0867530  67.2620890
  52.3232190  41.2216300  66.3176610  52.8593450  40.3783420  67.4549010
  53.4899400  42.7867720  63.6727070  53.0827480  42.9282310  62.8180670
  54.3812410  42.5027880  63.4698280  57.7621060  47.0013500  61.7849740
  57.5863540  46.0849040  61.5717540  56.9076800  47.3600790  62.0247540
  64.9858810  44.7302530  58.5676120  64.2923970  44.7279820  57.9078400
  65.7281670  44.3061850  58.1370290  64.5508740  46.3565240  62.6424610
  65.0065690  45.5754620  62.9563230  64.8901260  47.0672060  63.1865790
  57.0730060  31.2587460  64.8375920  56.6298210  32.0397000  64.5060440
  57.6315050  31.5817350  65.5446860  59.1105960  31.8034790  66.6965520
  59.4078290  32.7097620  66.6157540  59.6591520  31.3153570  66.0825090
  62.7006910  35.0247940  63.1951100  63.0936480  35.3420140  62.3819790
  63.0623760  34.1459820  63.3095620  59.7239440  34.2907890  65.6954370
  59.7275500  33.8497840  64.8458910  60.6190560  34.6125220  65.8026190
  55.5741820  34.1734380  64.6548580  55.2341870  34.6509610  65.4115630
  54.8119140  33.7199500  64.2949680  60.0247410  38.3509670  67.4419780
  60.3917540  37.8768240  68.1881120  59.8352470  39.2251240  67.7828120
  56.3428570  41.5979300  60.3570840  55.5690830  41.0576920  60.1969560
  57.0723200  41.0785910  60.0188600  56.3865970  41.2659680  63.9949650
  56.9044640  40.4627940  63.9406540  55.9349990  41.2038820  64.8366480
  61.2735470  42.5325960  59.2676950  61.6151170  43.2768190  58.7720270
  60.4448180  42.8457080  59.6301780  68.5776400  44.5256370  60.7850770
  67.9352560  43.8711990  61.0594490  68.1907060  44.9311460  60.0091440
  60.2426160  42.6139490  62.0392870  60.9297290  43.1608700  62.4200460
  59.4558580  43.1580220  62.0742480  52.7489810  47.4439690  58.0971580
  53.1087450  48.0429030  57.4428850  52.6082150  47.9899580  58.8706610
  52.7331670  45.7094550  72.5713980  52.8422790  44.7689290  72.4309370
  52.0812230  45.9749300  71.9227710  54.3665070  40.0485780  59.6592010
  53.7593020  40.7884680  59.6687310  54.8414420  40.1385140  58.8330210
  67.3059890  33.1693540  60.1436460  66.6773050  33.2739210  59.4294690
  66.8111810  33.3890320  60.9330340  61.7518030  44.8899130  57.5770440
  61.8530010  44.6863120  56.6472420  60.8519770  44.6357410  57.7818220
  60.3936140  47.4085450  62.2718110  60.6477640  47.3706840  61.3497480
  59.4448620  47.2818780  62.2646360  66.3988720  38.3277330  63.8476620
  65.4578860  38.3427560  64.0224310  66.7132790  37.5413290  64.2936920
  68.4014300  45.4986180  65.5230880  68.5261720  46.3217350  65.9954690
  69.2679860  45.2876910  65.1755030  55.8731830  47.5917390  65.1948010
  56.6094310  47.0432850  65.4656580  56.2572750  48.4573400  65.0554000
  52.7577310  43.6590960  61.0689520  51.8317090  43.9012100  61.0594930
  53.2233740  44.4865220  60.9474270  54.8790110  46.7763460  74.3833590
  55.6802840  47.0975510  74.7968990  54.3641930  46.4159040  75.1053500
  59.8250550  31.5094220  69.3018880  59.3767850  31.5318480  68.4564430
  59.1915750  31.1113240  69.8989180  60.2310100  40.4048550  69.9231320
  60.6498210  41.2481280  69.7507560  59.3118730  40.5420590  69.6938100
  58.0817520  46.7101560  71.0389050  57.5438610  47.4347620  70.7197750
  58.3351480  46.2331900  70.2486390  60.9379730  47.9452770  71.2975700
  60.8638430  48.8487910  71.6048070  60.0358570  47.6264670  71.2697770
  55.1261220  42.4838330  57.1489060  55.5636090  43.0268000  57.8046640
  55.6108950  41.6585280  57.1585400  52.3407020  45.2727360  64.6009320
  52.6710030  44.4048420  64.3687960  52.7698020  45.4785880  65.4314280
  56.9368940  43.6036370  62.2611290  56.6364480  43.4801340  63.1615200
  56.8306430  42.7444960  61.8527020  52.8297230  46.1397950  67.3390950
  52.3928220  46.3198750  68.1715100  53.3974910  46.8972570  67.1972670
  52.6621660  38.6518180  63.6979830  52.0070500  38.3829820  63.0539530
  53.4999610  38.5422660  63.2481810  70.1677290  40.9830350  64.3114100
  70.5386120  40.1997670  63.9050070  70.8079220  41.6719450  64.1331400
  53.6997590  39.0370750  68.2383170  54.0670630  38.9498150  69.1179190
  53.1308410  38.2737300  68.1390030  53.7553300  30.2228170  66.4924810
  54.4029490  29.6725550  66.0519970  54.1755140  30.4771320  67.3140620
  69.3039920  34.4775400  63.3911450  69.1939200  34.3231440  64.3293720
  70.0647510  33.9496340  63.1486860  67.2087100  47.1185530  63.2512690
  67.8046170  46.7970100  62.5747110  67.4665250  46.6457350  64.0425960
  53.5085300  30.3783840  69.2350130  53.1600120  30.8347660  70.0008310
  53.1773000  29.4840970  69.3172560  55.1149670  43.5503440  73.4003320
  55.0719300  43.1796350  74.2817780  55.2460680  44.4881010  73.5405140
  58.8155700  45.1063030  69.0013040  58.5747060  45.3737590  68.1143560
  59.7558340  45.2768760  69.0563900  54.1805940  29.9060040  72.5100900
  54.7288930  29.7248090  71.7467010  54.2461250  29.1154150  73.0457210
  54.9537700  46.4965690  70.5201100  54.3598020  46.3650390  71.2591140
  54.9461540  45.6603830  70.0543200  54.5849930  43.8624070  69.4709140
  53.8583990  43.2429360  69.4035090  54.6459080  44.2564680  68.6007220
  58.1895030  46.0769070  66.2558550  58.7060050  45.4656430  65.7306810
  58.8392410  46.5797850  66.7469560  60.9290530  46.9677560  67.0827530
  61.2168340  46.7131860  66.2060540  61.4413750  46.4154920  67.6733100
  62.1467540  30.7067760  67.6624040  61.3639330  31.1813260  67.9420800
  61.8530470  29.8022590  67.5537220  68.5627180  31.0406100  63.7181950
  68.5015580  30.0967320  63.5712970  69.3419210  31.1486190  64.2635410
  52.8679930  47.1798460  62.6805900  52.7001970  46.5469140  63.3787790
  52.0014440  47.3857860  62.3300090  54.4742630  45.8731690  60.1256040
  53.9490250  46.2539720  59.4218000  54.3987210  46.4982460  60.8465750
  60.9962890  47.8893660  74.4495730  61.9230200  47.6537930  74.4931690
  60.9813320  48.7165660  73.9681760  56.2350390  43.9378800  59.0051620
  55.6059270  44.4063900  59.5537450  56.3498220  43.0928020  59.4397810
  55.8185240  44.1123380  48.1095870  56.1213280  43.2221120  47.9306090
  56.5628830  44.6693600  47.8818120  54.2475930  35.0385180  41.6980240
  53.3592630  35.3801150  41.5960120  54.5317120  34.8385500  40.8061070
  52.2108940  37.6390830  47.5819940  52.7825050  36.8713030  47.5823580
  52.2110480  37.9379590  46.6726550  57.0103100  42.8377590  51.3229900
  57.6277100  43.5128670  51.0414350  56.1496220  43.2465570  51.2317400
  52.3035440  42.0277450  40.2036750  51.9263420  42.5164550  39.4721650
  52.5608510  42.7002730  40.8343280  57.4661900  42.4456660  53.9949120
  56.5690430  42.6696630  54.2422520  57.4914770  42.5691600  53.0460520
  52.2451770  41.0867530  48.4877400  52.3232190  41.2216300  47.5433120
  52.8593450  40.3783420  48.6805520  53.4899400  42.7867720  44.8983580
  53.0827480  42.9282310  44.0437180  54.3812410  42.5027880  44.6954790
  65.2832680  47.2214970  41.2334630  65.1233820  46.9317910  42.1316460
  65.1179390  46.4455100  40.6979860  52.3011290  42.1281700  51.0271860
  52.4642330  41.6587060  50.2091230  52.7663740  41.6205260  51.6920700
  51.9241310  35.5568860  37.8540530  51.8415980  36.4999620  37.9955520
  51.5724370  35.4143770  36.9752880  53.8750270  41.5033130  53.1867670
  53.4905060  40.8626800  53.7850630  54.1862460  42.2069250  53.7562400
  52.3818560  38.2312310  38.7566460  53.2513410  38.5137110  39.0402380
  51.8908880  39.0448180  38.6415270  66.9673780  43.4172830  38.5483630
  66.7411360  42.7003270  39.1408270  66.5769980  43.1685270  37.7105380
  52.7489810  47.4439690  39.3228090  53.1087450  48.0429030  38.6685360
  52.6082150  47.9899580  40.0963120  66.5490030  41.3344770  40.2097790
  66.2611730  41.7957460  40.9975670  67.3442200  40.8742540  40.4782010
  52.7331670  45.7094550  53.7970490  52.8422790  44.7689290  53.6565880
  52.0812230  45.9749300  53.1484220  60.7244260  43.9810440  55.1968610
  60.4041130  43.2619680  55.7414300  60.0502620  44.6565510  55.2704670
  54.3665070  40.0485780  40.8848520  53.7593020  40.7884680  40.8943820
  54.8414420  40.1385140  40.0586720  56.3770360  40.0096930  38.6337090
  57.1433630  39.8978290  39.1962520  56.4545050  39.3134900  37.9813860
  55.0717120  37.4422000  39.3169980  55.1520710  36.4949510  39.4287380
  55.9636870  37.7728880  39.4230640  55.8731830  47.5917390  46.4204520
  56.6094310  47.0432850  46.6913090  56.2572750  48.4573400  46.2810510
  52.7577310  43.6590960  42.2946030  51.8317090  43.9012100  42.2851440
  53.2233740  44.4865220  42.1730780  68.0364310  45.9917830  39.6666830
  67.7505820  45.5782970  38.8521010  67.8383860  46.9205540  39.5467350
  59.5011540  41.9851110  38.1072440  59.3962180  41.3703460  38.8333820
  59.3335760  41.4617000  37.3235450  62.7414270  41.0471140  38.7114430
  62.1924370  41.4940440  39.3557170  63.3633530  40.5420390  39.2352100
  58.4089390  40.0062060  40.6079730  58.8305810  39.8401930  41.4511120
  58.5340230  39.1962290  40.1134870  60.9217030  39.0299670  37.8556830
  61.4422690  38.3148690  37.4897980  61.5685430  39.6685540  38.1557340
  57.3048290  36.0795290  37.5537890  57.1037350  35.2162650  37.9151230
  57.1340340  35.9928650  36.6159490  58.0817520  46.7101560  52.2645560
  57.5438610  47.4347620  51.9454260  58.3351480  46.2331900  51.4742900
  56.1031090  33.1795910  37.5415770  56.4056990  33.1863340  36.6334920
  56.8425680  32.8293770  38.0383430  60.9379730  47.9452770  52.5232210
  60.8638430  48.8487910  52.8304580  60.0358570  47.6264670  52.4954280
  55.1261220  42.4838330  38.3745570  55.5636090  43.0268000  39.0303150
  55.6108950  41.6585280  38.3841910  52.3407020  45.2727360  45.8265830
  52.6710030  44.4048420  45.5944470  52.7698020  45.4785880  46.6570790
  52.8297230  46.1397950  48.5647460  52.3928220  46.3198750  49.3971610
  53.3974910  46.8972570  48.4229180  69.7060860  43.3832770  38.1894480
  68.8753820  43.4509420  38.6601710  69.8832690  44.2736890  37.8861340
  69.2136490  40.4214620  37.8501200  69.4885330  41.3293500  37.7220420
  69.0247230  40.3577150  38.7863190  51.8759740  35.8617110  40.8661670
  50.9723820  36.1247310  40.6913330  52.3600360  36.1328280  40.0861630
  54.4186950  34.9182650  38.7756050  55.1278650  34.4965870  38.2903330
  53.7026890  34.9857880  38.1439400  54.0661110  30.9721980  37.8158700
  54.7889240  31.5130920  38.1339920  54.3385630  30.6985400  36.9400240
  55.1149670  43.5503440  54.6259830  55.0719300  43.1796350  55.5074290
  55.2460680  44.4881010  54.7661650  54.9537700  46.4965690  51.7457610
  54.3598020  46.3650390  52.4847650  54.9461540  45.6603830  51.2799710
  54.5849930  43.8624070  50.6965650  53.8583990  43.2429360  50.6291600
  54.6459080  44.2564680  49.8263730  58.1895030  46.0769070  47.4815060
  58.7060050  45.4656430  46.9563320  58.8392410  46.5797850  47.9726070
  52.8679930  47.1798460  43.9062410  52.7001970  46.5469140  44.6044300
  52.0014440  47.3857860  43.5556600  67.6781340  30.1918520  40.9119930
  67.8731970  31.0901970  41.1787360  66.8911210  29.9605600  41.4052880
  54.4742630  45.8731690  41.3512550  53.9490250  46.2539720  40.6474510
  54.3987210  46.4982460  42.0722260  63.6900110  37.9884460  26.3809330
  63.6094160  37.0739070  26.1101040  63.2764530  38.4851530  25.6749040
  61.8218150  39.7663480  28.2618600  61.0460250  39.2863920  28.5517170
  62.4731080  39.0869130  28.0874760  55.8383980  40.0783290  29.1394360
  55.0068860  39.8232000  29.5390870  56.4464960  40.1494060  29.8752280
  65.8425580  44.1723670  27.0417730  65.3807110  43.4010910  27.3704900
  66.6551130  44.1989740  27.5470180  55.8185240  44.1123380  29.3352380
  56.1213280  43.2221120  29.1562600  56.5628830  44.6693600  29.1074630
  54.2475930  35.0385180  22.9236750  53.3592630  35.3801150  22.8216630
  54.5317120  34.8385500  22.0317580  52.2108940  37.6390830  28.8076450
  52.7825050  36.8713030  28.8080090  52.2110480  37.9379590  27.8983060
  62.0688890  46.4581680  26.6621720  61.4500330  46.9139180  26.0916160
  62.9240670  46.6133140  26.2611420  61.2627140  42.4420670  28.2688760
  61.1935420  41.5010610  28.1077890  62.0247000  42.5322080  28.8411330
  53.4533810  33.0475190  30.5945380  53.2736650  32.1500940  30.8748140
  53.0513890  33.5947060  31.2692330  62.2932310  35.2491050  28.4957690
  62.6697130  34.3762930  28.3831360  62.1951820  35.5849750  27.6048130
  56.4237320  33.6216680  23.9575130  56.5304070  34.5220410  24.2643890
  55.5129680  33.5734650  23.6669780  66.0756430  32.7441490  25.4286030
  66.8966050  32.2538060  25.4711510  66.1090510  33.3339150  26.1817870
  54.0720480  35.5435690  29.2027720  54.7530590  35.8074060  29.8215120
  53.7568530  34.7036560  29.5365730  58.2645050  36.5903050  28.2900310
  58.7723270  37.0884020  28.9305330  58.7958290  35.8138250  28.1139670
  70.3655980  34.7608240  31.9929660  69.6608150  35.1489950  31.4744770
  70.6313900  35.4558530  32.5950590  56.5481150  31.2301610  32.5563730
  56.5499590  31.7474000  31.7509630  55.7185460  30.7531790  32.5333660
  62.9352240  41.3420920  24.0553630  62.3169510  41.8070370  23.4916350
  63.4475490  42.0348400  24.4723140  57.7984000  40.8696790  30.7337230
  57.4653380  41.4965710  31.3758300  57.9750680  41.3958670  29.9538900
  66.3117910  34.6841870  28.2013570  65.6073480  34.9726760  28.7816680
  66.6730070  35.4941980  27.8413130  56.2296480  32.9411570  30.5634180
  56.5713290  33.7853620  30.2688050  55.2912290  33.0895310  30.6799520
  57.0103100  42.8377590  32.5486410  57.6277100  43.5128670  32.2670860
  56.1496220  43.2465570  32.4573910  52.3035440  42.0277450  21.4293260
  51.9263420  42.5164550  20.6978160  52.5608510  42.7002730  22.0599790
  67.9280690  44.3017000  30.4641050  67.2444210  44.9716110  30.4557720
  68.4674980  44.4997650  29.6985910  69.3804830  34.1296660  28.5922780
  68.4329740  34.1635640  28.7238210  69.7054820  34.9435610  28.9772140
  59.9124370  30.4293840  26.8878770  60.2199350  29.8740730  26.1714270
  58.9825070  30.5638300  26.7051760  65.4639430  46.1461130  29.1786230
  65.4766590  45.7423420  28.3108490  64.9114650  46.9208420  29.0747660
  66.7584850  42.8677350  24.2676400  66.6481180  41.9251680  24.3925820
  66.7553100  43.2292990  25.1539160  64.8624870  41.0490970  30.5068840
  65.2793660  40.8351080  29.6722300  65.5864690  41.3063760  31.0777460
  62.3005130  38.4942670  23.6238890  61.3734410  38.4280050  23.8527360
  62.4529950  39.4322800  23.5094130  62.2874210  34.7659670  20.6206050
  61.3477880  34.9273630  20.7058510  62.6057470  35.4845350  20.0742040
  68.8086970  39.4478190  30.5985080  67.9805600  39.5171280  30.1235210
  69.4037450  40.0332500  30.1300910  66.3302420  40.0562970  24.1274140
  65.7114840  39.7182520  23.4800440  66.3126870  39.4122730  24.8353330
  65.7728980  36.2347510  31.5439950  65.3600160  37.0601220  31.7979940
  65.0404930  35.6492550  31.3516310  57.9061770  39.0207410  26.4058620
  57.5018770  38.3084660  25.9104520  57.9924890  38.6760650  27.2946660
  58.3743470  42.7074970  28.5697830  58.0771760  42.1020440  27.8905610
  59.3243290  42.7452280  28.4587190  56.6190390  35.7950620  30.1857660
  57.1704980  35.9045960  29.4110910  57.1333900  36.1688220  30.9012890
  66.4629080  46.2806840  32.2320930  65.9859640  47.0879030  32.0393540
  65.7790870  45.6285170  32.3847140  57.4661900  42.4456660  35.2205630
  56.5690430  42.6696630  35.4679030  57.4914770  42.5691600  34.2717030
  64.5067120  39.2949780  21.1346890  64.9460400  38.4572210  20.9884710
  65.2195540  39.9279180  21.2211030  56.2933120  39.3169980  33.7963000
  56.1540890  40.1892780  34.1650400  55.4114480  38.9742790  33.6510940
  62.6162500  44.2345850  25.1028130  63.0558410  44.9770180  24.6883520
  62.5549390  44.4772420  26.0267090  58.0913470  45.2591680  36.0048150
  58.0628900  45.6634630  35.1376580  57.9278440  44.3302040  35.8419750
  68.0884260  30.5492590  19.4487930  67.7756920  30.6419420  20.3487000
  68.8496730  31.1273620  19.3985360  54.6066400  37.9152390  23.9065270
  54.4864000  38.6414480  23.2946540  54.2967290  37.1455300  23.4293180
  70.0428290  46.0418780  37.3012320  70.5188010  46.5201670  37.9801400
  70.6635450  45.9736270  36.5757820  52.2451770  41.0867530  29.7133910
  52.3232190  41.2216300  28.7689630  52.8593450  40.3783420  29.9062030
  53.4899400  42.7867720  26.1240090  53.0827480  42.9282310  25.2693690
  54.3812410  42.5027880  25.9211300  69.4461540  43.2331630  34.4612330
  69.5724600  42.9943510  33.5429510  69.4882920  42.4016170  34.9334410
  63.3078280  46.9359630  33.0307140  63.8222950  46.8467640  33.8329570
  62.4647360  47.2819330  33.3235050  65.2832680  47.2214970  22.4591140
  65.1233820  46.9317910  23.3572970  65.1179390  46.4455100  21.9236370
  57.7621060  47.0013500  24.2362760  57.5863540  46.0849040  24.0230560
  56.9076800  47.3600790  24.4760560  64.9858810  44.7302530  21.0189140
  64.2923970  44.7279820  20.3591420  65.7281670  44.3061850  20.5883310
  64.5508740  46.3565240  25.0937630  65.0065690  45.5754620  25.4076250
  64.8901260  47.0672060  25.6378810  52.3011290  42.1281700  32.2528370
  52.4642330  41.6587060  31.4347740  52.7663740  41.6205260  32.9177210
  57.0730060  31.2587460  27.2888940  56.6298210  32.0397000  26.9573460
  57.6315050  31.5817350  27.9959880  61.3599870  34.1255980  32.8924260
  60.8979240  34.3339000  33.7044200  60.9577980  33.3115330  32.5894930
  66.3604380  35.3464930  34.0220920  65.5097970  35.0470680  34.3429990
  66.2006170  35.5906940  33.1104740  63.4554090  36.8466680  36.1219710
  63.7807500  36.0130430  35.7821940  64.2434420  37.3695200  36.2698040
  60.1888880  30.8798160  22.1694770  59.5643060  30.8758030  22.8948080
  60.1019000  30.0129120  21.7730740  59.1105960  31.8034790  29.1478540
  59.4078290  32.7097620  29.0670560  59.6591520  31.3153570  28.5338110
  56.8644280  36.3821030  25.0170190  56.6385200  36.1658200  25.9216810
  56.0836810  36.8149490  24.6716160  64.0942040  36.3884400  23.6160840
  63.4950930  37.1120200  23.4324460  64.6421650  36.3261180  22.8337290
  59.3043490  37.2806610  35.6830460  59.2087090  36.3401340  35.5330860
  60.1475470  37.5021680  35.2878530  62.7006910  35.0247940  25.6464120
  63.0936480  35.3420140  24.8332810  63.0623760  34.1459820  25.7608640
  54.4354030  33.6920280  33.8364240  54.0417420  34.5395490  34.0437020
  53.7472430  33.0546650  34.0272880  51.7371080  31.6148740  27.8694320
  51.4484130  32.1851600  28.5819300  52.4816840  31.1353190  28.2325550
  51.9241310  35.5568860  19.0797040  51.8415980  36.4999620  19.2212030
  51.5724370  35.4143770  18.2009390  63.2862050  37.6153690  29.7414900
  62.5543170  38.1240500  30.0905000  62.8886390  36.7983670  29.4403680
  59.7239440  34.2907890  28.1467390  59.7275500  33.8497840  27.2971930
  60.6190560  34.6125220  28.2539210  55.5741820  34.1734380  27.1061600
  55.2341870  34.6509610  27.8628650  54.8119140  33.7199500  26.7462700
  59.7859590  35.2919970  21.1374150  59.9072410  35.2506450  22.0859970
  59.4008100  36.1544120  20.9820880  63.7487960  33.0687370  29.1537840
  63.7660700  33.5196020  29.9979690  63.5003540  32.1693010  29.3671280
  58.7981090  37.6021110  20.5357450  58.2297990  37.1539360  19.9093360
  59.5070090  37.9613890  20.0022600  53.8750270  41.5033130  34.4124180
  53.4905060  40.8626800  35.0107140  54.1862460  42.2069250  34.9818910
  60.0247410  38.3509670  29.8932800  60.3917540  37.8768240  30.6394140
  59.8352470  39.2251240  30.2341140  52.8887900  33.0953360  26.0226270
  52.6034820  32.7309030  26.8604890  52.8266760  32.3633820  25.4089410
  57.8146780  37.3918310  32.2117010  57.5103850  38.2710290  32.4367370
  58.7693240  37.4518100  32.2474450  56.3428570  41.5979300  22.8083860
  55.5690830  41.0576920  22.6482580  57.0723200  41.0785910  22.4701620
  67.1016550  40.5944660  28.6010250  67.8215670  41.0899950  28.2106360
  66.8998370  39.9162550  27.9564120  62.5626490  31.9882620  22.7439640
  61.7491100  31.4895790  22.6684950  62.3688440  32.8280870  22.3275990
  62.4835350  40.6653720  34.4879250  62.4172660  39.7449390  34.2336840
  61.8540490  40.7629160  35.2023890  65.2774880  36.3602270  21.0401800
  66.1654500  36.6719500  20.8653140  65.2479970  35.4874520  20.6482380
  56.3865970  41.2659680  26.4462670  56.9044640  40.4627940  26.3919560
  55.9349990  41.2038820  27.2879500  61.2735470  42.5325960  21.7189970
  61.6151170  43.2768190  21.2233290  60.4448180  42.8457080  22.0814800
  53.8710510  38.2321050  33.3588370  53.5125450  38.8974900  33.9461710
  53.5765070  37.4004600  33.7300990  57.0723630  38.6905290  36.2427920
  56.7723770  38.8362470  35.3455740  57.8434870  38.1310580  36.1501310
  62.4152080  43.4874290  34.2383050  62.4296620  42.5555250  34.0201960
  61.7077180  43.5734050  34.8772820  67.5489150  37.6714110  20.5081660
  67.4652870  38.1028330  19.6578100  68.2683340  38.1312460  20.9408480
  68.6263290  40.1281630  33.5851630  67.9011480  40.7210410  33.3881020
  69.1538750  40.1205170  32.7865000  68.5776400  44.5256370  23.2363790
  67.9352560  43.8711990  23.5107510  68.1907060  44.9311460  22.4604460
  64.1562880  41.8541800  27.0835480  64.5086700  41.2569930  26.4236850
  63.2725210  41.5286030  27.2543730  60.2426160  42.6139490  24.4905890
  60.9297290  43.1608700  24.8713480  59.4558580  43.1580220  24.5255500
  52.3818560  38.2312310  19.9822970  53.2513410  38.5137110  20.2658890
  51.8908880  39.0448180  19.8671780  59.5453370  39.6185520  24.1031250
  60.0016150  40.4290770  24.3291440  59.1941580  39.3008660  24.9349740
  61.8485980  45.1291860  31.3323550  62.4928200  45.3351240  32.0096970
  62.2115420  44.3680260  30.8794400  55.4465150  29.9623170  24.5753770
  55.3179780  29.9541070  25.5238690  54.6227170  30.3006260  24.2244780
  63.1218060  43.1324210  30.0501000  63.7640290  42.4317370  30.1633170
  63.6467410  43.9122650  29.8697890  66.9673780  43.4172830  19.7740140
  66.7411360  42.7003270  20.3664780  66.5769980  43.1685270  18.9361890
  64.8955680  43.9319110  33.2537060  65.2311920  44.5185800  33.9314980
  63.9756020  43.8011820  33.4834850  52.7489810  47.4439690  20.5484600
  53.1087450  48.0429030  19.8941870  52.6082150  47.9899580  21.3219630
  52.4459080  31.7214290  34.0360470  51.7317600  31.9211210  34.6413080
  52.8654120  30.9453860  34.4075270  66.5490030  41.3344770  21.4354300
  66.2611730  41.7957460  22.2232180  67.3442200  40.8742540  21.7038520
  52.7331670  45.7094550  35.0227000  52.8422790  44.7689290  34.8822390
  52.0812230  45.9749300  34.3740730  60.7244260  43.9810440  36.4225120
  60.4041130  43.2619680  36.9670810  60.0502620  44.6565510  36.4961180
  58.7658430  44.8270890  21.3658270  58.7568530  45.5600580  20.7502780
  57.8456790  44.5802470  21.4585230  54.3665070  40.0485780  22.1105030
  53.7593020  40.7884680  22.1200330  54.8414420  40.1385140  21.2843230
  63.9397860  34.2136600  31.7861920  64.3078680  33.3931810  32.1141490
  63.0796060  34.2738490  32.2017570  67.3059890  33.1693540  22.5949480
  66.6773050  33.2739210  21.8807710  66.8111810  33.3890320  23.3843360
  61.7518030  44.8899130  20.0283460  61.8530010  44.6863120  19.0985440
  60.8519770  44.6357410  20.2331240  59.2743920  35.4479490  24.0107360
  58.5660070  35.9165830  24.4520970  59.5588400  34.7901500  24.6452550
  60.8999850  36.8676190  32.0099890  61.3985100  37.3422010  32.6751740
  61.0422800  35.9439710  32.2169920  63.3059350  32.1730150  25.4503150
  63.1827130  32.1916280  24.5012660  64.2543910  32.2209090  25.5701550
  60.3936140  47.4085450  24.7231130  60.6477640  47.3706840  23.8010500
  59.4448620  47.2818780  24.7159380  57.4778940  33.7564570  21.3858070
  58.3269470  34.1934720  21.3198260  57.1110210  34.0684830  22.2130130
  68.1066710  33.0844150  32.8528280  67.6040310  33.8249550  33.1922090
  68.9223370  33.4728150  32.5365070  66.3988720  38.3277330  26.2989640
  65.4578860  38.3427560  26.4737330  66.7132790  37.5413290  26.7449940
  56.3770360  40.0096930  19.8593600  57.1433630  39.8978290  20.4219030
  56.4545050  39.3134900  19.2070370  55.0717120  37.4422000  20.5426490
  55.1520710  36.4949510  20.6543890  55.9636870  37.7728880  20.6487150
  68.4014300  45.4986180  27.9743900  68.5261720  46.3217350  28.4467710
  69.2679860  45.2876910  27.6268050  55.8731830  47.5917390  27.6461030
  56.6094310  47.0432850  27.9169600  56.2572750  48.4573400  27.5067020
  52.7577310  43.6590960  23.5202540  51.8317090  43.9012100  23.5107950
  53.2233740  44.4865220  23.3987290  54.8790110  46.7763460  36.8346610
  55.6802840  47.0975510  37.2482010  54.3641930  46.4159040  37.5566520
  58.9834140  46.7647700  19.4686600  59.7762750  47.0536530  19.0168390
  58.4638490  46.3339870  18.7899080  63.7154740  42.8843330  36.7822020
  63.1092900  42.9074930  36.0417770  63.4108850  42.1526370  37.3189270
  65.1455110  46.6123620  35.3931430  66.0976860  46.5281640  35.3431670
  64.9983330  47.2765330  36.0665220  68.0364310  45.9917830  20.8923340
  67.7505820  45.5782970  20.0777520  67.8383860  46.9205540  20.7723860
  52.5987920  39.2636920  35.7782660  53.1026940  38.6844200  36.3498890
  51.8595340  39.5477150  36.3159030  59.5011540  41.9851110  19.3328950
  59.3962180  41.3703460  20.0590330  59.3335760  41.4617000  18.5491960
  59.6525860  40.6707910  35.3118180  58.8871530  41.2392910  35.2272850
  59.8341820  40.3784120  34.4186410  62.7414270  41.0471140  19.9370940
  62.1924370  41.4940440  20.5813680  63.3633530  40.5420390  20.4608610
  66.7949210  42.4013240  35.8693200  67.5358680  42.7389000  35.3660660
  66.0321890  42.5705300  35.3162970  54.6311000  37.4066510  36.6732730
  54.6716340  37.1080380  37.5817960  55.4856500  37.8074120  36.5140250
  58.4089390  40.0062060  21.8336240  58.8305810  39.8401930  22.6767630
  58.5340230  39.1962290  21.3391380  56.5716810  35.9858610  34.6407220
  56.0413270  35.4949560  34.0130560  57.2404880  36.4142810  34.1065150
  60.9217030  39.0299670  19.0813340  61.4422690  38.3148690  18.7154490
  61.5685430  39.6685540  19.3813850  65.4694870  40.4528070  34.4048410
  65.8835890  40.6073150  35.2538830  64.5345870  40.5783290  34.5674190
  57.0589110  32.9520980  34.7204510  56.9645980  32.3341730  33.9955380
  56.4786500  33.6787270  34.4934420  59.8250550  31.5094220  31.7531900
  59.3767850  31.5318480  30.9077450  59.1915750  31.1113240  32.3502200
  60.2310100  40.4048550  32.3744340  60.6498210  41.2481280  32.2020580
  59.3118730  40.5420590  32.1451120  62.5674000  38.1364730  33.7582180
  62.6870210  37.5405870  34.4977020  63.4268000  38.1734420  33.3383480
  64.9061900  38.6901920  32.3344690  64.3797120  39.2144540  31.7309830
  65.2493240  39.3229310  32.9654420  57.3048290  36.0795290  18.7794400
  57.1037350  35.2162650  19.1407740  57.1340340  35.9928650  17.8416000
  58.0817520  46.7101560  33.4902070  57.5438610  47.4347620  33.1710770
  58.3351480  46.2331900  32.6999410  59.3342770  34.6786080  35.0158000
  59.9242460  34.3701930  35.7035820  58.5163010  34.2065830  35.1717900
  64.7836600  30.8903520  21.3081280  65.0638890  30.0471420  21.6640700
  64.0102330  31.1226630  21.8220030  56.1031090  33.1795910  18.7672280
  56.4056990  33.1863340  17.8591430  56.8425680  32.8293770  19.2639940
  60.9379730  47.9452770  33.7488720  60.8638430  48.8487910  34.0561090
  60.0358570  47.6264670  33.7210790  59.3216020  32.1230530  19.7528480
  58.9738020  31.4454520  19.1730930  59.5228790  31.6620040  20.5671870
  61.4865060  47.1111280  21.3715080  62.3815850  47.4496250  21.3933840
  61.5182690  46.3890690  20.7439360  55.1261220  42.4838330  19.6002080
  55.5636090  43.0268000  20.2559660  55.6108950  41.6585280  19.6098420
  52.3407020  45.2727360  27.0522340  52.6710030  44.4048420  26.8200980
  52.7698020  45.4785880  27.8827300  56.9368940  43.6036370  24.7124310
  56.6364480  43.4801340  25.6128220  56.8306430  42.7444960  24.3040040
  52.8297230  46.1397950  29.7903970  52.3928220  46.3198750  30.6228120
  53.3974910  46.8972570  29.6485690  68.4659410  45.6414950  34.0781280
  67.8661400  45.7007510  33.3345200  68.5953310  44.7019930  34.2078130
  69.7060860  43.3832770  19.4150990  68.8753820  43.4509420  19.8858220
  69.8832690  44.2736890  19.1117850  69.1617320  40.1280250  21.9185190
  69.9236230  40.6976900  22.0244880  69.1771690  39.5607450  22.6893500
  52.6621660  38.6518180  26.1492850  52.0070500  38.3829820  25.5052550
  53.4999610  38.5422660  25.6994830  70.1677290  40.9830350  26.7627120
  70.5386120  40.1997670  26.3563090  70.8079220  41.6719450  26.5844420
  67.1511050  42.3666930  32.1757440  66.3370890  42.7964090  32.4383230
  67.5585250  42.9785340  31.5626490  69.2136490  40.4214620  19.0757710
  69.4885330  41.3293500  18.9476930  69.0247230  40.3577150  20.0119700
  65.6112100  33.4459470  20.3711340  66.0296980  33.2590450  19.5308000
  65.3048160  32.5938520  20.6814270  69.1101830  38.3583610  24.0687140
  68.7345430  37.5911540  23.6368430  68.3804950  38.7406310  24.5562070
  53.6997590  39.0370750  30.6896190  54.0670630  38.9498150  31.5692210
  53.1308410  38.2737300  30.5903050  68.5001450  37.5055130  33.7026660
  68.2687540  37.2767880  32.8024610  68.7606000  38.4254680  33.6571550
  53.2513590  35.9479840  34.5954610  52.3569640  35.9146600  34.9348320
  53.7911140  36.1466630  35.3605860  51.8759740  35.8617110  22.0918180
  50.9723820  36.1247310  21.9169840  52.3600360  36.1328280  21.3118140
  68.3852790  36.5841100  27.3694380  68.9090270  36.0903750  26.7384550
  68.9712210  36.7191460  28.1141950  68.5642510  36.6680970  30.8913930
  67.6145220  36.6344510  31.0058920  68.7455520  37.5781080  30.6563700
  54.4186950  34.9182650  20.0012560  55.1278650  34.4965870  19.5159840
  53.7026890  34.9857880  19.3695910  54.0661110  30.9721980  19.0415210
  54.7889240  31.5130920  19.3596430  54.3385630  30.6985400  18.1656750
  67.8752760  35.8414450  23.3086790  68.3711880  35.6085320  24.0935670
  67.6768830  35.0026290  22.8924430  53.7553300  30.2228170  28.9437830
  54.4029490  29.6725550  28.5032990  54.1755140  30.4771320  29.7653640
  69.3039920  34.4775400  25.8424470  69.1939200  34.3231440  26.7806740
  70.0647510  33.9496340  25.5999880  67.6505640  30.4169530  32.3007470
  68.2877860  31.0303670  32.6666660  67.7980530  30.4530190  31.3556700
  70.1930190  32.3083320  19.0830610  71.1179500  32.1764500  18.8748900
  70.1705980  32.3876140  20.0367060  70.2668680  33.0793980  21.7087320
  69.4720180  33.0139100  22.2380230  70.4711960  34.0144620  21.6972670
  67.2087100  47.1185530  25.7025710  67.8046170  46.7970100  25.0260130
  67.4665250  46.6457350  26.4938980  53.5085300  30.3783840  31.6863150
  53.1600120  30.8347660  32.4521330  53.1773000  29.4840970  31.7685580
  55.1149670  43.5503440  35.8516340  55.0719300  43.1796350  36.7330800
  55.2460680  44.4881010  35.9918160  58.8155700  45.1063030  31.4526060
  58.5747060  45.3737590  30.5656580  59.7558340  45.2768760  31.5076920
  61.0210120  31.5695720  35.2082570  60.9599010  32.1617550  35.9577980
  61.9610500  31.4621680  35.0632830  70.0759860  47.1257410  32.2536700
  69.5818140  47.5226280  31.5363830  69.4673150  46.5006620  32.6473980
  54.1805940  29.9060040  34.9613920  54.7288930  29.7248090  34.1980030
  54.2461250  29.1154150  35.4970230  54.9537700  46.4965690  32.9714120
  54.3598020  46.3650390  33.7104160  54.9461540  45.6603830  32.5056220
  64.3992720  29.7897920  31.1744150  63.5252560  30.1233030  30.9717080
  64.2903470  29.3171100  31.9996020  65.3064700  31.9968790  32.5585870
  64.9778060  31.1820550  32.1787600  66.2547000  31.9538600  32.4351560
  67.7599310  47.7680830  29.5323440  67.3002280  48.5196640  29.1581460
  67.1311770  47.0487300  29.4738240  54.5849930  43.8624070  31.9222160
  53.8583990  43.2429360  31.8548110  54.6459080  44.2564680  31.0520240
  58.1895030  46.0769070  28.7071570  58.7060050  45.4656430  28.1819830
  58.8392410  46.5797850  29.1982580  60.9290530  46.9677560  29.5340550
  61.2168340  46.7131860  28.6573560  61.4413750  46.4154920  30.1246120
  62.1467540  30.7067760  30.1137060  61.3639330  31.1813260  30.3933820
  61.8530470  29.8022590  30.0050240  66.6988610  31.4090860  28.1586150
  67.1396700  31.3535960  27.3107750  66.4296200  32.3248870  28.2296330
  68.5627180  31.0406100  26.1694970  68.5015580  30.0967320  26.0225990
  69.3419210  31.1486190  26.7148430  52.8679930  47.1798460  25.1318920
  52.7001970  46.5469140  25.8300810  52.0014440  47.3857860  24.7813110
  53.4907950  31.0115240  22.6350780  54.2487310  31.1244120  22.0614810
  53.0285120  31.8484440  22.5894210  60.0321760  33.1254510  25.6253090
  59.2196270  32.7511400  25.2848970  60.5363400  32.3699590  25.9274280
  64.5346740  29.7896960  26.8636160  65.1376110  30.3617170  27.3384680
  63.7939730  30.3536400  26.6410060  67.6781340  30.1918520  22.1376440
  67.8731970  31.0901970  22.4043870  66.8911210  29.9605600  22.6309390
  54.4742630  45.8731690  22.5769060  53.9490250  46.2539720  21.8731020
  54.3987210  46.4982460  23.2978770  55.8633100  31.5379290  21.1752750
  56.3925860  30.7509090  21.0460700  56.4961420  32.2170480  21.4088280
  58.0570940  31.2754430  24.2298140  57.4273680  30.5741740  24.3968270
  57.5176080  32.0358560  24.0131300  60.9962890  47.8893660  36.9008750
  61.9230200  47.6537930  36.9444710  60.9813320  48.7165660  36.4194780
  69.2307950  47.4319230  23.8983000  69.4060140  46.7456970  23.2543920
  68.5329520  47.9566280  23.5059670  58.1826500  30.5538410  36.6650630
  57.9010770  31.0572010  35.9011450  58.5646200  29.7560160  36.2992760
  57.0735600  47.8214070  21.4518310  57.8054420  47.5373350  20.9042200
  57.3329270  47.5827350  22.3417690  56.2350390  43.9378800  21.4564640
  55.6059270  44.4063900  22.0050470  56.3498220  43.0928020  21.8910830
  67.5640450  47.1163520  36.7249790  68.3565770  46.6212750  36.5175750
  67.8573600  47.7953660  37.3325400  63.6900110  37.9884460   7.6065840
  63.6094160  37.0739070   7.3357550  63.2764530  38.4851530   6.9005550
  61.8218150  39.7663480   9.4875110  61.0460250  39.2863920   9.7773680
  62.4731080  39.0869130   9.3131270  55.8383980  40.0783290  10.3650870
  55.0068860  39.8232000  10.7647380  56.4464960  40.1494060  11.1008790
  65.8425580  44.1723670   8.2674240  65.3807110  43.4010910   8.5961410
  66.6551130  44.1989740   8.7726690  55.8185240  44.1123380  10.5608890
  56.1213280  43.2221120  10.3819110  56.5628830  44.6693600  10.3331140
  54.2475930  35.0385180   4.1493260  53.3592630  35.3801150   4.0473140
  54.5317120  34.8385500   3.2574090  52.2108940  37.6390830  10.0332960
  52.7825050  36.8713030  10.0336600  52.2110480  37.9379590   9.1239570
  62.0688890  46.4581680   7.8878230  61.4500330  46.9139180   7.3172670
  62.9240670  46.6133140   7.4867930  61.2627140  42.4420670   9.4945270
  61.1935420  41.5010610   9.3334400  62.0247000  42.5322080  10.0667840
  53.4533810  33.0475190  11.8201890  53.2736650  32.1500940  12.1004650
  53.0513890  33.5947060  12.4948840  62.2932310  35.2491050   9.7214200
  62.6697130  34.3762930   9.6087870  62.1951820  35.5849750   8.8304640
  56.4237320  33.6216680   5.1831640  56.5304070  34.5220410   5.4900400
  55.5129680  33.5734650   4.8926290  66.0756430  32.7441490   6.6542540
  66.8966050  32.2538060   6.6968020  66.1090510  33.3339150   7.4074380
  54.0720480  35.5435690  10.4284230  54.7530590  35.8074060  11.0471630
  53.7568530  34.7036560  10.7622240  58.2645050  36.5903050   9.5156820
  58.7723270  37.0884020  10.1561840  58.7958290  35.8138250   9.3396180
  70.3655980  34.7608240  13.2186170  69.6608150  35.1489950  12.7001280
  70.6313900  35.4558530  13.8207100  56.5481150  31.2301610  13.7820240
  56.5499590  31.7474000  12.9766140  55.7185460  30.7531790  13.7590170
  62.9352240  41.3420920   5.2810140  62.3169510  41.8070370   4.7172860
  63.4475490  42.0348400   5.6979650  57.7984000  40.8696790  11.9593740
  57.4653380  41.4965710  12.6014810  57.9750680  41.3958670  11.1795410
  66.3117910  34.6841870   9.4270080  65.6073480  34.9726760  10.0073190
  66.6730070  35.4941980   9.0669640  56.2296480  32.9411570  11.7890690
  56.5713290  33.7853620  11.4944560  55.2912290  33.0895310  11.9056030
  57.0103100  42.8377590  13.7742920  57.6277100  43.5128670  13.4927370
  56.1496220  43.2465570  13.6830420  52.3035440  42.0277450   2.6549770
  51.9263420  42.5164550   1.9234670  52.5608510  42.7002730   3.2856300
  67.9280690  44.3017000  11.6897560  67.2444210  44.9716110  11.6814230
  68.4674980  44.4997650  10.9242420  69.3804830  34.1296660   9.8179290
  68.4329740  34.1635640   9.9494720  69.7054820  34.9435610  10.2028650
  59.9124370  30.4293840   8.1135280  60.2199350  29.8740730   7.3970780
  58.9825070  30.5638300   7.9308270  65.4639430  46.1461130  10.4042740
  65.4766590  45.7423420   9.5365000  64.9114650  46.9208420  10.3004170
  66.7584850  42.8677350   5.4932910  66.6481180  41.9251680   5.6182330
  66.7553100  43.2292990   6.3795670  64.8624870  41.0490970  11.7325350
  65.2793660  40.8351080  10.8978810  65.5864690  41.3063760  12.3033970
  62.3005130  38.4942670   4.8495400  61.3734410  38.4280050   5.0783870
  62.4529950  39.4322800   4.7350640  62.2874210  34.7659670   1.8462560
  61.3477880  34.9273630   1.9315020  62.6057470  35.4845350   1.2998550
  68.8086970  39.4478190  11.8241590  67.9805600  39.5171280  11.3491720
  69.4037450  40.0332500  11.3557420  66.3302420  40.0562970   5.3530650
  65.7114840  39.7182520   4.7056950  66.3126870  39.4122730   6.0609840
  65.7728980  36.2347510  12.7696460  65.3600160  37.0601220  13.0236450
  65.0404930  35.6492550  12.5772820  57.9061770  39.0207410   7.6315130
  57.5018770  38.3084660   7.1361030  57.9924890  38.6760650   8.5203170
  58.3743470  42.7074970   9.7954340  58.0771760  42.1020440   9.1162120
  59.3243290  42.7452280   9.6843700  56.6190390  35.7950620  11.4114170
  57.1704980  35.9045960  10.6367420  57.1333900  36.1688220  12.1269400
  66.4629080  46.2806840  13.4577440  65.9859640  47.0879030  13.2650050
  65.7790870  45.6285170  13.6103650  57.4661900  42.4456660  16.4462140
  56.5690430  42.6696630  16.6935540  57.4914770  42.5691600  15.4973540
  64.5067120  39.2949780   2.3603400  64.9460400  38.4572210   2.2141220
  65.2195540  39.9279180   2.4467540  56.2933120  39.3169980  15.0219510
  56.1540890  40.1892780  15.3906910  55.4114480  38.9742790  14.8767450
  62.6162500  44.2345850   6.3284640  63.0558410  44.9770180   5.9140030
  62.5549390  44.4772420   7.2523600  58.0913470  45.2591680  17.2304660
  58.0628900  45.6634630  16.3633090  57.9278440  44.3302040  17.0676260
  54.6066400  37.9152390   5.1321780  54.4864000  38.6414480   4.5203050
  54.2967290  37.1455300   4.6549690  70.0428290  46.0418780  18.5268830
  70.5188010  46.5201670  19.2057910  70.6635450  45.9736270  17.8014330
  52.2451770  41.0867530  10.9390420  52.3232190  41.2216300   9.9946140
  52.8593450  40.3783420  11.1318540  53.4899400  42.7867720   7.3496600
  53.0827480  42.9282310   6.4950200  54.3812410  42.5027880   7.1467810
  69.4461540  43.2331630  15.6868840  69.5724600  42.9943510  14.7686020
  69.4882920  42.4016170  16.1590920  63.3078280  46.9359630  14.2563650
  63.8222950  46.8467640  15.0586080  62.4647360  47.2819330  14.5491560
  65.2832680  47.2214970   3.6847650  65.1233820  46.9317910   4.5829480
  65.1179390  46.4455100   3.1492880  57.7621060  47.0013500   5.4619270
  57.5863540  46.0849040   5.2487070  56.9076800  47.3600790   5.7017070
  64.9858810  44.7302530   2.2445650  64.2923970  44.7279820   1.5847930
  65.7281670  44.3061850   1.8139820  64.5508740  46.3565240   6.3194140
  65.0065690  45.5754620   6.6332760  64.8901260  47.0672060   6.8635320
  69.2985550  35.2864090  16.6518580  68.6829820  35.7943760  16.1234040
  68.9781970  34.3862420  16.5944520  52.3011290  42.1281700  13.4784880
  52.4642330  41.6587060  12.6604250  52.7663740  41.6205260  14.1433720
  57.0730060  31.2587460   8.5145450  56.6298210  32.0397000   8.1829970
  57.6315050  31.5817350   9.2216390  61.3599870  34.1255980  14.1180770
  60.8979240  34.3339000  14.9300710  60.9577980  33.3115330  13.8151440
  66.3604380  35.3464930  15.2477430  65.5097970  35.0470680  15.5686500
  66.2006170  35.5906940  14.3361250  63.4554090  36.8466680  17.3476220
  63.7807500  36.0130430  17.0078450  64.2434420  37.3695200  17.4954550
  60.1888880  30.8798160   3.3951280  59.5643060  30.8758030   4.1204590
  60.1019000  30.0129120   2.9987250  59.1105960  31.8034790  10.3735050
  59.4078290  32.7097620  10.2927070  59.6591520  31.3153570   9.7594620
  56.8644280  36.3821030   6.2426700  56.6385200  36.1658200   7.1473320
  56.0836810  36.8149490   5.8972670  64.0942040  36.3884400   4.8417350
  63.4950930  37.1120200   4.6580970  64.6421650  36.3261180   4.0593800
  59.3043490  37.2806610  16.9086970  59.2087090  36.3401340  16.7587370
  60.1475470  37.5021680  16.5135040  62.7006910  35.0247940   6.8720630
  63.0936480  35.3420140   6.0589320  63.0623760  34.1459820   6.9865150
  54.4354030  33.6920280  15.0620750  54.0417420  34.5395490  15.2693530
  53.7472430  33.0546650  15.2529390  61.0099080  33.7755250  18.1317490
  60.3197400  33.5827450  18.7663580  61.7531380  34.0589890  18.6641790
  51.7371080  31.6148740   9.0950830  51.4484130  32.1851600   9.8075810
  52.4816840  31.1353190   9.4582060  63.2862050  37.6153690  10.9671410
  62.5543170  38.1240500  11.3161510  62.8886390  36.7983670  10.6660190
  59.7239440  34.2907890   9.3723900  59.7275500  33.8497840   8.5228440
  60.6190560  34.6125220   9.4795720  55.5741820  34.1734380   8.3318110
  55.2341870  34.6509610   9.0885160  54.8119140  33.7199500   7.9719210
  59.7859590  35.2919970   2.3630660  59.9072410  35.2506450   3.3116480
  59.4008100  36.1544120   2.2077390  63.7487960  33.0687370  10.3794350
  63.7660700  33.5196020  11.2236200  63.5003540  32.1693010  10.5927790
  67.1758710  30.4819550  16.2180730  67.5004480  29.7509210  16.7438710
  67.2115220  30.1633190  15.3161720  53.8750270  41.5033130  15.6380690
  53.4905060  40.8626800  16.2363650  54.1862460  42.2069250  16.2075420
  60.0247410  38.3509670  11.1189310  60.3917540  37.8768240  11.8650650
  59.8352470  39.2251240  11.4597650  52.8887900  33.0953360   7.2482780
  52.6034820  32.7309030   8.0861400  52.8266760  32.3633820   6.6345920
  57.8146780  37.3918310  13.4373520  57.5103850  38.2710290  13.6623880
  58.7693240  37.4518100  13.4730960  56.3428570  41.5979300   4.0340370
  55.5690830  41.0576920   3.8739090  57.0723200  41.0785910   3.6958130
  67.1016550  40.5944660   9.8266760  67.8215670  41.0899950   9.4362870
  66.8998370  39.9162550   9.1820630  62.5626490  31.9882620   3.9696150
  61.7491100  31.4895790   3.8941460  62.3688440  32.8280870   3.5532500
  62.4835350  40.6653720  15.7135760  62.4172660  39.7449390  15.4593350
  61.8540490  40.7629160  16.4280400  65.2774880  36.3602270   2.2658310
  66.1654500  36.6719500   2.0909650  65.2479970  35.4874520   1.8738890
  56.3865970  41.2659680   7.6719180  56.9044640  40.4627940   7.6176070
  55.9349990  41.2038820   8.5136010  61.2735470  42.5325960   2.9446480
  61.6151170  43.2768190   2.4489800  60.4448180  42.8457080   3.3071310
  53.8710510  38.2321050  14.5844880  53.5125450  38.8974900  15.1718220
  53.5765070  37.4004600  14.9557500  57.0723630  38.6905290  17.4684430
  56.7723770  38.8362470  16.5712250  57.8434870  38.1310580  17.3757820
  62.4152080  43.4874290  15.4639560  62.4296620  42.5555250  15.2458470
  61.7077180  43.5734050  16.1029330  68.6263290  40.1281630  14.8108140
  67.9011480  40.7210410  14.6137530  69.1538750  40.1205170  14.0121510
  68.5776400  44.5256370   4.4620300  67.9352560  43.8711990   4.7364020
  68.1907060  44.9311460   3.6860970  64.1562880  41.8541800   8.3091990
  64.5086700  41.2569930   7.6493360  63.2725210  41.5286030   8.4800240
  60.2426160  42.6139490   5.7162400  60.9297290  43.1608700   6.0969990
  59.4558580  43.1580220   5.7512010  59.5453370  39.6185520   5.3287760
  60.0016150  40.4290770   5.5547950  59.1941580  39.3008660   6.1606250
  61.8485980  45.1291860  12.5580060  62.4928200  45.3351240  13.2353480
  62.2115420  44.3680260  12.1050910  55.4465150  29.9623170   5.8010280
  55.3179780  29.9541070   6.7495200  54.6227170  30.3006260   5.4501290
  63.1218060  43.1324210  11.2757510  63.7640290  42.4317370  11.3889680
  63.6467410  43.9122650  11.0954400  64.8955680  43.9319110  14.4793570
  65.2311920  44.5185800  15.1571490  63.9756020  43.8011820  14.7091360
  52.4459080  31.7214290  15.2616980  51.7317600  31.9211210  15.8669590
  52.8654120  30.9453860  15.6331780  66.5490030  41.3344770   2.6610810
  66.2611730  41.7957460   3.4488690  67.3442200  40.8742540   2.9295030
  52.7331670  45.7094550  16.2483510  52.8422790  44.7689290  16.1078900
  52.0812230  45.9749300  15.5997240  60.7244260  43.9810440  17.6481630
  60.4041130  43.2619680  18.1927320  60.0502620  44.6565510  17.7217690
  58.7658430  44.8270890   2.5914780  58.7568530  45.5600580   1.9759290
  57.8456790  44.5802470   2.6841740  54.3665070  40.0485780   3.3361540
  53.7593020  40.7884680   3.3456840  54.8414420  40.1385140   2.5099740
  63.9397860  34.2136600  13.0118430  64.3078680  33.3931810  13.3398000
  63.0796060  34.2738490  13.4274080  67.3059890  33.1693540   3.8205990
  66.6773050  33.2739210   3.1064220  66.8111810  33.3890320   4.6099870
  59.2743920  35.4479490   5.2363870  58.5660070  35.9165830   5.6777480
  59.5588400  34.7901500   5.8709060  60.8999850  36.8676190  13.2356400
  61.3985100  37.3422010  13.9008250  61.0422800  35.9439710  13.4426430
  63.3059350  32.1730150   6.6759660  63.1827130  32.1916280   5.7269170
  64.2543910  32.2209090   6.7958060  60.3936140  47.4085450   5.9487640
  60.6477640  47.3706840   5.0267010  59.4448620  47.2818780   5.9415890
  57.4778940  33.7564570   2.6114580  58.3269470  34.1934720   2.5454770
  57.1110210  34.0684830   3.4386640  68.1066710  33.0844150  14.0784790
  67.6040310  33.8249550  14.4178600  68.9223370  33.4728150  13.7621580
  66.3988720  38.3277330   7.5246150  65.4578860  38.3427560   7.6993840
  66.7132790  37.5413290   7.9706450  55.0717120  37.4422000   1.7683000
  55.1520710  36.4949510   1.8800400  55.9636870  37.7728880   1.8743660
  68.4014300  45.4986180   9.2000410  68.5261720  46.3217350   9.6724220
  69.2679860  45.2876910   8.8524560  55.8731830  47.5917390   8.8717540
  56.6094310  47.0432850   9.1426110  56.2572750  48.4573400   8.7323530
  52.7577310  43.6590960   4.7459050  51.8317090  43.9012100   4.7364460
  53.2233740  44.4865220   4.6243800  54.8790110  46.7763460  18.0603120
  55.6802840  47.0975510  18.4738520  54.3641930  46.4159040  18.7823030
  63.7154740  42.8843330  18.0078530  63.1092900  42.9074930  17.2674280
  63.4108850  42.1526370  18.5445780  65.1455110  46.6123620  16.6187940
  66.0976860  46.5281640  16.5688180  64.9983330  47.2765330  17.2921730
  68.0364310  45.9917830   2.1179850  67.7505820  45.5782970   1.3034030
  67.8383860  46.9205540   1.9980370  52.5987920  39.2636920  17.0039170
  53.1026940  38.6844200  17.5755400  51.8595340  39.5477150  17.5415540
  59.6525860  40.6707910  16.5374690  58.8871530  41.2392910  16.4529360
  59.8341820  40.3784120  15.6442920  66.7949210  42.4013240  17.0949710
  67.5358680  42.7389000  16.5917170  66.0321890  42.5705300  16.5419480
  54.6311000  37.4066510  17.8989240  54.6716340  37.1080380  18.8074470
  55.4856500  37.8074120  17.7396760  58.4089390  40.0062060   3.0592750
  58.8305810  39.8401930   3.9024140  58.5340230  39.1962290   2.5647890
  56.5716810  35.9858610  15.8663730  56.0413270  35.4949560  15.2387070
  57.2404880  36.4142810  15.3321660  65.4694870  40.4528070  15.6304920
  65.8835890  40.6073150  16.4795340  64.5345870  40.5783290  15.7930700
  65.9417040  37.7924230  17.6344070  66.5237810  37.0376550  17.5464550
  66.1178810  38.3231670  16.8575550  57.0589110  32.9520980  15.9461020
  56.9645980  32.3341730  15.2211890  56.4786500  33.6787270  15.7190930
  59.8250550  31.5094220  12.9788410  59.3767850  31.5318480  12.1333960
  59.1915750  31.1113240  13.5758710  60.2310100  40.4048550  13.6000850
  60.6498210  41.2481280  13.4277090  59.3118730  40.5420590  13.3707630
  62.5674000  38.1364730  14.9838690  62.6870210  37.5405870  15.7233530
  63.4268000  38.1734420  14.5639990  64.9061900  38.6901920  13.5601200
  64.3797120  39.2144540  12.9566340  65.2493240  39.3229310  14.1910930
  58.0817520  46.7101560  14.7158580  57.5438610  47.4347620  14.3967280
  58.3351480  46.2331900  13.9255920  59.3342770  34.6786080  16.2414510
  59.9242460  34.3701930  16.9292330  58.5163010  34.2065830  16.3974410
  64.1536200  34.2951890  16.4747530  63.4651720  33.6333430  16.4097520
  64.8742220  33.8490160  16.9195990  64.7836600  30.8903520   2.5337790
  65.0638890  30.0471420   2.8897210  64.0102330  31.1226630   3.0476540
  60.9379730  47.9452770  14.9745230  60.8638430  48.8487910  15.2817600
  60.0358570  47.6264670  14.9467300  61.4865060  47.1111280   2.5971590
  62.3815850  47.4496250   2.6190350  61.5182690  46.3890690   1.9695870
  52.3407020  45.2727360   8.2778850  52.6710030  44.4048420   8.0457490
  52.7698020  45.4785880   9.1083810  56.9368940  43.6036370   5.9380820
  56.6364480  43.4801340   6.8384730  56.8306430  42.7444960   5.5296550
  52.8297230  46.1397950  11.0160480  52.3928220  46.3198750  11.8484630
  53.3974910  46.8972570  10.8742200  68.4659410  45.6414950  15.3037790
  67.8661400  45.7007510  14.5601710  68.5953310  44.7019930  15.4334640
  69.1617320  40.1280250   3.1441700  69.9236230  40.6976900   3.2501390
  69.1771690  39.5607450   3.9150010  52.6621660  38.6518180   7.3749360
  52.0070500  38.3829820   6.7309060  53.4999610  38.5422660   6.9251340
  70.1677290  40.9830350   7.9883630  70.5386120  40.1997670   7.5819600
  70.8079220  41.6719450   7.8100930  67.1511050  42.3666930  13.4013950
  66.3370890  42.7964090  13.6639740  67.5585250  42.9785340  12.7883000
  69.1101830  38.3583610   5.2943650  68.7345430  37.5911540   4.8624940
  68.3804950  38.7406310   5.7818580  53.6997590  39.0370750  11.9152700
  54.0670630  38.9498150  12.7948720  53.1308410  38.2737300  11.8159560
  68.5001450  37.5055130  14.9283170  68.2687540  37.2767880  14.0281120
  68.7606000  38.4254680  14.8828060  53.2513590  35.9479840  15.8211120
  52.3569640  35.9146600  16.1604830  53.7911140  36.1466630  16.5862370
  66.9389520  32.7311560  17.7062870  67.8159700  32.7394960  18.0896870
  66.9510360  31.9942400  17.0955220  51.8759740  35.8617110   3.3174690
  50.9723820  36.1247310   3.1426350  52.3600360  36.1328280   2.5374650
  68.3852790  36.5841100   8.5950890  68.9090270  36.0903750   7.9641060
  68.9712210  36.7191460   9.3398460  68.5642510  36.6680970  12.1170440
  67.6145220  36.6344510  12.2315430  68.7455520  37.5781080  11.8820210
  67.8752760  35.8414450   4.5343300  68.3711880  35.6085320   5.3192180
  67.6768830  35.0026290   4.1180940  53.7553300  30.2228170  10.1694340
  54.4029490  29.6725550   9.7289500  54.1755140  30.4771320  10.9910150
  69.3039920  34.4775400   7.0680980  69.1939200  34.3231440   8.0063250
  70.0647510  33.9496340   6.8256390  67.6505640  30.4169530  13.5263980
  68.2877860  31.0303670  13.8923170  67.7980530  30.4530190  12.5813210
  70.2668680  33.0793980   2.9343830  69.4720180  33.0139100   3.4636740
  70.4711960  34.0144620   2.9229180  67.2087100  47.1185530   6.9282220
  67.8046170  46.7970100   6.2516640  67.4665250  46.6457350   7.7195490
  53.5085300  30.3783840  12.9119660  53.1600120  30.8347660  13.6777840
  53.1773000  29.4840970  12.9942090  55.1149670  43.5503440  17.0772850
  55.0719300  43.1796350  17.9587310  55.2460680  44.4881010  17.2174670
  58.8155700  45.1063030  12.6782570  58.5747060  45.3737590  11.7913090
  59.7558340  45.2768760  12.7333430  61.0210120  31.5695720  16.4339080
  60.9599010  32.1617550  17.1834490  61.9610500  31.4621680  16.2889340
  63.6584680  31.2265780  16.0731370  64.2725090  31.5445070  15.4112450
  64.2034240  30.7414370  16.6927230  70.0759860  47.1257410  13.4793210
  69.5818140  47.5226280  12.7620340  69.4673150  46.5006620  13.8730490
  54.1805940  29.9060040  16.1870430  54.7288930  29.7248090  15.4236540
  54.2461250  29.1154150  16.7226740  54.9537700  46.4965690  14.1970630
  54.3598020  46.3650390  14.9360670  54.9461540  45.6603830  13.7312730
  64.3992720  29.7897920  12.4000660  63.5252560  30.1233030  12.1973590
  64.2903470  29.3171100  13.2252530  65.3064700  31.9968790  13.7842380
  64.9778060  31.1820550  13.4044110  66.2547000  31.9538600  13.6608070
  67.7599310  47.7680830  10.7579950  67.3002280  48.5196640  10.3837970
  67.1311770  47.0487300  10.6994750  54.5849930  43.8624070  13.1478670
  53.8583990  43.2429360  13.0804620  54.6459080  44.2564680  12.2776750
  58.1895030  46.0769070   9.9328080  58.7060050  45.4656430   9.4076340
  58.8392410  46.5797850  10.4239090  60.9290530  46.9677560  10.7597060
  61.2168340  46.7131860   9.8830070  61.4413750  46.4154920  11.3502630
  62.1467540  30.7067760  11.3393570  61.3639330  31.1813260  11.6190330
  61.8530470  29.8022590  11.2306750  66.6988610  31.4090860   9.3842660
  67.1396700  31.3535960   8.5364260  66.4296200  32.3248870   9.4552840
  68.5627180  31.0406100   7.3951480  68.5015580  30.0967320   7.2482500
  69.3419210  31.1486190   7.9404940  52.8679930  47.1798460   6.3575430
  52.7001970  46.5469140   7.0557320  52.0014440  47.3857860   6.0069620
  53.4907950  31.0115240   3.8607290  54.2487310  31.1244120   3.2871320
  53.0285120  31.8484440   3.8150720  60.0321760  33.1254510   6.8509600
  59.2196270  32.7511400   6.5105480  60.5363400  32.3699590   7.1530790
  64.5346740  29.7896960   8.0892670  65.1376110  30.3617170   8.5641190
  63.7939730  30.3536400   7.8666570  67.6781340  30.1918520   3.3632950
  67.8731970  31.0901970   3.6300380  66.8911210  29.9605600   3.8565900
  54.4742630  45.8731690   3.8025570  53.9490250  46.2539720   3.0987530
  54.3987210  46.4982460   4.5235280  55.8633100  31.5379290   2.4009260
  56.3925860  30.7509090   2.2717210  56.4961420  32.2170480   2.6344790
  58.0570940  31.2754430   5.4554650  57.4273680  30.5741740   5.6224780
  57.5176080  32.0358560   5.2387810  60.9962890  47.8893660  18.1265260
  61.9230200  47.6537930  18.1701220  60.9813320  48.7165660  17.6451290
  69.2307950  47.4319230   5.1239510  69.4060140  46.7456970   4.4800430
  68.5329520  47.9566280   4.7316180  58.1826500  30.5538410  17.8907140
  57.9010770  31.0572010  17.1267960  58.5646200  29.7560160  17.5249270
  57.0735600  47.8214070   2.6774820  57.8054420  47.5373350   2.1298710
  57.3329270  47.5827350   3.5674200  56.2350390  43.9378800   2.6821150
  55.6059270  44.4063900   3.2306980  56.3498220  43.0928020   3.1167340
  64.7841960  29.9691990  18.4687610  64.6707410  30.2886600  19.3639130
  65.6011700  30.3704500  18.1724890  67.5640450  47.1163520  17.9506300
  68.3565770  46.6212750  17.7432260  67.8573600  47.7953660  18.5581910
  63.6900110  19.2140970 101.4783290  63.6094160  18.2995580 101.2075000
  63.2764530  19.7108040 100.7723000  61.8218150  20.9919990 103.3592560
  61.0460250  20.5120430 103.6491130  62.4731080  20.3125640 103.1848720
  55.8383980  21.3039800 104.2368320  55.0068860  21.0488510 104.6364830
  56.4464960  21.3750570 104.9726240  65.8425580  25.3980180 102.1391690
  65.3807110  24.6267420 102.4678860  66.6551130  25.4246250 102.6444140
  55.8185240  25.3379890 104.4326340  56.1213280  24.4477630 104.2536560
  56.5628830  25.8950110 104.2048590  54.2475930  16.2641690  98.0210710
  53.3592630  16.6057660  97.9190590  54.5317120  16.0642010  97.1291540
  52.2108940  18.8647340 103.9050410  52.7825050  18.0969540 103.9054050
  52.2110480  19.1636100 102.9957020  62.0688890  27.6838190 101.7595680
  61.4500330  28.1395690 101.1890120  62.9240670  27.8389650 101.3585380
  61.2627140  23.6677180 103.3662720  61.1935420  22.7267120 103.2051850
  62.0247000  23.7578590 103.9385290  53.4533810  14.2731700 105.6919340
  53.2736650  13.3757450 105.9722100  53.0513890  14.8203570 106.3666290
  62.2932310  16.4747560 103.5931650  62.6697130  15.6019440 103.4805320
  62.1951820  16.8106260 102.7022090  56.4237320  14.8473190  99.0549090
  56.5304070  15.7476920  99.3617850  55.5129680  14.7991160  98.7643740
  66.0756430  13.9698000 100.5259990  66.8966050  13.4794570 100.5685470
  66.1090510  14.5595660 101.2791830  54.0720480  16.7692200 104.3001680
  54.7530590  17.0330570 104.9189080  53.7568530  15.9293070 104.6339690
  58.2645050  17.8159560 103.3874270  58.7723270  18.3140530 104.0279290
  58.7958290  17.0394760 103.2113630  70.3655980  15.9864750 107.0903620
  69.6608150  16.3746460 106.5718730  70.6313900  16.6815040 107.6924550
  56.5481150  12.4558120 107.6537690  56.5499590  12.9730510 106.8483590
  55.7185460  11.9788300 107.6307620  62.9352240  22.5677430  99.1527590
  62.3169510  23.0326880  98.5890310  63.4475490  23.2604910  99.5697100
  57.7984000  22.0953300 105.8311190  57.4653380  22.7222220 106.4732260
  57.9750680  22.6215180 105.0512860  66.3117910  15.9098380 103.2987530
  65.6073480  16.1983270 103.8790640  66.6730070  16.7198490 102.9387090
  56.2296480  14.1668080 105.6608140  56.5713290  15.0110130 105.3662010
  55.2912290  14.3151820 105.7773480  57.0103100  24.0634100 107.6460370
  57.6277100  24.7385180 107.3644820  56.1496220  24.4722080 107.5547870
  67.9280690  25.5273510 105.5615010  67.2444210  26.1972620 105.5531680
  68.4674980  25.7254160 104.7959870  69.3804830  15.3553170 103.6896740
  68.4329740  15.3892150 103.8212170  69.7054820  16.1692120 104.0746100
  59.9124370  11.6550350 101.9852730  60.2199350  11.0997240 101.2688230
  58.9825070  11.7894810 101.8025720  65.4639430  27.3717640 104.2760190
  65.4766590  26.9679930 103.4082450  64.9114650  28.1464930 104.1721620
  66.7584850  24.0933860  99.3650360  66.6481180  23.1508190  99.4899780
  66.7553100  24.4549500 100.2513120  64.8624870  22.2747480 105.6042800
  65.2793660  22.0607590 104.7696260  65.5864690  22.5320270 106.1751420
  62.3005130  19.7199180  98.7212850  61.3734410  19.6536560  98.9501320
  62.4529950  20.6579310  98.6068090  62.2874210  15.9916180  95.7180010
  61.3477880  16.1530140  95.8032470  62.6057470  16.7101860  95.1716000
  68.8086970  20.6734700 105.6959040  67.9805600  20.7427790 105.2209170
  69.4037450  21.2589010 105.2274870  66.3302420  21.2819480  99.2248100
  65.7114840  20.9439030  98.5774400  66.3126870  20.6379240  99.9327290
  65.7728980  17.4604020 106.6413910  65.3600160  18.2857730 106.8953900
  65.0404930  16.8749060 106.4490270  57.9061770  20.2463920 101.5032580
  57.5018770  19.5341170 101.0078480  57.9924890  19.9017160 102.3920620
  58.3743470  23.9331480 103.6671790  58.0771760  23.3276950 102.9879570
  59.3243290  23.9708790 103.5561150  56.6190390  17.0207130 105.2831620
  57.1704980  17.1302470 104.5084870  57.1333900  17.3944730 105.9986850
  66.4629080  27.5063350 107.3294890  65.9859640  28.3135540 107.1367500
  65.7790870  26.8541680 107.4821100  57.4661900  23.6713170 110.3179590
  56.5690430  23.8953140 110.5652990  57.4914770  23.7948110 109.3690990
  64.5067120  20.5206290  96.2320850  64.9460400  19.6828720  96.0858670
  65.2195540  21.1535690  96.3184990  56.2933120  20.5426490 108.8936960
  56.1540890  21.4149290 109.2624360  55.4114480  20.1999300 108.7484900
  62.6162500  25.4602360 100.2002090  63.0558410  26.2026690  99.7857480
  62.5549390  25.7028930 101.1241050  68.0884260  11.7749100  94.5461890
  67.7756920  11.8675930  95.4460960  68.8496730  12.3530130  94.4959320
  54.6066400  19.1408900  99.0039230  54.4864000  19.8670990  98.3920500
  54.2967290  18.3711810  98.5267140  52.2451770  22.3124040 104.8107870
  52.3232190  22.4472810 103.8663590  52.8593450  21.6039930 105.0035990
  53.4899400  24.0124230 101.2214050  53.0827480  24.1538820 100.3667650
  54.3812410  23.7284390 101.0185260  69.4461540  24.4588140 109.5586290
  69.5724600  24.2200020 108.6403470  69.4882920  23.6272680 110.0308370
  63.3078280  28.1616140 108.1281100  63.8222950  28.0724150 108.9303530
  62.4647360  28.5075840 108.4209010  65.2832680  28.4471480  97.5565100
  65.1233820  28.1574420  98.4546930  65.1179390  27.6711610  97.0210330
  64.9858810  25.9559040  96.1163100  64.2923970  25.9536330  95.4565380
  65.7281670  25.5318360  95.6857270  64.5508740  27.5821750 100.1911590
  65.0065690  26.8011130 100.5050210  64.8901260  28.2928570 100.7352770
  69.2985550  16.5120600 110.5236030  68.6829820  17.0200270 109.9951490
  68.9781970  15.6118930 110.4661970  52.3011290  23.3538210 107.3502330
  52.4642330  22.8843570 106.5321700  52.7663740  22.8461770 108.0151170
  57.0730060  12.4843970 102.3862900  56.6298210  13.2653510 102.0547420
  57.6315050  12.8073860 103.0933840  61.3599870  15.3512490 107.9898220
  60.8979240  15.5595510 108.8018160  60.9577980  14.5371840 107.6868890
  66.3604380  16.5721440 109.1194880  65.5097970  16.2727190 109.4403950
  66.2006170  16.8163450 108.2078700  60.1888880  12.1054670  97.2668730
  59.5643060  12.1014540  97.9922040  60.1019000  11.2385630  96.8704700
  59.1105960  13.0291300 104.2452500  59.4078290  13.9354130 104.1644520
  59.6591520  12.5410080 103.6312070  56.8644280  17.6077540 100.1144150
  56.6385200  17.3914710 101.0190770  56.0836810  18.0406000  99.7690120
  64.0942040  17.6140910  98.7134800  63.4950930  18.3376710  98.5298420
  64.6421650  17.5517690  97.9311250  59.3043490  18.5063120 110.7804420
  59.2087090  17.5657850 110.6304820  60.1475470  18.7278190 110.3852490
  62.7006910  16.2504450 100.7438080  63.0936480  16.5676650  99.9306770
  63.0623760  15.3716330 100.8582600  54.4354030  14.9176790 108.9338200
  54.0417420  15.7652000 109.1410980  53.7472430  14.2803160 109.1246840
  51.7371080  12.8405250 102.9668280  51.4484130  13.4108110 103.6793260
  52.4816840  12.3609700 103.3299510  51.9241310  16.7825370  94.1771000
  51.8415980  17.7256130  94.3185990  51.5724370  16.6400280  93.2983350
  63.2862050  18.8410200 104.8388860  62.5543170  19.3497010 105.1878960
  62.8886390  18.0240180 104.5377640  59.7239440  15.5164400 103.2441350
  59.7275500  15.0754350 102.3945890  60.6190560  15.8381730 103.3513170
  55.5741820  15.3990890 102.2035560  55.2341870  15.8766120 102.9602610
  54.8119140  14.9456010 101.8436660  59.7859590  16.5176480  96.2348110
  59.9072410  16.4762960  97.1833930  59.4008100  17.3800630  96.0794840
  63.7487960  14.2943880 104.2511800  63.7660700  14.7452530 105.0953650
  63.5003540  13.3949520 104.4645240  58.7981090  18.8277620  95.6331410
  58.2297990  18.3795870  95.0067320  59.5070090  19.1870400  95.0996560
  67.1758710  11.7076060 110.0898180  67.5004480  10.9765720 110.6156160
  67.2115220  11.3889700 109.1879170  53.8750270  22.7289640 109.5098140
  53.4905060  22.0883310 110.1081100  54.1862460  23.4325760 110.0792870
  60.0247410  19.5766180 104.9906760  60.3917540  19.1024750 105.7368100
  59.8352470  20.4507750 105.3315100  52.8887900  14.3209870 101.1200230
  52.6034820  13.9565540 101.9578850  52.8266760  13.5890330 100.5063370
  57.8146780  18.6174820 107.3090970  57.5103850  19.4966800 107.5341330
  58.7693240  18.6774610 107.3448410  56.3428570  22.8235810  97.9057820
  55.5690830  22.2833430  97.7456540  57.0723200  22.3042420  97.5675580
  67.1016550  21.8201170 103.6984210  67.8215670  22.3156460 103.3080320
  66.8998370  21.1419060 103.0538080  62.5626490  13.2139130  97.8413600
  61.7491100  12.7152300  97.7658910  62.3688440  14.0537380  97.4249950
  62.4835350  21.8910230 109.5853210  62.4172660  20.9705900 109.3310800
  61.8540490  21.9885670 110.2997850  65.2774880  17.5858780  96.1375760
  66.1654500  17.8976010  95.9627100  65.2479970  16.7131030  95.7456340
  56.3865970  22.4916190 101.5436630  56.9044640  21.6884450 101.4893520
  55.9349990  22.4295330 102.3853460  61.2735470  23.7582470  96.8163930
  61.6151170  24.5024700  96.3207250  60.4448180  24.0713590  97.1788760
  53.8710510  19.4577560 108.4562330  53.5125450  20.1231410 109.0435670
  53.5765070  18.6261110 108.8274950  62.4152080  24.7130800 109.3357010
  62.4296620  23.7811760 109.1175920  61.7077180  24.7990560 109.9746780
  67.5489150  18.8970620  95.6055620  67.4652870  19.3284840  94.7552060
  68.2683340  19.3568970  96.0382440  68.6263290  21.3538140 108.6825590
  67.9011480  21.9466920 108.4854980  69.1538750  21.3461680 107.8838960
  68.5776400  25.7512880  98.3337750  67.9352560  25.0968500  98.6081470
  68.1907060  26.1567970  97.5578420  64.1562880  23.0798310 102.1809440
  64.5086700  22.4826440 101.5210810  63.2725210  22.7542540 102.3517690
  60.2426160  23.8396000  99.5879850  60.9297290  24.3865210  99.9687440
  59.4558580  24.3836730  99.6229460  59.5453370  20.8442030  99.2005210
  60.0016150  21.6547280  99.4265400  59.1941580  20.5265170 100.0323700
  61.8485980  26.3548370 106.4297510  62.4928200  26.5607750 107.1070930
  62.2115420  25.5936770 105.9768360  55.4465150  11.1879680  99.6727730
  55.3179780  11.1797580 100.6212650  54.6227170  11.5262770  99.3218740
  63.1218060  24.3580720 105.1474960  63.7640290  23.6573880 105.2607130
  63.6467410  25.1379160 104.9671850  66.9673780  24.6429340  94.8714100
  66.7411360  23.9259780  95.4638740  66.5769980  24.3941780  94.0335850
  64.8955680  25.1575620 108.3511020  65.2311920  25.7442310 109.0288940
  63.9756020  25.0268330 108.5808810  52.4459080  12.9470800 109.1334430
  51.7317600  13.1467720 109.7387040  52.8654120  12.1710370 109.5049230
  66.5490030  22.5601280  96.5328260  66.2611730  23.0213970  97.3206140
  67.3442200  22.0999050  96.8012480  52.7331670  26.9351060 110.1200960
  52.8422790  25.9945800 109.9796350  52.0812230  27.2005810 109.4714690
  58.7658430  26.0527400  96.4632230  58.7568530  26.7857090  95.8476740
  57.8456790  25.8058980  96.5559190  63.9397860  15.4393110 106.8835880
  64.3078680  14.6188320 107.2115450  63.0796060  15.4995000 107.2991530
  67.3059890  14.3950050  97.6923440  66.6773050  14.4995720  96.9781670
  66.8111810  14.6146830  98.4817320  61.7518030  26.1155640  95.1257420
  61.8530010  25.9119630  94.1959400  60.8519770  25.8613920  95.3305200
  59.2743920  16.6736000  99.1081320  58.5660070  17.1422340  99.5494930
  59.5588400  16.0158010  99.7426510  60.8999850  18.0932700 107.1073850
  61.3985100  18.5678520 107.7725700  61.0422800  17.1696220 107.3143880
  63.3059350  13.3986660 100.5477110  63.1827130  13.4172790  99.5986620
  64.2543910  13.4465600 100.6675510  60.3936140  28.6341960  99.8205090
  60.6477640  28.5963350  98.8984460  59.4448620  28.5075290  99.8133340
  57.4778940  14.9821080  96.4832030  58.3269470  15.4191230  96.4172220
  57.1110210  15.2941340  97.3104090  68.1066710  14.3100660 107.9502240
  67.6040310  15.0506060 108.2896050  68.9223370  14.6984660 107.6339030
  66.3988720  19.5533840 101.3963600  65.4578860  19.5684070 101.5711290
  66.7132790  18.7669800 101.8423900  55.0717120  18.6678510  95.6400450
  55.1520710  17.7206020  95.7517850  55.9636870  18.9985390  95.7461110
  68.4014300  26.7242690 103.0717860  68.5261720  27.5473860 103.5441670
  69.2679860  26.5133420 102.7242010  55.8731830  28.8173900 102.7434990
  56.6094310  28.2689360 103.0143560  56.2572750  29.6829910 102.6040980
  68.0364310  27.2174340  95.9897300  67.7505820  26.8039480  95.1751480
  67.8383860  28.1462050  95.8697820  59.5011540  23.2107620  94.4302910
  59.3962180  22.5959970  95.1564290  59.3335760  22.6873510  93.6465920
  59.6525860  21.8964420 110.4092140  58.8871530  22.4649420 110.3246810
  59.8341820  21.6040630 109.5160370  62.7414270  22.2727650  95.0344900
  62.1924370  22.7196950  95.6787640  63.3633530  21.7676900  95.5582570
  66.7949210  23.6269750 110.9667160  67.5358680  23.9645510 110.4634620
  66.0321890  23.7961810 110.4136930  58.4089390  21.2318570  96.9310200
  58.8305810  21.0658440  97.7741590  58.5340230  20.4218800  96.4365340
  56.5716810  17.2115120 109.7381180  56.0413270  16.7206070 109.1104520
  57.2404880  17.6399320 109.2039110  60.9217030  20.2556180  94.1787300
  61.4422690  19.5405200  93.8128450  61.5685430  20.8942050  94.4787810
  65.4694870  21.6784580 109.5022370  65.8835890  21.8329660 110.3512790
  64.5345870  21.8039800 109.6648150  57.0589110  14.1777490 109.8178470
  56.9645980  13.5598240 109.0929340  56.4786500  14.9043780 109.5908380
  59.8250550  12.7350730 106.8505860  59.3767850  12.7574990 106.0051410
  59.1915750  12.3369750 107.4476160  60.2310100  21.6305060 107.4718300
  60.6498210  22.4737790 107.2994540  59.3118730  21.7677100 107.2425080
  62.5674000  19.3621240 108.8556140  62.6870210  18.7662380 109.5950980
  63.4268000  19.3990930 108.4357440  64.9061900  19.9158430 107.4318650
  64.3797120  20.4401050 106.8283790  65.2493240  20.5485820 108.0628380
  57.3048290  17.3051800  93.8768360  57.1037350  16.4419160  94.2381700
  57.1340340  17.2185160  92.9389960  58.0817520  27.9358070 108.5876030
  57.5438610  28.6604130 108.2684730  58.3351480  27.4588410 107.7973370
  59.3342770  15.9042590 110.1131960  59.9242460  15.5958440 110.8009780
  58.5163010  15.4322340 110.2691860  64.1536200  15.5208400 110.3464980
  63.4651720  14.8589940 110.2814970  64.8742220  15.0746670 110.7913440
  64.7836600  12.1160030  96.4055240  65.0638890  11.2727930  96.7614660
  64.0102330  12.3483140  96.9193990  56.1031090  14.4052420  93.8646240
  56.4056990  14.4119850  92.9565390  56.8425680  14.0550280  94.3613900
  60.9379730  29.1709280 108.8462680  60.8638430  30.0744420 109.1535050
  60.0358570  28.8521180 108.8184750  59.3216020  13.3487040  94.8502440
  58.9738020  12.6711030  94.2704890  59.5228790  12.8876550  95.6645830
  61.4865060  28.3367790  96.4689040  62.3815850  28.6752760  96.4907800
  61.5182690  27.6147200  95.8413320  52.3407020  26.4983870 102.1496300
  52.6710030  25.6304930 101.9174940  52.7698020  26.7042390 102.9801260
  56.9368940  24.8292880  99.8098270  56.6364480  24.7057850 100.7102180
  56.8306430  23.9701470  99.4014000  52.8297230  27.3654460 104.8877930
  52.3928220  27.5455260 105.7202080  53.3974910  28.1229080 104.7459650
  68.4659410  26.8671460 109.1755240  67.8661400  26.9264020 108.4319160
  68.5953310  25.9276440 109.3052090  69.7060860  24.6089280  94.5124950
  68.8753820  24.6765930  94.9832180  69.8832690  25.4993400  94.2091810
  69.1617320  21.3536760  97.0159150  69.9236230  21.9233410  97.1218840
  69.1771690  20.7863960  97.7867460  52.6621660  19.8774690 101.2466810
  52.0070500  19.6086330 100.6026510  53.4999610  19.7679170 100.7968790
  70.1677290  22.2086860 101.8601080  70.5386120  21.4254180 101.4537050
  70.8079220  22.8975960 101.6818380  67.1511050  23.5923440 107.2731400
  66.3370890  24.0220600 107.5357190  67.5585250  24.2041850 106.6600450
  69.2136490  21.6471130  94.1731670  69.4885330  22.5550010  94.0450890
  69.0247230  21.5833660  95.1093660  65.6112100  14.6715980  95.4685300
  66.0296980  14.4846960  94.6281960  65.3048160  13.8195030  95.7788230
  69.1101830  19.5840120  99.1661100  68.7345430  18.8168050  98.7342390
  68.3804950  19.9662820  99.6536030  53.6997590  20.2627260 105.7870150
  54.0670630  20.1754660 106.6666170  53.1308410  19.4993810 105.6877010
  68.5001450  18.7311640 108.8000620  68.2687540  18.5024390 107.8998570
  68.7606000  19.6511190 108.7545510  53.2513590  17.1736350 109.6928570
  52.3569640  17.1403110 110.0322280  53.7911140  17.3723140 110.4579820
  51.8759740  17.0873620  97.1892140  50.9723820  17.3503820  97.0143800
  52.3600360  17.3584790  96.4092100  68.3852790  17.8097610 102.4668340
  68.9090270  17.3160260 101.8358510  68.9712210  17.9447970 103.2115910
  68.5642510  17.8937480 105.9887890  67.6145220  17.8601020 106.1032880
  68.7455520  18.8037590 105.7537660  54.4186950  16.1439160  95.0986520
  55.1278650  15.7222380  94.6133800  53.7026890  16.2114390  94.4669870
  54.0661110  12.1978490  94.1389170  54.7889240  12.7387430  94.4570390
  54.3385630  11.9241910  93.2630710  67.8752760  17.0670960  98.4060750
  68.3711880  16.8341830  99.1909630  67.6768830  16.2282800  97.9898390
  53.7553300  11.4484680 104.0411790  54.4029490  10.8982060 103.6006950
  54.1755140  11.7027830 104.8627600  69.3039920  15.7031910 100.9398430
  69.1939200  15.5487950 101.8780700  70.0647510  15.1752850 100.6973840
  67.6505640  11.6426040 107.3981430  68.2877860  12.2560180 107.7640620
  67.7980530  11.6786700 106.4530660  70.1930190  13.5339830  94.1804570
  71.1179500  13.4021010  93.9722860  70.1705980  13.6132650  95.1341020
  70.2668680  14.3050490  96.8061280  69.4720180  14.2395610  97.3354190
  70.4711960  15.2401130  96.7946630  67.2087100  28.3442040 100.7999670
  67.8046170  28.0226610 100.1234090  67.4665250  27.8713860 101.5912940
  53.5085300  11.6040350 106.7837110  53.1600120  12.0604170 107.5495290
  53.1773000  10.7097480 106.8659540  58.8155700  26.3319540 106.5500020
  58.5747060  26.5994100 105.6630540  59.7558340  26.5025270 106.6050880
  63.6584680  12.4522290 109.9448820  64.2725090  12.7701580 109.2829900
  64.2034240  11.9670880 110.5644680  70.0759860  28.3513920 107.3510660
  69.5818140  28.7482790 106.6337790  69.4673150  27.7263130 107.7447940
  54.1805940  11.1316550 110.0587880  54.7288930  10.9504600 109.2953990
  54.2461250  10.3410660 110.5944190  54.9537700  27.7222200 108.0688080
  54.3598020  27.5906900 108.8078120  54.9461540  26.8860340 107.6030180
  64.3992720  11.0154430 106.2718110  63.5252560  11.3489540 106.0691040
  64.2903470  10.5427610 107.0969980  65.3064700  13.2225300 107.6559830
  64.9778060  12.4077060 107.2761560  66.2547000  13.1795110 107.5325520
  67.7599310  28.9937340 104.6297400  67.3002280  29.7453150 104.2555420
  67.1311770  28.2743810 104.5712200  54.5849930  25.0880580 107.0196120
  53.8583990  24.4685870 106.9522070  54.6459080  25.4821190 106.1494200
  58.1895030  27.3025580 103.8045530  58.7060050  26.6912940 103.2793790
  58.8392410  27.8054360 104.2956540  60.9290530  28.1934070 104.6314510
  61.2168340  27.9388370 103.7547520  61.4413750  27.6411430 105.2220080
  62.1467540  11.9324270 105.2111020  61.3639330  12.4069770 105.4907780
  61.8530470  11.0279100 105.1024200  66.6988610  12.6347370 103.2560110
  67.1396700  12.5792470 102.4081710  66.4296200  13.5505380 103.3270290
  68.5627180  12.2662610 101.2668930  68.5015580  11.3223830 101.1199950
  69.3419210  12.3742700 101.8122390  52.8679930  28.4054970 100.2292880
  52.7001970  27.7725650 100.9274770  52.0014440  28.6114370  99.8787070
  53.4907950  12.2371750  97.7324740  54.2487310  12.3500630  97.1588770
  53.0285120  13.0740950  97.6868170  60.0321760  14.3511020 100.7227050
  59.2196270  13.9767910 100.3822930  60.5363400  13.5956100 101.0248240
  64.5346740  11.0153470 101.9610120  65.1376110  11.5873680 102.4358640
  63.7939730  11.5792910 101.7384020  67.6781340  11.4175030  97.2350400
  67.8731970  12.3158480  97.5017830  66.8911210  11.1862110  97.7283350
  55.8633100  12.7635800  96.2726710  56.3925860  11.9765600  96.1434660
  56.4961420  13.4426990  96.5062240  58.0570940  12.5010940  99.3272100
  57.4273680  11.7998250  99.4942230  57.5176080  13.2615070  99.1105260
  69.2307950  28.6575740  98.9956960  69.4060140  27.9713480  98.3517880
  68.5329520  29.1822790  98.6033630  56.2350390  25.1635310  96.5538600
  55.6059270  25.6320410  97.1024430  56.3498220  24.3184530  96.9884790
  63.6900110  19.2140970  82.7039800  63.6094160  18.2995580  82.4331510
  63.2764530  19.7108040  81.9979510  61.8218150  20.9919990  84.5849070
  61.0460250  20.5120430  84.8747640  62.4731080  20.3125640  84.4105230
  54.2475930  16.2641690  79.2467220  53.3592630  16.6057660  79.1447100
  54.5317120  16.0642010  78.3548050  53.4533810  14.2731700  86.9175850
  53.2736650  13.3757450  87.1978610  53.0513890  14.8203570  87.5922800
  62.2932310  16.4747560  84.8188160  62.6697130  15.6019440  84.7061830
  62.1951820  16.8106260  83.9278600  56.4237320  14.8473190  80.2805600
  56.5304070  15.7476920  80.5874360  55.5129680  14.7991160  79.9900250
  66.0756430  13.9698000  81.7516500  66.8966050  13.4794570  81.7941980
  66.1090510  14.5595660  82.5048340  70.3655980  15.9864750  88.3160130
  69.6608150  16.3746460  87.7975240  70.6313900  16.6815040  88.9181060
  56.5481150  12.4558120  88.8794200  56.5499590  12.9730510  88.0740100
  55.7185460  11.9788300  88.8564130  62.9352240  22.5677430  80.3784100
  62.3169510  23.0326880  79.8146820  63.4475490  23.2604910  80.7953610
  66.3117910  15.9098380  84.5244040  65.6073480  16.1983270  85.1047150
  66.6730070  16.7198490  84.1643600  56.2296480  14.1668080  86.8864650
  56.5713290  15.0110130  86.5918520  55.2912290  14.3151820  87.0029990
  52.3035440  23.2533960  77.7523730  51.9263420  23.7421060  77.0208630
  52.5608510  23.9259240  78.3830260  69.3804830  15.3553170  84.9153250
  68.4329740  15.3892150  85.0468680  69.7054820  16.1692120  85.3002610
  59.9124370  11.6550350  83.2109240  60.2199350  11.0997240  82.4944740
  58.9825070  11.7894810  83.0282230  64.8624870  22.2747480  86.8299310
  65.2793660  22.0607590  85.9952770  65.5864690  22.5320270  87.4007930
  62.3005130  19.7199180  79.9469360  61.3734410  19.6536560  80.1757830
  62.4529950  20.6579310  79.8324600  62.2874210  15.9916180  76.9436520
  61.3477880  16.1530140  77.0288980  62.6057470  16.7101860  76.3972510
  68.8086970  20.6734700  86.9215550  67.9805600  20.7427790  86.4465680
  69.4037450  21.2589010  86.4531380  66.3302420  21.2819480  80.4504610
  65.7114840  20.9439030  79.8030910  66.3126870  20.6379240  81.1583800
  65.7728980  17.4604020  87.8670420  65.3600160  18.2857730  88.1210410
  65.0404930  16.8749060  87.6746780  58.0913470  26.4848190  92.3278620
  58.0628900  26.8891140  91.4607050  57.9278440  25.5558550  92.1650220
  68.0884260  11.7749100  75.7718400  67.7756920  11.8675930  76.6717470
  68.8496730  12.3530130  75.7215830  70.0428290  27.2675290  93.6242790
  70.5188010  27.7458180  94.3031870  70.6635450  27.1992780  92.8988290
  69.4461540  24.4588140  90.7842800  69.5724600  24.2200020  89.8659980
  69.4882920  23.6272680  91.2564880  69.2985550  16.5120600  91.7492540
  68.6829820  17.0200270  91.2208000  68.9781970  15.6118930  91.6918480
  57.0730060  12.4843970  83.6119410  56.6298210  13.2653510  83.2803930
  57.6315050  12.8073860  84.3190350  61.3599870  15.3512490  89.2154730
  60.8979240  15.5595510  90.0274670  60.9577980  14.5371840  88.9125400
  66.3604380  16.5721440  90.3451390  65.5097970  16.2727190  90.6660460
  66.2006170  16.8163450  89.4335210  63.4554090  18.0723190  92.4450180
  63.7807500  17.2386940  92.1052410  64.2434420  18.5951710  92.5928510
  60.1888880  12.1054670  78.4925240  59.5643060  12.1014540  79.2178550
  60.1019000  11.2385630  78.0961210  59.1105960  13.0291300  85.4709010
  59.4078290  13.9354130  85.3901030  59.6591520  12.5410080  84.8568580
  64.0942040  17.6140910  79.9391310  63.4950930  18.3376710  79.7554930
  64.6421650  17.5517690  79.1567760  59.3043490  18.5063120  92.0060930
  59.2087090  17.5657850  91.8561330  60.1475470  18.7278190  91.6109000
  62.7006910  16.2504450  81.9694590  63.0936480  16.5676650  81.1563280
  63.0623760  15.3716330  82.0839110  61.0099080  15.0011760  93.2291450
  60.3197400  14.8083960  93.8637540  61.7531380  15.2846400  93.7615750
  51.7371080  12.8405250  84.1924790  51.4484130  13.4108110  84.9049770
  52.4816840  12.3609700  84.5556020  63.2862050  18.8410200  86.0645370
  62.5543170  19.3497010  86.4135470  62.8886390  18.0240180  85.7634150
  59.7859590  16.5176480  77.4604620  59.9072410  16.4762960  78.4090440
  59.4008100  17.3800630  77.3051350  63.7487960  14.2943880  85.4768310
  63.7660700  14.7452530  86.3210160  63.5003540  13.3949520  85.6901750
  67.1758710  11.7076060  91.3154690  67.5004480  10.9765720  91.8412670
  67.2115220  11.3889700  90.4135680  52.8887900  14.3209870  82.3456740
  52.6034820  13.9565540  83.1835360  52.8266760  13.5890330  81.7319880
  67.1016550  21.8201170  84.9240720  67.8215670  22.3156460  84.5336830
  66.8998370  21.1419060  84.2794590  62.5626490  13.2139130  79.0670110
  61.7491100  12.7152300  78.9915420  62.3688440  14.0537380  78.6506460
  65.2774880  17.5858780  77.3632270  66.1654500  17.8976010  77.1883610
  65.2479970  16.7131030  76.9712850  67.5489150  18.8970620  76.8312130
  67.4652870  19.3284840  75.9808570  68.2683340  19.3568970  77.2638950
  68.6263290  21.3538140  89.9082100  67.9011480  21.9466920  89.7111490
  69.1538750  21.3461680  89.1095470  64.1562880  23.0798310  83.4065950
  64.5086700  22.4826440  82.7467320  63.2725210  22.7542540  83.5774200
  55.4465150  11.1879680  80.8984240  55.3179780  11.1797580  81.8469160
  54.6227170  11.5262770  80.5475250  63.1218060  24.3580720  86.3731470
  63.7640290  23.6573880  86.4863640  63.6467410  25.1379160  86.1928360
  52.4459080  12.9470800  90.3590940  51.7317600  13.1467720  90.9643550
  52.8654120  12.1710370  90.7305740  60.7244260  25.2066950  92.7455590
  60.4041130  24.4876190  93.2901280  60.0502620  25.8822020  92.8191650
  63.9397860  15.4393110  88.1092390  64.3078680  14.6188320  88.4371960
  63.0796060  15.4995000  88.5248040  67.3059890  14.3950050  78.9179950
  66.6773050  14.4995720  78.2038180  66.8111810  14.6146830  79.7073830
  60.8999850  18.0932700  88.3330360  61.3985100  18.5678520  88.9982210
  61.0422800  17.1696220  88.5400390  63.3059350  13.3986660  81.7733620
  63.1827130  13.4172790  80.8243130  64.2543910  13.4465600  81.8932020
  57.4778940  14.9821080  77.7088540  58.3269470  15.4191230  77.6428730
  57.1110210  15.2941340  78.5360600  68.1066710  14.3100660  89.1758750
  67.6040310  15.0506060  89.5152560  68.9223370  14.6984660  88.8595540
  66.3988720  19.5533840  82.6220110  65.4578860  19.5684070  82.7967800
  66.7132790  18.7669800  83.0680410  54.8790110  28.0019970  93.1577080
  55.6802840  28.3232020  93.5712480  54.3641930  27.6415550  93.8796990
  63.7154740  24.1099840  93.1052490  63.1092900  24.1331440  92.3648240
  63.4108850  23.3782880  93.6419740  59.6525860  21.8964420  91.6348650
  58.8871530  22.4649420  91.5503320  59.8341820  21.6040630  90.7416880
  66.7949210  23.6269750  92.1923670  67.5358680  23.9645510  91.6891130
  66.0321890  23.7961810  91.6393440  60.9217030  20.2556180  75.4043810
  61.4422690  19.5405200  75.0384960  61.5685430  20.8942050  75.7044320
  65.4694870  21.6784580  90.7278880  65.8835890  21.8329660  91.5769300
  64.5345870  21.8039800  90.8904660  65.9417040  19.0180740  92.7318030
  66.5237810  18.2633060  92.6438510  66.1178810  19.5488180  91.9549510
  57.0589110  14.1777490  91.0434980  56.9645980  13.5598240  90.3185850
  56.4786500  14.9043780  90.8164890  59.8250550  12.7350730  88.0762370
  59.3767850  12.7574990  87.2307920  59.1915750  12.3369750  88.6732670
  62.5674000  19.3621240  90.0812650  62.6870210  18.7662380  90.8207490
  63.4268000  19.3990930  89.6613950  64.9061900  19.9158430  88.6575160
  64.3797120  20.4401050  88.0540300  65.2493240  20.5485820  89.2884890
  59.3342770  15.9042590  91.3388470  59.9242460  15.5958440  92.0266290
  58.5163010  15.4322340  91.4948370  64.1536200  15.5208400  91.5721490
  63.4651720  14.8589940  91.5071480  64.8742220  15.0746670  92.0169950
  64.7836600  12.1160030  77.6311750  65.0638890  11.2727930  77.9871170
  64.0102330  12.3483140  78.1450500  56.1031090  14.4052420  75.0902750
  56.4056990  14.4119850  74.1821900  56.8425680  14.0550280  75.5870410
  59.3216020  13.3487040  76.0758950  58.9738020  12.6711030  75.4961400
  59.5228790  12.8876550  76.8902340  69.1617320  21.3536760  78.2415660
  69.9236230  21.9233410  78.3475350  69.1771690  20.7863960  79.0123970
  70.1677290  22.2086860  83.0857590  70.5386120  21.4254180  82.6793560
  70.8079220  22.8975960  82.9074890  67.1511050  23.5923440  88.4987910
  66.3370890  24.0220600  88.7613700  67.5585250  24.2041850  87.8856960
  65.6112100  14.6715980  76.6941810  66.0296980  14.4846960  75.8538470
  65.3048160  13.8195030  77.0044740  69.1101830  19.5840120  80.3917610
  68.7345430  18.8168050  79.9598900  68.3804950  19.9662820  80.8792540
  68.5001450  18.7311640  90.0257130  68.2687540  18.5024390  89.1255080
  68.7606000  19.6511190  89.9802020  66.9389520  13.9568070  92.8036830
  67.8159700  13.9651470  93.1870830  66.9510360  13.2198910  92.1929180
  51.8759740  17.0873620  78.4148650  50.9723820  17.3503820  78.2400310
  52.3600360  17.3584790  77.6348610  68.3852790  17.8097610  83.6924850
  68.9090270  17.3160260  83.0615020  68.9712210  17.9447970  84.4372420
  68.5642510  17.8937480  87.2144400  67.6145220  17.8601020  87.3289390
  68.7455520  18.8037590  86.9794170  54.0661110  12.1978490  75.3645680
  54.7889240  12.7387430  75.6826900  54.3385630  11.9241910  74.4887220
  67.8752760  17.0670960  79.6317260  68.3711880  16.8341830  80.4166140
  67.6768830  16.2282800  79.2154900  53.7553300  11.4484680  85.2668300
  54.4029490  10.8982060  84.8263460  54.1755140  11.7027830  86.0884110
  69.3039920  15.7031910  82.1654940  69.1939200  15.5487950  83.1037210
  70.0647510  15.1752850  81.9230350  67.6505640  11.6426040  88.6237940
  68.2877860  12.2560180  88.9897130  67.7980530  11.6786700  87.6787170
  70.1930190  13.5339830  75.4061080  71.1179500  13.4021010  75.1979370
  70.1705980  13.6132650  76.3597530  70.2668680  14.3050490  78.0317790
  69.4720180  14.2395610  78.5610700  70.4711960  15.2401130  78.0203140
  53.5085300  11.6040350  88.0093620  53.1600120  12.0604170  88.7751800
  53.1773000  10.7097480  88.0916050  61.0210120  12.7952230  91.5313040
  60.9599010  13.3874060  92.2808450  61.9610500  12.6878190  91.3863300
  63.6584680  12.4522290  91.1705330  64.2725090  12.7701580  90.5086410
  64.2034240  11.9670880  91.7901190  54.1805940  11.1316550  91.2844390
  54.7288930  10.9504600  90.5210500  54.2461250  10.3410660  91.8200700
  64.3992720  11.0154430  87.4974620  63.5252560  11.3489540  87.2947550
  64.2903470  10.5427610  88.3226490  65.3064700  13.2225300  88.8816340
  64.9778060  12.4077060  88.5018070  66.2547000  13.1795110  88.7582030
  62.1467540  11.9324270  86.4367530  61.3639330  12.4069770  86.7164290
  61.8530470  11.0279100  86.3280710  66.6988610  12.6347370  84.4816620
  67.1396700  12.5792470  83.6338220  66.4296200  13.5505380  84.5526800
  68.5627180  12.2662610  82.4925440  68.5015580  11.3223830  82.3456460
  69.3419210  12.3742700  83.0378900  53.4907950  12.2371750  78.9581250
  54.2487310  12.3500630  78.3845280  53.0285120  13.0740950  78.9124680
  60.0321760  14.3511020  81.9483560  59.2196270  13.9767910  81.6079440
  60.5363400  13.5956100  82.2504750  64.5346740  11.0153470  83.1866630
  65.1376110  11.5873680  83.6615150  63.7939730  11.5792910  82.9640530
  67.6781340  11.4175030  78.4606910  67.8731970  12.3158480  78.7274340
  66.8911210  11.1862110  78.9539860  55.8633100  12.7635800  77.4983220
  56.3925860  11.9765600  77.3691170  56.4961420  13.4426990  77.7318750
  58.0570940  12.5010940  80.5528610  57.4273680  11.7998250  80.7198740
  57.5176080  13.2615070  80.3361770  58.1826500  11.7794920  92.9881100
  57.9010770  12.2828520  92.2241920  58.5646200  10.9816670  92.6223230
  64.7841960  11.1948500  93.5661570  64.6707410  11.5143110  94.4613090
  65.6011700  11.5961010  93.2698850  62.2932310  16.4747560  66.0444670
  62.6697130  15.6019440  65.9318340  62.1951820  16.8106260  65.1535110
  66.0756430  13.9698000  62.9773010  66.8966050  13.4794570  63.0198490
  66.1090510  14.5595660  63.7304850  70.3655980  15.9864750  69.5416640
  69.6608150  16.3746460  69.0231750  70.6313900  16.6815040  70.1437570
  56.5481150  12.4558120  70.1050710  56.5499590  12.9730510  69.2996610
  55.7185460  11.9788300  70.0820640  66.3117910  15.9098380  65.7500550
  65.6073480  16.1983270  66.3303660  66.6730070  16.7198490  65.3900110
  69.3804830  15.3553170  66.1409760  68.4329740  15.3892150  66.2725190
  69.7054820  16.1692120  66.5259120  59.9124370  11.6550350  64.4365750
  60.2199350  11.0997240  63.7201250  58.9825070  11.7894810  64.2538740
  68.8086970  20.6734700  68.1472060  67.9805600  20.7427790  67.6722190
  69.4037450  21.2589010  67.6787890  65.7728980  17.4604020  69.0926930
  65.3600160  18.2857730  69.3466920  65.0404930  16.8749060  68.9003290
  56.2933120  20.5426490  71.3449980  56.1540890  21.4149290  71.7137380
  55.4114480  20.1999300  71.1997920  68.0884260  11.7749100  56.9974910
  67.7756920  11.8675930  57.8973980  68.8496730  12.3530130  56.9472340
  63.3078280  28.1616140  70.5794120  63.8222950  28.0724150  71.3816550
  62.4647360  28.5075840  70.8722030  69.2985550  16.5120600  72.9749050
  68.6829820  17.0200270  72.4464510  68.9781970  15.6118930  72.9174990
  61.3599870  15.3512490  70.4411240  60.8979240  15.5595510  71.2531180
  60.9577980  14.5371840  70.1381910  66.3604380  16.5721440  71.5707900
  65.5097970  16.2727190  71.8916970  66.2006170  16.8163450  70.6591720
  63.4554090  18.0723190  73.6706690  63.7807500  17.2386940  73.3308920
  64.2434420  18.5951710  73.8185020  59.1105960  13.0291300  66.6965520
  59.4078290  13.9354130  66.6157540  59.6591520  12.5410080  66.0825090
  59.3043490  18.5063120  73.2317440  59.2087090  17.5657850  73.0817840
  60.1475470  18.7278190  72.8365510  61.0099080  15.0011760  74.4547960
  60.3197400  14.8083960  75.0894050  61.7531380  15.2846400  74.9872260
  51.7371080  12.8405250  65.4181300  51.4484130  13.4108110  66.1306280
  52.4816840  12.3609700  65.7812530  63.2862050  18.8410200  67.2901880
  62.5543170  19.3497010  67.6391980  62.8886390  18.0240180  66.9890660
  63.7487960  14.2943880  66.7024820  63.7660700  14.7452530  67.5466670
  63.5003540  13.3949520  66.9158260  67.1758710  11.7076060  72.5411200
  67.5004480  10.9765720  73.0669180  67.2115220  11.3889700  71.6392190
  53.8750270  22.7289640  71.9611160  53.4905060  22.0883310  72.5594120
  54.1862460  23.4325760  72.5305890  57.8146780  18.6174820  69.7603990
  57.5103850  19.4966800  69.9854350  58.7693240  18.6774610  69.7961430
  62.4835350  21.8910230  72.0366230  62.4172660  20.9705900  71.7823820
  61.8540490  21.9885670  72.7510870  53.8710510  19.4577560  70.9075350
  53.5125450  20.1231410  71.4948690  53.5765070  18.6261110  71.2787970
  57.0723630  19.9161800  73.7914900  56.7723770  20.0618980  72.8942720
  57.8434870  19.3567090  73.6988290  68.6263290  21.3538140  71.1338610
  67.9011480  21.9466920  70.9368000  69.1538750  21.3461680  70.3351980
  52.4459080  12.9470800  71.5847450  51.7317600  13.1467720  72.1900060
  52.8654120  12.1710370  71.9562250  63.9397860  15.4393110  69.3348900
  64.3078680  14.6188320  69.6628470  63.0796060  15.4995000  69.7504550
  67.3059890  14.3950050  60.1436460  66.6773050  14.4995720  59.4294690
  66.8111810  14.6146830  60.9330340  60.8999850  18.0932700  69.5586870
  61.3985100  18.5678520  70.2238720  61.0422800  17.1696220  69.7656900
  63.3059350  13.3986660  62.9990130  63.1827130  13.4172790  62.0499640
  64.2543910  13.4465600  63.1188530  68.1066710  14.3100660  70.4015260
  67.6040310  15.0506060  70.7409070  68.9223370  14.6984660  70.0852050
  55.8731830  28.8173900  65.1948010  56.6094310  28.2689360  65.4656580
  56.2572750  29.6829910  65.0554000  63.7154740  24.1099840  74.3309000
  63.1092900  24.1331440  73.5904750  63.4108850  23.3782880  74.8676250
  52.5987920  20.4893430  73.3269640  53.1026940  19.9100710  73.8985870
  51.8595340  20.7733660  73.8646010  59.6525860  21.8964420  72.8605160
  58.8871530  22.4649420  72.7759830  59.8341820  21.6040630  71.9673390
  56.5716810  17.2115120  72.1894200  56.0413270  16.7206070  71.5617540
  57.2404880  17.6399320  71.6552130  65.4694870  21.6784580  71.9535390
  65.8835890  21.8329660  72.8025810  64.5345870  21.8039800  72.1161170
  65.9417040  19.0180740  73.9574540  66.5237810  18.2633060  73.8695020
  66.1178810  19.5488180  73.1806020  57.0589110  14.1777490  72.2691490
  56.9645980  13.5598240  71.5442360  56.4786500  14.9043780  72.0421400
  59.8250550  12.7350730  69.3018880  59.3767850  12.7574990  68.4564430
  59.1915750  12.3369750  69.8989180  62.5674000  19.3621240  71.3069160
  62.6870210  18.7662380  72.0464000  63.4268000  19.3990930  70.8870460
  64.9061900  19.9158430  69.8831670  64.3797120  20.4401050  69.2796810
  65.2493240  20.5485820  70.5141400  59.3342770  15.9042590  72.5644980
  59.9242460  15.5958440  73.2522800  58.5163010  15.4322340  72.7204880
  64.1536200  15.5208400  72.7978000  63.4651720  14.8589940  72.7327990
  64.8742220  15.0746670  73.2426460  64.7836600  12.1160030  58.8568260
  65.0638890  11.2727930  59.2127680  64.0102330  12.3483140  59.3707010
  60.9379730  29.1709280  71.2975700  60.8638430  30.0744420  71.6048070
  60.0358570  28.8521180  71.2697770  69.2136490  21.6471130  56.6244690
  69.4885330  22.5550010  56.4963910  69.0247230  21.5833660  57.5606680
  65.6112100  14.6715980  57.9198320  66.0296980  14.4846960  57.0794980
  65.3048160  13.8195030  58.2301250  68.5001450  18.7311640  71.2513640
  68.2687540  18.5024390  70.3511590  68.7606000  19.6511190  71.2058530
  66.9389520  13.9568070  74.0293340  67.8159700  13.9651470  74.4127340
  66.9510360  13.2198910  73.4185690  68.3852790  17.8097610  64.9181360
  68.9090270  17.3160260  64.2871530  68.9712210  17.9447970  65.6628930
  68.5642510  17.8937480  68.4400910  67.6145220  17.8601020  68.5545900
  68.7455520  18.8037590  68.2050680  53.7553300  11.4484680  66.4924810
  54.4029490  10.8982060  66.0519970  54.1755140  11.7027830  67.3140620
  69.3039920  15.7031910  63.3911450  69.1939200  15.5487950  64.3293720
  70.0647510  15.1752850  63.1486860  67.6505640  11.6426040  69.8494450
  68.2877860  12.2560180  70.2153640  67.7980530  11.6786700  68.9043680
  70.1930190  13.5339830  56.6317590  71.1179500  13.4021010  56.4235880
  70.1705980  13.6132650  57.5854040  70.2668680  14.3050490  59.2574300
  69.4720180  14.2395610  59.7867210  70.4711960  15.2401130  59.2459650
  53.5085300  11.6040350  69.2350130  53.1600120  12.0604170  70.0008310
  53.1773000  10.7097480  69.3172560  61.0210120  12.7952230  72.7569550
  60.9599010  13.3874060  73.5064960  61.9610500  12.6878190  72.6119810
  63.6584680  12.4522290  72.3961840  64.2725090  12.7701580  71.7342920
  64.2034240  11.9670880  73.0157700  54.1805940  11.1316550  72.5100900
  54.7288930  10.9504600  71.7467010  54.2461250  10.3410660  73.0457210
  64.3992720  11.0154430  68.7231130  63.5252560  11.3489540  68.5204060
  64.2903470  10.5427610  69.5483000  65.3064700  13.2225300  70.1072850
  64.9778060  12.4077060  69.7274580  66.2547000  13.1795110  69.9838540
  62.1467540  11.9324270  67.6624040  61.3639330  12.4069770  67.9420800
  61.8530470  11.0279100  67.5537220  66.6988610  12.6347370  65.7073130
  67.1396700  12.5792470  64.8594730  66.4296200  13.5505380  65.7783310
  68.5627180  12.2662610  63.7181950  68.5015580  11.3223830  63.5712970
  69.3419210  12.3742700  64.2635410  64.5346740  11.0153470  64.4123140
  65.1376110  11.5873680  64.8871660  63.7939730  11.5792910  64.1897040
  67.6781340  11.4175030  59.6863420  67.8731970  12.3158480  59.9530850
  66.8911210  11.1862110  60.1796370  58.1826500  11.7794920  74.2137610
  57.9010770  12.2828520  73.4498430  58.5646200  10.9816670  73.8479740
  64.7841960  11.1948500  74.7918080  64.6707410  11.5143110  75.6869600
  65.6011700  11.5961010  74.4955360  63.6900110  19.2140970  45.1552820
  63.6094160  18.2995580  44.8844530  63.2764530  19.7108040  44.4492530
  61.8218150  20.9919990  47.0362090  61.0460250  20.5120430  47.3260660
  62.4731080  20.3125640  46.8618250  55.8383980  21.3039800  47.9137850
  55.0068860  21.0488510  48.3134360  56.4464960  21.3750570  48.6495770
  65.8425580  25.3980180  45.8161220  65.3807110  24.6267420  46.1448390
  66.6551130  25.4246250  46.3213670  54.2475930  16.2641690  41.6980240
  53.3592630  16.6057660  41.5960120  54.5317120  16.0642010  40.8061070
  62.0688890  27.6838190  45.4365210  61.4500330  28.1395690  44.8659650
  62.9240670  27.8389650  45.0354910  61.2627140  23.6677180  47.0432250
  61.1935420  22.7267120  46.8821380  62.0247000  23.7578590  47.6154820
  53.4533810  14.2731700  49.3688870  53.2736650  13.3757450  49.6491630
  53.0513890  14.8203570  50.0435820  62.2932310  16.4747560  47.2701180
  62.6697130  15.6019440  47.1574850  62.1951820  16.8106260  46.3791620
  56.4237320  14.8473190  42.7318620  56.5304070  15.7476920  43.0387380
  55.5129680  14.7991160  42.4413270  66.0756430  13.9698000  44.2029520
  66.8966050  13.4794570  44.2455000  66.1090510  14.5595660  44.9561360
  58.2645050  17.8159560  47.0643800  58.7723270  18.3140530  47.7048820
  58.7958290  17.0394760  46.8883160  70.3655980  15.9864750  50.7673150
  69.6608150  16.3746460  50.2488260  70.6313900  16.6815040  51.3694080
  56.5481150  12.4558120  51.3307220  56.5499590  12.9730510  50.5253120
  55.7185460  11.9788300  51.3077150  62.9352240  22.5677430  42.8297120
  62.3169510  23.0326880  42.2659840  63.4475490  23.2604910  43.2466630
  57.7984000  22.0953300  49.5080720  57.4653380  22.7222220  50.1501790
  57.9750680  22.6215180  48.7282390  66.3117910  15.9098380  46.9757060
  65.6073480  16.1983270  47.5560170  66.6730070  16.7198490  46.6156620
  56.2296480  14.1668080  49.3377670  56.5713290  15.0110130  49.0431540
  55.2912290  14.3151820  49.4543010  52.3035440  23.2533960  40.2036750
  51.9263420  23.7421060  39.4721650  52.5608510  23.9259240  40.8343280
  67.9280690  25.5273510  49.2384540  67.2444210  26.1972620  49.2301210
  68.4674980  25.7254160  48.4729400  69.3804830  15.3553170  47.3666270
  68.4329740  15.3892150  47.4981700  69.7054820  16.1692120  47.7515630
  59.9124370  11.6550350  45.6622260  60.2199350  11.0997240  44.9457760
  58.9825070  11.7894810  45.4795250  65.4639430  27.3717640  47.9529720
  65.4766590  26.9679930  47.0851980  64.9114650  28.1464930  47.8491150
  66.7584850  24.0933860  43.0419890  66.6481180  23.1508190  43.1669310
  66.7553100  24.4549500  43.9282650  64.8624870  22.2747480  49.2812330
  65.2793660  22.0607590  48.4465790  65.5864690  22.5320270  49.8520950
  62.3005130  19.7199180  42.3982380  61.3734410  19.6536560  42.6270850
  62.4529950  20.6579310  42.2837620  62.2874210  15.9916180  39.3949540
  61.3477880  16.1530140  39.4802000  62.6057470  16.7101860  38.8485530
  68.8086970  20.6734700  49.3728570  67.9805600  20.7427790  48.8978700
  69.4037450  21.2589010  48.9044400  66.3302420  21.2819480  42.9017630
  65.7114840  20.9439030  42.2543930  66.3126870  20.6379240  43.6096820
  65.7728980  17.4604020  50.3183440  65.3600160  18.2857730  50.5723430
  65.0404930  16.8749060  50.1259800  57.9061770  20.2463920  45.1802110
  57.5018770  19.5341170  44.6848010  57.9924890  19.9017160  46.0690150
  58.3743470  23.9331480  47.3441320  58.0771760  23.3276950  46.6649100
  59.3243290  23.9708790  47.2330680  56.6190390  17.0207130  48.9601150
  57.1704980  17.1302470  48.1854400  57.1333900  17.3944730  49.6756380
  66.4629080  27.5063350  51.0064420  65.9859640  28.3135540  50.8137030
  65.7790870  26.8541680  51.1590630  64.5067120  20.5206290  39.9090380
  64.9460400  19.6828720  39.7628200  65.2195540  21.1535690  39.9954520
  62.6162500  25.4602360  43.8771620  63.0558410  26.2026690  43.4627010
  62.5549390  25.7028930  44.8010580  68.0884260  11.7749100  38.2231420
  67.7756920  11.8675930  39.1230490  68.8496730  12.3530130  38.1728850
  54.6066400  19.1408900  42.6808760  54.4864000  19.8670990  42.0690030
  54.2967290  18.3711810  42.2036670  69.4461540  24.4588140  53.2355820
  69.5724600  24.2200020  52.3173000  69.4882920  23.6272680  53.7077900
  63.3078280  28.1616140  51.8050630  63.8222950  28.0724150  52.6073060
  62.4647360  28.5075840  52.0978540  65.2832680  28.4471480  41.2334630
  65.1233820  28.1574420  42.1316460  65.1179390  27.6711610  40.6979860
  64.9858810  25.9559040  39.7932630  64.2923970  25.9536330  39.1334910
  65.7281670  25.5318360  39.3626800  64.5508740  27.5821750  43.8681120
  65.0065690  26.8011130  44.1819740  64.8901260  28.2928570  44.4122300
  69.2985550  16.5120600  54.2005560  68.6829820  17.0200270  53.6721020
  68.9781970  15.6118930  54.1431500  57.0730060  12.4843970  46.0632430
  56.6298210  13.2653510  45.7316950  57.6315050  12.8073860  46.7703370
  61.3599870  15.3512490  51.6667750  60.8979240  15.5595510  52.4787690
  60.9577980  14.5371840  51.3638420  66.3604380  16.5721440  52.7964410
  65.5097970  16.2727190  53.1173480  66.2006170  16.8163450  51.8848230
  60.1888880  12.1054670  40.9438260  59.5643060  12.1014540  41.6691570
  60.1019000  11.2385630  40.5474230  59.1105960  13.0291300  47.9222030
  59.4078290  13.9354130  47.8414050  59.6591520  12.5410080  47.3081600
  56.8644280  17.6077540  43.7913680  56.6385200  17.3914710  44.6960300
  56.0836810  18.0406000  43.4459650  64.0942040  17.6140910  42.3904330
  63.4950930  18.3376710  42.2067950  64.6421650  17.5517690  41.6080780
  62.7006910  16.2504450  44.4207610  63.0936480  16.5676650  43.6076300
  63.0623760  15.3716330  44.5352130  54.4354030  14.9176790  52.6107730
  54.0417420  15.7652000  52.8180510  53.7472430  14.2803160  52.8016370
  51.7371080  12.8405250  46.6437810  51.4484130  13.4108110  47.3562790
  52.4816840  12.3609700  47.0069040  51.9241310  16.7825370  37.8540530
  51.8415980  17.7256130  37.9955520  51.5724370  16.6400280  36.9752880
  63.2862050  18.8410200  48.5158390  62.5543170  19.3497010  48.8648490
  62.8886390  18.0240180  48.2147170  59.7239440  15.5164400  46.9210880
  59.7275500  15.0754350  46.0715420  60.6190560  15.8381730  47.0282700
  55.5741820  15.3990890  45.8805090  55.2341870  15.8766120  46.6372140
  54.8119140  14.9456010  45.5206190  59.7859590  16.5176480  39.9117640
  59.9072410  16.4762960  40.8603460  59.4008100  17.3800630  39.7564370
  63.7487960  14.2943880  47.9281330  63.7660700  14.7452530  48.7723180
  63.5003540  13.3949520  48.1414770  58.7981090  18.8277620  39.3100940
  58.2297990  18.3795870  38.6836850  59.5070090  19.1870400  38.7766090
  67.1758710  11.7076060  53.7667710  67.5004480  10.9765720  54.2925690
  67.2115220  11.3889700  52.8648700  60.0247410  19.5766180  48.6676290
  60.3917540  19.1024750  49.4137630  59.8352470  20.4507750  49.0084630
  52.8887900  14.3209870  44.7969760  52.6034820  13.9565540  45.6348380
  52.8266760  13.5890330  44.1832900  56.3428570  22.8235810  41.5827350
  55.5690830  22.2833430  41.4226070  57.0723200  22.3042420  41.2445110
  67.1016550  21.8201170  47.3753740  67.8215670  22.3156460  46.9849850
  66.8998370  21.1419060  46.7307610  62.5626490  13.2139130  41.5183130
  61.7491100  12.7152300  41.4428440  62.3688440  14.0537380  41.1019480
  65.2774880  17.5858780  39.8145290  66.1654500  17.8976010  39.6396630
  65.2479970  16.7131030  39.4225870  56.3865970  22.4916190  45.2206160
  56.9044640  21.6884450  45.1663050  55.9349990  22.4295330  46.0622990
  61.2735470  23.7582470  40.4933460  61.6151170  24.5024700  39.9976780
  60.4448180  24.0713590  40.8558290  53.8710510  19.4577560  52.1331860
  53.5125450  20.1231410  52.7205200  53.5765070  18.6261110  52.5044480
  62.4152080  24.7130800  53.0126540  62.4296620  23.7811760  52.7945450
  61.7077180  24.7990560  53.6516310  67.5489150  18.8970620  39.2825150
  67.4652870  19.3284840  38.4321590  68.2683340  19.3568970  39.7151970
  68.6263290  21.3538140  52.3595120  67.9011480  21.9466920  52.1624510
  69.1538750  21.3461680  51.5608490  68.5776400  25.7512880  42.0107280
  67.9352560  25.0968500  42.2851000  68.1907060  26.1567970  41.2347950
  64.1562880  23.0798310  45.8578970  64.5086700  22.4826440  45.1980340
  63.2725210  22.7542540  46.0287220  60.2426160  23.8396000  43.2649380
  60.9297290  24.3865210  43.6456970  59.4558580  24.3836730  43.2998990
  52.3818560  19.4568820  38.7566460  53.2513410  19.7393620  39.0402380
  51.8908880  20.2704690  38.6415270  59.5453370  20.8442030  42.8774740
  60.0016150  21.6547280  43.1034930  59.1941580  20.5265170  43.7093230
  55.4465150  11.1879680  43.3497260  55.3179780  11.1797580  44.2982180
  54.6227170  11.5262770  42.9988270  63.1218060  24.3580720  48.8244490
  63.7640290  23.6573880  48.9376660  63.6467410  25.1379160  48.6441380
  66.9673780  24.6429340  38.5483630  66.7411360  23.9259780  39.1408270
  66.5769980  24.3941780  37.7105380  64.8955680  25.1575620  52.0280550
  65.2311920  25.7442310  52.7058470  63.9756020  25.0268330  52.2578340
  52.7489810  28.6696200  39.3228090  53.1087450  29.2685540  38.6685360
  52.6082150  29.2156090  40.0963120  52.4459080  12.9470800  52.8103960
  51.7317600  13.1467720  53.4156570  52.8654120  12.1710370  53.1818760
  66.5490030  22.5601280  40.2097790  66.2611730  23.0213970  40.9975670
  67.3442200  22.0999050  40.4782010  58.7658430  26.0527400  40.1401760
  58.7568530  26.7857090  39.5246270  57.8456790  25.8058980  40.2328720
  54.3665070  21.2742290  40.8848520  53.7593020  22.0141190  40.8943820
  54.8414420  21.3641650  40.0586720  63.9397860  15.4393110  50.5605410
  64.3078680  14.6188320  50.8884980  63.0796060  15.4995000  50.9761060
  67.3059890  14.3950050  41.3692970  66.6773050  14.4995720  40.6551200
  66.8111810  14.6146830  42.1586850  61.7518030  26.1155640  38.8026950
  61.8530010  25.9119630  37.8728930  60.8519770  25.8613920  39.0074730
  59.2743920  16.6736000  42.7850850  58.5660070  17.1422340  43.2264460
  59.5588400  16.0158010  43.4196040  63.3059350  13.3986660  44.2246640
  63.1827130  13.4172790  43.2756150  64.2543910  13.4465600  44.3445040
  57.4778940  14.9821080  40.1601560  58.3269470  15.4191230  40.0941750
  57.1110210  15.2941340  40.9873620  68.1066710  14.3100660  51.6271770
  67.6040310  15.0506060  51.9665580  68.9223370  14.6984660  51.3108560
  66.3988720  19.5533840  45.0733130  65.4578860  19.5684070  45.2480820
  66.7132790  18.7669800  45.5193430  56.3770360  21.2353440  38.6337090
  57.1433630  21.1234800  39.1962520  56.4545050  20.5391410  37.9813860
  55.0717120  18.6678510  39.3169980  55.1520710  17.7206020  39.4287380
  55.9636870  18.9985390  39.4230640  68.4014300  26.7242690  46.7487390
  68.5261720  27.5473860  47.2211200  69.2679860  26.5133420  46.4011540
  52.7577310  24.8847470  42.2946030  51.8317090  25.1268610  42.2851440
  53.2233740  25.7121730  42.1730780  58.9834140  27.9904210  38.2430090
  59.7762750  28.2793040  37.7911880  58.4638490  27.5596380  37.5642570
  65.1455110  27.8380130  54.1674920  66.0976860  27.7538150  54.1175160
  64.9983330  28.5021840  54.8408710  68.0364310  27.2174340  39.6666830
  67.7505820  26.8039480  38.8521010  67.8383860  28.1462050  39.5467350
  59.5011540  23.2107620  38.1072440  59.3962180  22.5959970  38.8333820
  59.3335760  22.6873510  37.3235450  62.7414270  22.2727650  38.7114430
  62.1924370  22.7196950  39.3557170  63.3633530  21.7676900  39.2352100
  58.4089390  21.2318570  40.6079730  58.8305810  21.0658440  41.4511120
  58.5340230  20.4218800  40.1134870  60.9217030  20.2556180  37.8556830
  61.4422690  19.5405200  37.4897980  61.5685430  20.8942050  38.1557340
  65.4694870  21.6784580  53.1791900  65.8835890  21.8329660  54.0282320
  64.5345870  21.8039800  53.3417680  57.0589110  14.1777490  53.4948000
  56.9645980  13.5598240  52.7698870  56.4786500  14.9043780  53.2677910
  59.8250550  12.7350730  50.5275390  59.3767850  12.7574990  49.6820940
  59.1915750  12.3369750  51.1245690  64.9061900  19.9158430  51.1088180
  64.3797120  20.4401050  50.5053320  65.2493240  20.5485820  51.7397910
  57.3048290  17.3051800  37.5537890  57.1037350  16.4419160  37.9151230
  57.1340340  17.2185160  36.6159490  64.1536200  15.5208400  54.0234510
  63.4651720  14.8589940  53.9584500  64.8742220  15.0746670  54.4682970
  64.7836600  12.1160030  40.0824770  65.0638890  11.2727930  40.4384190
  64.0102330  12.3483140  40.5963520  56.1031090  14.4052420  37.5415770
  56.4056990  14.4119850  36.6334920  56.8425680  14.0550280  38.0383430
  59.3216020  13.3487040  38.5271970  58.9738020  12.6711030  37.9474420
  59.5228790  12.8876550  39.3415360  55.1261220  23.7094840  38.3745570
  55.5636090  24.2524510  39.0303150  55.6108950  22.8841790  38.3841910
  56.9368940  24.8292880  43.4867800  56.6364480  24.7057850  44.3871710
  56.8306430  23.9701470  43.0783530  68.4659410  26.8671460  52.8524770
  67.8661400  26.9264020  52.1088690  68.5953310  25.9276440  52.9821620
  69.7060860  24.6089280  38.1894480  68.8753820  24.6765930  38.6601710
  69.8832690  25.4993400  37.8861340  69.1617320  21.3536760  40.6928680
  69.9236230  21.9233410  40.7988370  69.1771690  20.7863960  41.4636990
  70.1677290  22.2086860  45.5370610  70.5386120  21.4254180  45.1306580
  70.8079220  22.8975960  45.3587910  67.1511050  23.5923440  50.9500930
  66.3370890  24.0220600  51.2126720  67.5585250  24.2041850  50.3369980
  69.2136490  21.6471130  37.8501200  69.4885330  22.5550010  37.7220420
  69.0247230  21.5833660  38.7863190  65.6112100  14.6715980  39.1454830
  66.0296980  14.4846960  38.3051490  65.3048160  13.8195030  39.4557760
  69.1101830  19.5840120  42.8430630  68.7345430  18.8168050  42.4111920
  68.3804950  19.9662820  43.3305560  68.5001450  18.7311640  52.4770150
  68.2687540  18.5024390  51.5768100  68.7606000  19.6511190  52.4315040
  53.2513590  17.1736350  53.3698100  52.3569640  17.1403110  53.7091810
  53.7911140  17.3723140  54.1349350  66.9389520  13.9568070  55.2549850
  67.8159700  13.9651470  55.6383850  66.9510360  13.2198910  54.6442200
  51.8759740  17.0873620  40.8661670  50.9723820  17.3503820  40.6913330
  52.3600360  17.3584790  40.0861630  68.3852790  17.8097610  46.1437870
  68.9090270  17.3160260  45.5128040  68.9712210  17.9447970  46.8885440
  68.5642510  17.8937480  49.6657420  67.6145220  17.8601020  49.7802410
  68.7455520  18.8037590  49.4307190  54.4186950  16.1439160  38.7756050
  55.1278650  15.7222380  38.2903330  53.7026890  16.2114390  38.1439400
  54.0661110  12.1978490  37.8158700  54.7889240  12.7387430  38.1339920
  54.3385630  11.9241910  36.9400240  67.8752760  17.0670960  42.0830280
  68.3711880  16.8341830  42.8679160  67.6768830  16.2282800  41.6667920
  53.7553300  11.4484680  47.7181320  54.4029490  10.8982060  47.2776480
  54.1755140  11.7027830  48.5397130  69.3039920  15.7031910  44.6167960
  69.1939200  15.5487950  45.5550230  70.0647510  15.1752850  44.3743370
  67.6505640  11.6426040  51.0750960  68.2877860  12.2560180  51.4410150
  67.7980530  11.6786700  50.1300190  70.1930190  13.5339830  37.8574100
  71.1179500  13.4021010  37.6492390  70.1705980  13.6132650  38.8110550
  70.2668680  14.3050490  40.4830810  69.4720180  14.2395610  41.0123720
  70.4711960  15.2401130  40.4716160  67.2087100  28.3442040  44.4769200
  67.8046170  28.0226610  43.8003620  67.4665250  27.8713860  45.2682470
  53.5085300  11.6040350  50.4606640  53.1600120  12.0604170  51.2264820
  53.1773000  10.7097480  50.5429070  63.6584680  12.4522290  53.6218350
  64.2725090  12.7701580  52.9599430  64.2034240  11.9670880  54.2414210
  54.1805940  11.1316550  53.7357410  54.7288930  10.9504600  52.9723520
  54.2461250  10.3410660  54.2713720  64.3992720  11.0154430  49.9487640
  63.5252560  11.3489540  49.7460570  64.2903470  10.5427610  50.7739510
  65.3064700  13.2225300  51.3329360  64.9778060  12.4077060  50.9531090
  66.2547000  13.1795110  51.2095050  67.7599310  28.9937340  48.3066930
  67.3002280  29.7453150  47.9324950  67.1311770  28.2743810  48.2481730
  62.1467540  11.9324270  48.8880550  61.3639330  12.4069770  49.1677310
  61.8530470  11.0279100  48.7793730  66.6988610  12.6347370  46.9329640
  67.1396700  12.5792470  46.0851240  66.4296200  13.5505380  47.0039820
  68.5627180  12.2662610  44.9438460  68.5015580  11.3223830  44.7969480
  69.3419210  12.3742700  45.4891920  53.4907950  12.2371750  41.4094270
  54.2487310  12.3500630  40.8358300  53.0285120  13.0740950  41.3637700
  60.0321760  14.3511020  44.3996580  59.2196270  13.9767910  44.0592460
  60.5363400  13.5956100  44.7017770  64.5346740  11.0153470  45.6379650
  65.1376110  11.5873680  46.1128170  63.7939730  11.5792910  45.4153550
  67.6781340  11.4175030  40.9119930  67.8731970  12.3158480  41.1787360
  66.8911210  11.1862110  41.4052880  54.4742630  27.0988200  41.3512550
  53.9490250  27.4796230  40.6474510  54.3987210  27.7238970  42.0722260
  55.8633100  12.7635800  39.9496240  56.3925860  11.9765600  39.8204190
  56.4961420  13.4426990  40.1831770  58.0570940  12.5010940  43.0041630
  57.4273680  11.7998250  43.1711760  57.5176080  13.2615070  42.7874790
  69.2307950  28.6575740  42.6726490  69.4060140  27.9713480  42.0287410
  68.5329520  29.1822790  42.2803160  56.2350390  25.1635310  40.2308130
  55.6059270  25.6320410  40.7793960  56.3498220  24.3184530  40.6654320
  64.7841960  11.1948500  56.0174590  64.6707410  11.5143110  56.9126110
  65.6011700  11.5961010  55.7211870  63.6900110  19.2140970  26.3809330
  63.6094160  18.2995580  26.1101040  63.2764530  19.7108040  25.6749040
  61.8218150  20.9919990  28.2618600  61.0460250  20.5120430  28.5517170
  62.4731080  20.3125640  28.0874760  55.8383980  21.3039800  29.1394360
  55.0068860  21.0488510  29.5390870  56.4464960  21.3750570  29.8752280
  65.8425580  25.3980180  27.0417730  65.3807110  24.6267420  27.3704900
  66.6551130  25.4246250  27.5470180  55.8185240  25.3379890  29.3352380
  56.1213280  24.4477630  29.1562600  56.5628830  25.8950110  29.1074630
  54.2475930  16.2641690  22.9236750  53.3592630  16.6057660  22.8216630
  54.5317120  16.0642010  22.0317580  52.2108940  18.8647340  28.8076450
  52.7825050  18.0969540  28.8080090  52.2110480  19.1636100  27.8983060
  62.0688890  27.6838190  26.6621720  61.4500330  28.1395690  26.0916160
  62.9240670  27.8389650  26.2611420  61.2627140  23.6677180  28.2688760
  61.1935420  22.7267120  28.1077890  62.0247000  23.7578590  28.8411330
  53.4533810  14.2731700  30.5945380  53.2736650  13.3757450  30.8748140
  53.0513890  14.8203570  31.2692330  62.2932310  16.4747560  28.4957690
  62.6697130  15.6019440  28.3831360  62.1951820  16.8106260  27.6048130
  56.4237320  14.8473190  23.9575130  56.5304070  15.7476920  24.2643890
  55.5129680  14.7991160  23.6669780  66.0756430  13.9698000  25.4286030
  66.8966050  13.4794570  25.4711510  66.1090510  14.5595660  26.1817870
  54.0720480  16.7692200  29.2027720  54.7530590  17.0330570  29.8215120
  53.7568530  15.9293070  29.5365730  58.2645050  17.8159560  28.2900310
  58.7723270  18.3140530  28.9305330  58.7958290  17.0394760  28.1139670
  70.3655980  15.9864750  31.9929660  69.6608150  16.3746460  31.4744770
  70.6313900  16.6815040  32.5950590  56.5481150  12.4558120  32.5563730
  56.5499590  12.9730510  31.7509630  55.7185460  11.9788300  32.5333660
  62.9352240  22.5677430  24.0553630  62.3169510  23.0326880  23.4916350
  63.4475490  23.2604910  24.4723140  57.7984000  22.0953300  30.7337230
  57.4653380  22.7222220  31.3758300  57.9750680  22.6215180  29.9538900
  66.3117910  15.9098380  28.2013570  65.6073480  16.1983270  28.7816680
  66.6730070  16.7198490  27.8413130  56.2296480  14.1668080  30.5634180
  56.5713290  15.0110130  30.2688050  55.2912290  14.3151820  30.6799520
  57.0103100  24.0634100  32.5486410  57.6277100  24.7385180  32.2670860
  56.1496220  24.4722080  32.4573910  52.3035440  23.2533960  21.4293260
  51.9263420  23.7421060  20.6978160  52.5608510  23.9259240  22.0599790
  67.9280690  25.5273510  30.4641050  67.2444210  26.1972620  30.4557720
  68.4674980  25.7254160  29.6985910  69.3804830  15.3553170  28.5922780
  68.4329740  15.3892150  28.7238210  69.7054820  16.1692120  28.9772140
  59.9124370  11.6550350  26.8878770  60.2199350  11.0997240  26.1714270
  58.9825070  11.7894810  26.7051760  65.4639430  27.3717640  29.1786230
  65.4766590  26.9679930  28.3108490  64.9114650  28.1464930  29.0747660
  66.7584850  24.0933860  24.2676400  66.6481180  23.1508190  24.3925820
  66.7553100  24.4549500  25.1539160  64.8624870  22.2747480  30.5068840
  65.2793660  22.0607590  29.6722300  65.5864690  22.5320270  31.0777460
  62.3005130  19.7199180  23.6238890  61.3734410  19.6536560  23.8527360
  62.4529950  20.6579310  23.5094130  62.2874210  15.9916180  20.6206050
  61.3477880  16.1530140  20.7058510  62.6057470  16.7101860  20.0742040
  68.8086970  20.6734700  30.5985080  67.9805600  20.7427790  30.1235210
  69.4037450  21.2589010  30.1300910  66.3302420  21.2819480  24.1274140
  65.7114840  20.9439030  23.4800440  66.3126870  20.6379240  24.8353330
  65.7728980  17.4604020  31.5439950  65.3600160  18.2857730  31.7979940
  65.0404930  16.8749060  31.3516310  57.9061770  20.2463920  26.4058620
  57.5018770  19.5341170  25.9104520  57.9924890  19.9017160  27.2946660
  58.3743470  23.9331480  28.5697830  58.0771760  23.3276950  27.8905610
  59.3243290  23.9708790  28.4587190  56.6190390  17.0207130  30.1857660
  57.1704980  17.1302470  29.4110910  57.1333900  17.3944730  30.9012890
  66.4629080  27.5063350  32.2320930  65.9859640  28.3135540  32.0393540
  65.7790870  26.8541680  32.3847140  57.4661900  23.6713170  35.2205630
  56.5690430  23.8953140  35.4679030  57.4914770  23.7948110  34.2717030
  64.5067120  20.5206290  21.1346890  64.9460400  19.6828720  20.9884710
  65.2195540  21.1535690  21.2211030  56.2933120  20.5426490  33.7963000
  56.1540890  21.4149290  34.1650400  55.4114480  20.1999300  33.6510940
  62.6162500  25.4602360  25.1028130  63.0558410  26.2026690  24.6883520
  62.5549390  25.7028930  26.0267090  58.0913470  26.4848190  36.0048150
  58.0628900  26.8891140  35.1376580  57.9278440  25.5558550  35.8419750
  68.0884260  11.7749100  19.4487930  67.7756920  11.8675930  20.3487000
  68.8496730  12.3530130  19.3985360  54.6066400  19.1408900  23.9065270
  54.4864000  19.8670990  23.2946540  54.2967290  18.3711810  23.4293180
  70.0428290  27.2675290  37.3012320  70.5188010  27.7458180  37.9801400
  70.6635450  27.1992780  36.5757820  52.2451770  22.3124040  29.7133910
  52.3232190  22.4472810  28.7689630  52.8593450  21.6039930  29.9062030
  53.4899400  24.0124230  26.1240090  53.0827480  24.1538820  25.2693690
  54.3812410  23.7284390  25.9211300  69.4461540  24.4588140  34.4612330
  69.5724600  24.2200020  33.5429510  69.4882920  23.6272680  34.9334410
  63.3078280  28.1616140  33.0307140  63.8222950  28.0724150  33.8329570
  62.4647360  28.5075840  33.3235050  65.2832680  28.4471480  22.4591140
  65.1233820  28.1574420  23.3572970  65.1179390  27.6711610  21.9236370
  57.7621060  28.2270010  24.2362760  57.5863540  27.3105550  24.0230560
  56.9076800  28.5857300  24.4760560  64.9858810  25.9559040  21.0189140
  64.2923970  25.9536330  20.3591420  65.7281670  25.5318360  20.5883310
  64.5508740  27.5821750  25.0937630  65.0065690  26.8011130  25.4076250
  64.8901260  28.2928570  25.6378810  69.2985550  16.5120600  35.4262070
  68.6829820  17.0200270  34.8977530  68.9781970  15.6118930  35.3688010
  52.3011290  23.3538210  32.2528370  52.4642330  22.8843570  31.4347740
  52.7663740  22.8461770  32.9177210  57.0730060  12.4843970  27.2888940
  56.6298210  13.2653510  26.9573460  57.6315050  12.8073860  27.9959880
  61.3599870  15.3512490  32.8924260  60.8979240  15.5595510  33.7044200
  60.9577980  14.5371840  32.5894930  66.3604380  16.5721440  34.0220920
  65.5097970  16.2727190  34.3429990  66.2006170  16.8163450  33.1104740
  63.4554090  18.0723190  36.1219710  63.7807500  17.2386940  35.7821940
  64.2434420  18.5951710  36.2698040  60.1888880  12.1054670  22.1694770
  59.5643060  12.1014540  22.8948080  60.1019000  11.2385630  21.7730740
  59.1105960  13.0291300  29.1478540  59.4078290  13.9354130  29.0670560
  59.6591520  12.5410080  28.5338110  56.8644280  17.6077540  25.0170190
  56.6385200  17.3914710  25.9216810  56.0836810  18.0406000  24.6716160
  64.0942040  17.6140910  23.6160840  63.4950930  18.3376710  23.4324460
  64.6421650  17.5517690  22.8337290  59.3043490  18.5063120  35.6830460
  59.2087090  17.5657850  35.5330860  60.1475470  18.7278190  35.2878530
  62.7006910  16.2504450  25.6464120  63.0936480  16.5676650  24.8332810
  63.0623760  15.3716330  25.7608640  54.4354030  14.9176790  33.8364240
  54.0417420  15.7652000  34.0437020  53.7472430  14.2803160  34.0272880
  61.0099080  15.0011760  36.9060980  60.3197400  14.8083960  37.5407070
  61.7531380  15.2846400  37.4385280  51.7371080  12.8405250  27.8694320
  51.4484130  13.4108110  28.5819300  52.4816840  12.3609700  28.2325550
  51.9241310  16.7825370  19.0797040  51.8415980  17.7256130  19.2212030
  51.5724370  16.6400280  18.2009390  63.2862050  18.8410200  29.7414900
  62.5543170  19.3497010  30.0905000  62.8886390  18.0240180  29.4403680
  59.7239440  15.5164400  28.1467390  59.7275500  15.0754350  27.2971930
  60.6190560  15.8381730  28.2539210  55.5741820  15.3990890  27.1061600
  55.2341870  15.8766120  27.8628650  54.8119140  14.9456010  26.7462700
  59.7859590  16.5176480  21.1374150  59.9072410  16.4762960  22.0859970
  59.4008100  17.3800630  20.9820880  63.7487960  14.2943880  29.1537840
  63.7660700  14.7452530  29.9979690  63.5003540  13.3949520  29.3671280
  58.7981090  18.8277620  20.5357450  58.2297990  18.3795870  19.9093360
  59.5070090  19.1870400  20.0022600  67.1758710  11.7076060  34.9924220
  67.5004480  10.9765720  35.5182200  67.2115220  11.3889700  34.0905210
  53.8750270  22.7289640  34.4124180  53.4905060  22.0883310  35.0107140
  54.1862460  23.4325760  34.9818910  60.0247410  19.5766180  29.8932800
  60.3917540  19.1024750  30.6394140  59.8352470  20.4507750  30.2341140
  52.8887900  14.3209870  26.0226270  52.6034820  13.9565540  26.8604890
  52.8266760  13.5890330  25.4089410  57.8146780  18.6174820  32.2117010
  57.5103850  19.4966800  32.4367370  58.7693240  18.6774610  32.2474450
  56.3428570  22.8235810  22.8083860  55.5690830  22.2833430  22.6482580
  57.0723200  22.3042420  22.4701620  67.1016550  21.8201170  28.6010250
  67.8215670  22.3156460  28.2106360  66.8998370  21.1419060  27.9564120
  62.5626490  13.2139130  22.7439640  61.7491100  12.7152300  22.6684950
  62.3688440  14.0537380  22.3275990  62.4835350  21.8910230  34.4879250
  62.4172660  20.9705900  34.2336840  61.8540490  21.9885670  35.2023890
  65.2774880  17.5858780  21.0401800  66.1654500  17.8976010  20.8653140
  65.2479970  16.7131030  20.6482380  56.3865970  22.4916190  26.4462670
  56.9044640  21.6884450  26.3919560  55.9349990  22.4295330  27.2879500
  61.2735470  23.7582470  21.7189970  61.6151170  24.5024700  21.2233290
  60.4448180  24.0713590  22.0814800  53.8710510  19.4577560  33.3588370
  53.5125450  20.1231410  33.9461710  53.5765070  18.6261110  33.7300990
  57.0723630  19.9161800  36.2427920  56.7723770  20.0618980  35.3455740
  57.8434870  19.3567090  36.1501310  62.4152080  24.7130800  34.2383050
  62.4296620  23.7811760  34.0201960  61.7077180  24.7990560  34.8772820
  67.5489150  18.8970620  20.5081660  67.4652870  19.3284840  19.6578100
  68.2683340  19.3568970  20.9408480  68.6263290  21.3538140  33.5851630
  67.9011480  21.9466920  33.3881020  69.1538750  21.3461680  32.7865000
  68.5776400  25.7512880  23.2363790  67.9352560  25.0968500  23.5107510
  68.1907060  26.1567970  22.4604460  64.1562880  23.0798310  27.0835480
  64.5086700  22.4826440  26.4236850  63.2725210  22.7542540  27.2543730
  60.2426160  23.8396000  24.4905890  60.9297290  24.3865210  24.8713480
  59.4558580  24.3836730  24.5255500  52.3818560  19.4568820  19.9822970
  53.2513410  19.7393620  20.2658890  51.8908880  20.2704690  19.8671780
  59.5453370  20.8442030  24.1031250  60.0016150  21.6547280  24.3291440
  59.1941580  20.5265170  24.9349740  61.8485980  26.3548370  31.3323550
  62.4928200  26.5607750  32.0096970  62.2115420  25.5936770  30.8794400
  55.4465150  11.1879680  24.5753770  55.3179780  11.1797580  25.5238690
  54.6227170  11.5262770  24.2244780  63.1218060  24.3580720  30.0501000
  63.7640290  23.6573880  30.1633170  63.6467410  25.1379160  29.8697890
  66.9673780  24.6429340  19.7740140  66.7411360  23.9259780  20.3664780
  66.5769980  24.3941780  18.9361890  64.8955680  25.1575620  33.2537060
  65.2311920  25.7442310  33.9314980  63.9756020  25.0268330  33.4834850
  52.7489810  28.6696200  20.5484600  53.1087450  29.2685540  19.8941870
  52.6082150  29.2156090  21.3219630  52.4459080  12.9470800  34.0360470
  51.7317600  13.1467720  34.6413080  52.8654120  12.1710370  34.4075270
  66.5490030  22.5601280  21.4354300  66.2611730  23.0213970  22.2232180
  67.3442200  22.0999050  21.7038520  52.7331670  26.9351060  35.0227000
  52.8422790  25.9945800  34.8822390  52.0812230  27.2005810  34.3740730
  60.7244260  25.2066950  36.4225120  60.4041130  24.4876190  36.9670810
  60.0502620  25.8822020  36.4961180  58.7658430  26.0527400  21.3658270
  58.7568530  26.7857090  20.7502780  57.8456790  25.8058980  21.4585230
  54.3665070  21.2742290  22.1105030  53.7593020  22.0141190  22.1200330
  54.8414420  21.3641650  21.2843230  63.9397860  15.4393110  31.7861920
  64.3078680  14.6188320  32.1141490  63.0796060  15.4995000  32.2017570
  67.3059890  14.3950050  22.5949480  66.6773050  14.4995720  21.8807710
  66.8111810  14.6146830  23.3843360  61.7518030  26.1155640  20.0283460
  61.8530010  25.9119630  19.0985440  60.8519770  25.8613920  20.2331240
  59.2743920  16.6736000  24.0107360  58.5660070  17.1422340  24.4520970
  59.5588400  16.0158010  24.6452550  60.8999850  18.0932700  32.0099890
  61.3985100  18.5678520  32.6751740  61.0422800  17.1696220  32.2169920
  63.3059350  13.3986660  25.4503150  63.1827130  13.4172790  24.5012660
  64.2543910  13.4465600  25.5701550  60.3936140  28.6341960  24.7231130
  60.6477640  28.5963350  23.8010500  59.4448620  28.5075290  24.7159380
  57.4778940  14.9821080  21.3858070  58.3269470  15.4191230  21.3198260
  57.1110210  15.2941340  22.2130130  68.1066710  14.3100660  32.8528280
  67.6040310  15.0506060  33.1922090  68.9223370  14.6984660  32.5365070
  66.3988720  19.5533840  26.2989640  65.4578860  19.5684070  26.4737330
  66.7132790  18.7669800  26.7449940  56.3770360  21.2353440  19.8593600
  57.1433630  21.1234800  20.4219030  56.4545050  20.5391410  19.2070370
  55.0717120  18.6678510  20.5426490  55.1520710  17.7206020  20.6543890
  55.9636870  18.9985390  20.6487150  68.4014300  26.7242690  27.9743900
  68.5261720  27.5473860  28.4467710  69.2679860  26.5133420  27.6268050
  55.8731830  28.8173900  27.6461030  56.6094310  28.2689360  27.9169600
  56.2572750  29.6829910  27.5067020  52.7577310  24.8847470  23.5202540
  51.8317090  25.1268610  23.5107950  53.2233740  25.7121730  23.3987290
  54.8790110  28.0019970  36.8346610  55.6802840  28.3232020  37.2482010
  54.3641930  27.6415550  37.5566520  58.9834140  27.9904210  19.4686600
  59.7762750  28.2793040  19.0168390  58.4638490  27.5596380  18.7899080
  63.7154740  24.1099840  36.7822020  63.1092900  24.1331440  36.0417770
  63.4108850  23.3782880  37.3189270  68.0364310  27.2174340  20.8923340
  67.7505820  26.8039480  20.0777520  67.8383860  28.1462050  20.7723860
  52.5987920  20.4893430  35.7782660  53.1026940  19.9100710  36.3498890
  51.8595340  20.7733660  36.3159030  59.5011540  23.2107620  19.3328950
  59.3962180  22.5959970  20.0590330  59.3335760  22.6873510  18.5491960
  59.6525860  21.8964420  35.3118180  58.8871530  22.4649420  35.2272850
  59.8341820  21.6040630  34.4186410  62.7414270  22.2727650  19.9370940
  62.1924370  22.7196950  20.5813680  63.3633530  21.7676900  20.4608610
  66.7949210  23.6269750  35.8693200  67.5358680  23.9645510  35.3660660
  66.0321890  23.7961810  35.3162970  54.6311000  18.6323020  36.6732730
  54.6716340  18.3336890  37.5817960  55.4856500  19.0330630  36.5140250
  58.4089390  21.2318570  21.8336240  58.8305810  21.0658440  22.6767630
  58.5340230  20.4218800  21.3391380  56.5716810  17.2115120  34.6407220
  56.0413270  16.7206070  34.0130560  57.2404880  17.6399320  34.1065150
  60.9217030  20.2556180  19.0813340  61.4422690  19.5405200  18.7154490
  61.5685430  20.8942050  19.3813850  65.4694870  21.6784580  34.4048410
  65.8835890  21.8329660  35.2538830  64.5345870  21.8039800  34.5674190
  65.9417040  19.0180740  36.4087560  66.5237810  18.2633060  36.3208040
  66.1178810  19.5488180  35.6319040  57.0589110  14.1777490  34.7204510
  56.9645980  13.5598240  33.9955380  56.4786500  14.9043780  34.4934420
  59.8250550  12.7350730  31.7531900  59.3767850  12.7574990  30.9077450
  59.1915750  12.3369750  32.3502200  60.2310100  21.6305060  32.3744340
  60.6498210  22.4737790  32.2020580  59.3118730  21.7677100  32.1451120
  62.5674000  19.3621240  33.7582180  62.6870210  18.7662380  34.4977020
  63.4268000  19.3990930  33.3383480  64.9061900  19.9158430  32.3344690
  64.3797120  20.4401050  31.7309830  65.2493240  20.5485820  32.9654420
  57.3048290  17.3051800  18.7794400  57.1037350  16.4419160  19.1407740
  57.1340340  17.2185160  17.8416000  58.0817520  27.9358070  33.4902070
  57.5438610  28.6604130  33.1710770  58.3351480  27.4588410  32.6999410
  59.3342770  15.9042590  35.0158000  59.9242460  15.5958440  35.7035820
  58.5163010  15.4322340  35.1717900  64.1536200  15.5208400  35.2491020
  63.4651720  14.8589940  35.1841010  64.8742220  15.0746670  35.6939480
  64.7836600  12.1160030  21.3081280  65.0638890  11.2727930  21.6640700
  64.0102330  12.3483140  21.8220030  56.1031090  14.4052420  18.7672280
  56.4056990  14.4119850  17.8591430  56.8425680  14.0550280  19.2639940
  60.9379730  29.1709280  33.7488720  60.8638430  30.0744420  34.0561090
  60.0358570  28.8521180  33.7210790  59.3216020  13.3487040  19.7528480
  58.9738020  12.6711030  19.1730930  59.5228790  12.8876550  20.5671870
  61.4865060  28.3367790  21.3715080  62.3815850  28.6752760  21.3933840
  61.5182690  27.6147200  20.7439360  55.1261220  23.7094840  19.6002080
  55.5636090  24.2524510  20.2559660  55.6108950  22.8841790  19.6098420
  52.3407020  26.4983870  27.0522340  52.6710030  25.6304930  26.8200980
  52.7698020  26.7042390  27.8827300  56.9368940  24.8292880  24.7124310
  56.6364480  24.7057850  25.6128220  56.8306430  23.9701470  24.3040040
  52.8297230  27.3654460  29.7903970  52.3928220  27.5455260  30.6228120
  53.3974910  28.1229080  29.6485690  68.4659410  26.8671460  34.0781280
  67.8661400  26.9264020  33.3345200  68.5953310  25.9276440  34.2078130
  69.7060860  24.6089280  19.4150990  68.8753820  24.6765930  19.8858220
  69.8832690  25.4993400  19.1117850  69.1617320  21.3536760  21.9185190
  69.9236230  21.9233410  22.0244880  69.1771690  20.7863960  22.6893500
  52.6621660  19.8774690  26.1492850  52.0070500  19.6086330  25.5052550
  53.4999610  19.7679170  25.6994830  70.1677290  22.2086860  26.7627120
  70.5386120  21.4254180  26.3563090  70.8079220  22.8975960  26.5844420
  67.1511050  23.5923440  32.1757440  66.3370890  24.0220600  32.4383230
  67.5585250  24.2041850  31.5626490  69.2136490  21.6471130  19.0757710
  69.4885330  22.5550010  18.9476930  69.0247230  21.5833660  20.0119700
  65.6112100  14.6715980  20.3711340  66.0296980  14.4846960  19.5308000
  65.3048160  13.8195030  20.6814270  69.1101830  19.5840120  24.0687140
  68.7345430  18.8168050  23.6368430  68.3804950  19.9662820  24.5562070
  53.6997590  20.2627260  30.6896190  54.0670630  20.1754660  31.5692210
  53.1308410  19.4993810  30.5903050  68.5001450  18.7311640  33.7026660
  68.2687540  18.5024390  32.8024610  68.7606000  19.6511190  33.6571550
  53.2513590  17.1736350  34.5954610  52.3569640  17.1403110  34.9348320
  53.7911140  17.3723140  35.3605860  66.9389520  13.9568070  36.4806360
  67.8159700  13.9651470  36.8640360  66.9510360  13.2198910  35.8698710
  51.8759740  17.0873620  22.0918180  50.9723820  17.3503820  21.9169840
  52.3600360  17.3584790  21.3118140  68.3852790  17.8097610  27.3694380
  68.9090270  17.3160260  26.7384550  68.9712210  17.9447970  28.1141950
  68.5642510  17.8937480  30.8913930  67.6145220  17.8601020  31.0058920
  68.7455520  18.8037590  30.6563700  54.4186950  16.1439160  20.0012560
  55.1278650  15.7222380  19.5159840  53.7026890  16.2114390  19.3695910
  54.0661110  12.1978490  19.0415210  54.7889240  12.7387430  19.3596430
  54.3385630  11.9241910  18.1656750  67.8752760  17.0670960  23.3086790
  68.3711880  16.8341830  24.0935670  67.6768830  16.2282800  22.8924430
  53.7553300  11.4484680  28.9437830  54.4029490  10.8982060  28.5032990
  54.1755140  11.7027830  29.7653640  69.3039920  15.7031910  25.8424470
  69.1939200  15.5487950  26.7806740  70.0647510  15.1752850  25.5999880
  67.6505640  11.6426040  32.3007470  68.2877860  12.2560180  32.6666660
  67.7980530  11.6786700  31.3556700  70.1930190  13.5339830  19.0830610
  71.1179500  13.4021010  18.8748900  70.1705980  13.6132650  20.0367060
  70.2668680  14.3050490  21.7087320  69.4720180  14.2395610  22.2380230
  70.4711960  15.2401130  21.6972670  67.2087100  28.3442040  25.7025710
  67.8046170  28.0226610  25.0260130  67.4665250  27.8713860  26.4938980
  53.5085300  11.6040350  31.6863150  53.1600120  12.0604170  32.4521330
  53.1773000  10.7097480  31.7685580  55.1149670  24.7759950  35.8516340
  55.0719300  24.4052860  36.7330800  55.2460680  25.7137520  35.9918160
  58.8155700  26.3319540  31.4526060  58.5747060  26.5994100  30.5656580
  59.7558340  26.5025270  31.5076920  61.0210120  12.7952230  35.2082570
  60.9599010  13.3874060  35.9577980  61.9610500  12.6878190  35.0632830
  63.6584680  12.4522290  34.8474860  64.2725090  12.7701580  34.1855940
  64.2034240  11.9670880  35.4670720  70.0759860  28.3513920  32.2536700
  69.5818140  28.7482790  31.5363830  69.4673150  27.7263130  32.6473980
  54.1805940  11.1316550  34.9613920  54.7288930  10.9504600  34.1980030
  54.2461250  10.3410660  35.4970230  54.9537700  27.7222200  32.9714120
  54.3598020  27.5906900  33.7104160  54.9461540  26.8860340  32.5056220
  64.3992720  11.0154430  31.1744150  63.5252560  11.3489540  30.9717080
  64.2903470  10.5427610  31.9996020  65.3064700  13.2225300  32.5585870
  64.9778060  12.4077060  32.1787600  66.2547000  13.1795110  32.4351560
  67.7599310  28.9937340  29.5323440  67.3002280  29.7453150  29.1581460
  67.1311770  28.2743810  29.4738240  54.5849930  25.0880580  31.9222160
  53.8583990  24.4685870  31.8548110  54.6459080  25.4821190  31.0520240
  58.1895030  27.3025580  28.7071570  58.7060050  26.6912940  28.1819830
  58.8392410  27.8054360  29.1982580  60.9290530  28.1934070  29.5340550
  61.2168340  27.9388370  28.6573560  61.4413750  27.6411430  30.1246120
  62.1467540  11.9324270  30.1137060  61.3639330  12.4069770  30.3933820
  61.8530470  11.0279100  30.0050240  66.6988610  12.6347370  28.1586150
  67.1396700  12.5792470  27.3107750  66.4296200  13.5505380  28.2296330
  68.5627180  12.2662610  26.1694970  68.5015580  11.3223830  26.0225990
  69.3419210  12.3742700  26.7148430  52.8679930  28.4054970  25.1318920
  52.7001970  27.7725650  25.8300810  52.0014440  28.6114370  24.7813110
  53.4907950  12.2371750  22.6350780  54.2487310  12.3500630  22.0614810
  53.0285120  13.0740950  22.5894210  60.0321760  14.3511020  25.6253090
  59.2196270  13.9767910  25.2848970  60.5363400  13.5956100  25.9274280
  64.5346740  11.0153470  26.8636160  65.1376110  11.5873680  27.3384680
  63.7939730  11.5792910  26.6410060  67.6781340  11.4175030  22.1376440
  67.8731970  12.3158480  22.4043870  66.8911210  11.1862110  22.6309390
  54.4742630  27.0988200  22.5769060  53.9490250  27.4796230  21.8731020
  54.3987210  27.7238970  23.2978770  55.8633100  12.7635800  21.1752750
  56.3925860  11.9765600  21.0460700  56.4961420  13.4426990  21.4088280
  58.0570940  12.5010940  24.2298140  57.4273680  11.7998250  24.3968270
  57.5176080  13.2615070  24.0131300  69.2307950  28.6575740  23.8983000
  69.4060140  27.9713480  23.2543920  68.5329520  29.1822790  23.5059670
  58.1826500  11.7794920  36.6650630  57.9010770  12.2828520  35.9011450
  58.5646200  10.9816670  36.2992760  57.0735600  29.0470580  21.4518310
  57.8054420  28.7629860  20.9042200  57.3329270  28.8083860  22.3417690
  56.2350390  25.1635310  21.4564640  55.6059270  25.6320410  22.0050470
  56.3498220  24.3184530  21.8910830  64.7841960  11.1948500  37.2431100
  64.6707410  11.5143110  38.1382620  65.6011700  11.5961010  36.9468380
  63.6900110  19.2140970   7.6065840  63.6094160  18.2995580   7.3357550
  63.2764530  19.7108040   6.9005550  61.8218150  20.9919990   9.4875110
  61.0460250  20.5120430   9.7773680  62.4731080  20.3125640   9.3131270
  55.8383980  21.3039800  10.3650870  55.0068860  21.0488510  10.7647380
  56.4464960  21.3750570  11.1008790  65.8425580  25.3980180   8.2674240
  65.3807110  24.6267420   8.5961410  66.6551130  25.4246250   8.7726690
  55.8185240  25.3379890  10.5608890  56.1213280  24.4477630  10.3819110
  56.5628830  25.8950110  10.3331140  54.2475930  16.2641690   4.1493260
  53.3592630  16.6057660   4.0473140  54.5317120  16.0642010   3.2574090
  52.2108940  18.8647340  10.0332960  52.7825050  18.0969540  10.0336600
  52.2110480  19.1636100   9.1239570  62.0688890  27.6838190   7.8878230
  61.4500330  28.1395690   7.3172670  62.9240670  27.8389650   7.4867930
  61.2627140  23.6677180   9.4945270  61.1935420  22.7267120   9.3334400
  62.0247000  23.7578590  10.0667840  53.4533810  14.2731700  11.8201890
  53.2736650  13.3757450  12.1004650  53.0513890  14.8203570  12.4948840
  62.2932310  16.4747560   9.7214200  62.6697130  15.6019440   9.6087870
  62.1951820  16.8106260   8.8304640  56.4237320  14.8473190   5.1831640
  56.5304070  15.7476920   5.4900400  55.5129680  14.7991160   4.8926290
  66.0756430  13.9698000   6.6542540  66.8966050  13.4794570   6.6968020
  66.1090510  14.5595660   7.4074380  54.0720480  16.7692200  10.4284230
  54.7530590  17.0330570  11.0471630  53.7568530  15.9293070  10.7622240
  58.2645050  17.8159560   9.5156820  58.7723270  18.3140530  10.1561840
  58.7958290  17.0394760   9.3396180  70.3655980  15.9864750  13.2186170
  69.6608150  16.3746460  12.7001280  70.6313900  16.6815040  13.8207100
  56.5481150  12.4558120  13.7820240  56.5499590  12.9730510  12.9766140
  55.7185460  11.9788300  13.7590170  62.9352240  22.5677430   5.2810140
  62.3169510  23.0326880   4.7172860  63.4475490  23.2604910   5.6979650
  57.7984000  22.0953300  11.9593740  57.4653380  22.7222220  12.6014810
  57.9750680  22.6215180  11.1795410  66.3117910  15.9098380   9.4270080
  65.6073480  16.1983270  10.0073190  66.6730070  16.7198490   9.0669640
  56.2296480  14.1668080  11.7890690  56.5713290  15.0110130  11.4944560
  55.2912290  14.3151820  11.9056030  57.0103100  24.0634100  13.7742920
  57.6277100  24.7385180  13.4927370  56.1496220  24.4722080  13.6830420
  52.3035440  23.2533960   2.6549770  51.9263420  23.7421060   1.9234670
  52.5608510  23.9259240   3.2856300  67.9280690  25.5273510  11.6897560
  67.2444210  26.1972620  11.6814230  68.4674980  25.7254160  10.9242420
  69.3804830  15.3553170   9.8179290  68.4329740  15.3892150   9.9494720
  69.7054820  16.1692120  10.2028650  59.9124370  11.6550350   8.1135280
  60.2199350  11.0997240   7.3970780  58.9825070  11.7894810   7.9308270
  65.4639430  27.3717640  10.4042740  65.4766590  26.9679930   9.5365000
  64.9114650  28.1464930  10.3004170  66.7584850  24.0933860   5.4932910
  66.6481180  23.1508190   5.6182330  66.7553100  24.4549500   6.3795670
  64.8624870  22.2747480  11.7325350  65.2793660  22.0607590  10.8978810
  65.5864690  22.5320270  12.3033970  62.3005130  19.7199180   4.8495400
  61.3734410  19.6536560   5.0783870  62.4529950  20.6579310   4.7350640
  62.2874210  15.9916180   1.8462560  61.3477880  16.1530140   1.9315020
  62.6057470  16.7101860   1.2998550  68.8086970  20.6734700  11.8241590
  67.9805600  20.7427790  11.3491720  69.4037450  21.2589010  11.3557420
  66.3302420  21.2819480   5.3530650  65.7114840  20.9439030   4.7056950
  66.3126870  20.6379240   6.0609840  65.7728980  17.4604020  12.7696460
  65.3600160  18.2857730  13.0236450  65.0404930  16.8749060  12.5772820
  57.9061770  20.2463920   7.6315130  57.5018770  19.5341170   7.1361030
  57.9924890  19.9017160   8.5203170  58.3743470  23.9331480   9.7954340
  58.0771760  23.3276950   9.1162120  59.3243290  23.9708790   9.6843700
  56.6190390  17.0207130  11.4114170  57.1704980  17.1302470  10.6367420
  57.1333900  17.3944730  12.1269400  66.4629080  27.5063350  13.4577440
  65.9859640  28.3135540  13.2650050  65.7790870  26.8541680  13.6103650
  57.4661900  23.6713170  16.4462140  56.5690430  23.8953140  16.6935540
  57.4914770  23.7948110  15.4973540  64.5067120  20.5206290   2.3603400
  64.9460400  19.6828720   2.2141220  65.2195540  21.1535690   2.4467540
  56.2933120  20.5426490  15.0219510  56.1540890  21.4149290  15.3906910
  55.4114480  20.1999300  14.8767450  62.6162500  25.4602360   6.3284640
  63.0558410  26.2026690   5.9140030  62.5549390  25.7028930   7.2523600
  58.0913470  26.4848190  17.2304660  58.0628900  26.8891140  16.3633090
  57.9278440  25.5558550  17.0676260  54.6066400  19.1408900   5.1321780
  54.4864000  19.8670990   4.5203050  54.2967290  18.3711810   4.6549690
  70.0428290  27.2675290  18.5268830  70.5188010  27.7458180  19.2057910
  70.6635450  27.1992780  17.8014330  52.2451770  22.3124040  10.9390420
  52.3232190  22.4472810   9.9946140  52.8593450  21.6039930  11.1318540
  53.4899400  24.0124230   7.3496600  53.0827480  24.1538820   6.4950200
  54.3812410  23.7284390   7.1467810  69.4461540  24.4588140  15.6868840
  69.5724600  24.2200020  14.7686020  69.4882920  23.6272680  16.1590920
  63.3078280  28.1616140  14.2563650  63.8222950  28.0724150  15.0586080
  62.4647360  28.5075840  14.5491560  65.2832680  28.4471480   3.6847650
  65.1233820  28.1574420   4.5829480  65.1179390  27.6711610   3.1492880
  57.7621060  28.2270010   5.4619270  57.5863540  27.3105550   5.2487070
  56.9076800  28.5857300   5.7017070  64.9858810  25.9559040   2.2445650
  64.2923970  25.9536330   1.5847930  65.7281670  25.5318360   1.8139820
  64.5508740  27.5821750   6.3194140  65.0065690  26.8011130   6.6332760
  64.8901260  28.2928570   6.8635320  69.2985550  16.5120600  16.6518580
  68.6829820  17.0200270  16.1234040  68.9781970  15.6118930  16.5944520
  52.3011290  23.3538210  13.4784880  52.4642330  22.8843570  12.6604250
  52.7663740  22.8461770  14.1433720  57.0730060  12.4843970   8.5145450
  56.6298210  13.2653510   8.1829970  57.6315050  12.8073860   9.2216390
  61.3599870  15.3512490  14.1180770  60.8979240  15.5595510  14.9300710
  60.9577980  14.5371840  13.8151440  66.3604380  16.5721440  15.2477430
  65.5097970  16.2727190  15.5686500  66.2006170  16.8163450  14.3361250
  63.4554090  18.0723190  17.3476220  63.7807500  17.2386940  17.0078450
  64.2434420  18.5951710  17.4954550  60.1888880  12.1054670   3.3951280
  59.5643060  12.1014540   4.1204590  60.1019000  11.2385630   2.9987250
  59.1105960  13.0291300  10.3735050  59.4078290  13.9354130  10.2927070
  59.6591520  12.5410080   9.7594620  56.8644280  17.6077540   6.2426700
  56.6385200  17.3914710   7.1473320  56.0836810  18.0406000   5.8972670
  64.0942040  17.6140910   4.8417350  63.4950930  18.3376710   4.6580970
  64.6421650  17.5517690   4.0593800  59.3043490  18.5063120  16.9086970
  59.2087090  17.5657850  16.7587370  60.1475470  18.7278190  16.5135040
  62.7006910  16.2504450   6.8720630  63.0936480  16.5676650   6.0589320
  63.0623760  15.3716330   6.9865150  54.4354030  14.9176790  15.0620750
  54.0417420  15.7652000  15.2693530  53.7472430  14.2803160  15.2529390
  61.0099080  15.0011760  18.1317490  60.3197400  14.8083960  18.7663580
  61.7531380  15.2846400  18.6641790  51.7371080  12.8405250   9.0950830
  51.4484130  13.4108110   9.8075810  52.4816840  12.3609700   9.4582060
  63.2862050  18.8410200  10.9671410  62.5543170  19.3497010  11.3161510
  62.8886390  18.0240180  10.6660190  59.7239440  15.5164400   9.3723900
  59.7275500  15.0754350   8.5228440  60.6190560  15.8381730   9.4795720
  55.5741820  15.3990890   8.3318110  55.2341870  15.8766120   9.0885160
  54.8119140  14.9456010   7.9719210  59.7859590  16.5176480   2.3630660
  59.9072410  16.4762960   3.3116480  59.4008100  17.3800630   2.2077390
  63.7487960  14.2943880  10.3794350  63.7660700  14.7452530  11.2236200
  63.5003540  13.3949520  10.5927790  67.1758710  11.7076060  16.2180730
  67.5004480  10.9765720  16.7438710  67.2115220  11.3889700  15.3161720
  53.8750270  22.7289640  15.6380690  53.4905060  22.0883310  16.2363650
  54.1862460  23.4325760  16.2075420  60.0247410  19.5766180  11.1189310
  60.3917540  19.1024750  11.8650650  59.8352470  20.4507750  11.4597650
  52.8887900  14.3209870   7.2482780  52.6034820  13.9565540   8.0861400
  52.8266760  13.5890330   6.6345920  57.8146780  18.6174820  13.4373520
  57.5103850  19.4966800  13.6623880  58.7693240  18.6774610  13.4730960
  56.3428570  22.8235810   4.0340370  55.5690830  22.2833430   3.8739090
  57.0723200  22.3042420   3.6958130  67.1016550  21.8201170   9.8266760
  67.8215670  22.3156460   9.4362870  66.8998370  21.1419060   9.1820630
  62.5626490  13.2139130   3.9696150  61.7491100  12.7152300   3.8941460
  62.3688440  14.0537380   3.5532500  62.4835350  21.8910230  15.7135760
  62.4172660  20.9705900  15.4593350  61.8540490  21.9885670  16.4280400
  65.2774880  17.5858780   2.2658310  66.1654500  17.8976010   2.0909650
  65.2479970  16.7131030   1.8738890  56.3865970  22.4916190   7.6719180
  56.9044640  21.6884450   7.6176070  55.9349990  22.4295330   8.5136010
  61.2735470  23.7582470   2.9446480  61.6151170  24.5024700   2.4489800
  60.4448180  24.0713590   3.3071310  53.8710510  19.4577560  14.5844880
  53.5125450  20.1231410  15.1718220  53.5765070  18.6261110  14.9557500
  57.0723630  19.9161800  17.4684430  56.7723770  20.0618980  16.5712250
  57.8434870  19.3567090  17.3757820  62.4152080  24.7130800  15.4639560
  62.4296620  23.7811760  15.2458470  61.7077180  24.7990560  16.1029330
  68.6263290  21.3538140  14.8108140  67.9011480  21.9466920  14.6137530
  69.1538750  21.3461680  14.0121510  68.5776400  25.7512880   4.4620300
  67.9352560  25.0968500   4.7364020  68.1907060  26.1567970   3.6860970
  64.1562880  23.0798310   8.3091990  64.5086700  22.4826440   7.6493360
  63.2725210  22.7542540   8.4800240  60.2426160  23.8396000   5.7162400
  60.9297290  24.3865210   6.0969990  59.4558580  24.3836730   5.7512010
  59.5453370  20.8442030   5.3287760  60.0016150  21.6547280   5.5547950
  59.1941580  20.5265170   6.1606250  61.8485980  26.3548370  12.5580060
  62.4928200  26.5607750  13.2353480  62.2115420  25.5936770  12.1050910
  55.4465150  11.1879680   5.8010280  55.3179780  11.1797580   6.7495200
  54.6227170  11.5262770   5.4501290  63.1218060  24.3580720  11.2757510
  63.7640290  23.6573880  11.3889680  63.6467410  25.1379160  11.0954400
  64.8955680  25.1575620  14.4793570  65.2311920  25.7442310  15.1571490
  63.9756020  25.0268330  14.7091360  52.4459080  12.9470800  15.2616980
  51.7317600  13.1467720  15.8669590  52.8654120  12.1710370  15.6331780
  66.5490030  22.5601280   2.6610810  66.2611730  23.0213970   3.4488690
  67.3442200  22.0999050   2.9295030  52.7331670  26.9351060  16.2483510
  52.8422790  25.9945800  16.1078900  52.0812230  27.2005810  15.5997240
  60.7244260  25.2066950  17.6481630  60.4041130  24.4876190  18.1927320
  60.0502620  25.8822020  17.7217690  58.7658430  26.0527400   2.5914780
  58.7568530  26.7857090   1.9759290  57.8456790  25.8058980   2.6841740
  54.3665070  21.2742290   3.3361540  53.7593020  22.0141190   3.3456840
  54.8414420  21.3641650   2.5099740  63.9397860  15.4393110  13.0118430
  64.3078680  14.6188320  13.3398000  63.0796060  15.4995000  13.4274080
  67.3059890  14.3950050   3.8205990  66.6773050  14.4995720   3.1064220
  66.8111810  14.6146830   4.6099870  59.2743920  16.6736000   5.2363870
  58.5660070  17.1422340   5.6777480  59.5588400  16.0158010   5.8709060
  60.8999850  18.0932700  13.2356400  61.3985100  18.5678520  13.9008250
  61.0422800  17.1696220  13.4426430  63.3059350  13.3986660   6.6759660
  63.1827130  13.4172790   5.7269170  64.2543910  13.4465600   6.7958060
  60.3936140  28.6341960   5.9487640  60.6477640  28.5963350   5.0267010
  59.4448620  28.5075290   5.9415890  57.4778940  14.9821080   2.6114580
  58.3269470  15.4191230   2.5454770  57.1110210  15.2941340   3.4386640
  68.1066710  14.3100660  14.0784790  67.6040310  15.0506060  14.4178600
  68.9223370  14.6984660  13.7621580  66.3988720  19.5533840   7.5246150
  65.4578860  19.5684070   7.6993840  66.7132790  18.7669800   7.9706450
  55.0717120  18.6678510   1.7683000  55.1520710  17.7206020   1.8800400
  55.9636870  18.9985390   1.8743660  68.4014300  26.7242690   9.2000410
  68.5261720  27.5473860   9.6724220  69.2679860  26.5133420   8.8524560
  55.8731830  28.8173900   8.8717540  56.6094310  28.2689360   9.1426110
  56.2572750  29.6829910   8.7323530  52.7577310  24.8847470   4.7459050
  51.8317090  25.1268610   4.7364460  53.2233740  25.7121730   4.6243800
  54.8790110  28.0019970  18.0603120  55.6802840  28.3232020  18.4738520
  54.3641930  27.6415550  18.7823030  63.7154740  24.1099840  18.0078530
  63.1092900  24.1331440  17.2674280  63.4108850  23.3782880  18.5445780
  65.1455110  27.8380130  16.6187940  66.0976860  27.7538150  16.5688180
  64.9983330  28.5021840  17.2921730  68.0364310  27.2174340   2.1179850
  67.7505820  26.8039480   1.3034030  67.8383860  28.1462050   1.9980370
  52.5987920  20.4893430  17.0039170  53.1026940  19.9100710  17.5755400
  51.8595340  20.7733660  17.5415540  59.6525860  21.8964420  16.5374690
  58.8871530  22.4649420  16.4529360  59.8341820  21.6040630  15.6442920
  66.7949210  23.6269750  17.0949710  67.5358680  23.9645510  16.5917170
  66.0321890  23.7961810  16.5419480  54.6311000  18.6323020  17.8989240
  54.6716340  18.3336890  18.8074470  55.4856500  19.0330630  17.7396760
  58.4089390  21.2318570   3.0592750  58.8305810  21.0658440   3.9024140
  58.5340230  20.4218800   2.5647890  56.5716810  17.2115120  15.8663730
  56.0413270  16.7206070  15.2387070  57.2404880  17.6399320  15.3321660
  65.4694870  21.6784580  15.6304920  65.8835890  21.8329660  16.4795340
  64.5345870  21.8039800  15.7930700  65.9417040  19.0180740  17.6344070
  66.5237810  18.2633060  17.5464550  66.1178810  19.5488180  16.8575550
  57.0589110  14.1777490  15.9461020  56.9645980  13.5598240  15.2211890
  56.4786500  14.9043780  15.7190930  59.8250550  12.7350730  12.9788410
  59.3767850  12.7574990  12.1333960  59.1915750  12.3369750  13.5758710
  60.2310100  21.6305060  13.6000850  60.6498210  22.4737790  13.4277090
  59.3118730  21.7677100  13.3707630  62.5674000  19.3621240  14.9838690
  62.6870210  18.7662380  15.7233530  63.4268000  19.3990930  14.5639990
  64.9061900  19.9158430  13.5601200  64.3797120  20.4401050  12.9566340
  65.2493240  20.5485820  14.1910930  58.0817520  27.9358070  14.7158580
  57.5438610  28.6604130  14.3967280  58.3351480  27.4588410  13.9255920
  59.3342770  15.9042590  16.2414510  59.9242460  15.5958440  16.9292330
  58.5163010  15.4322340  16.3974410  64.1536200  15.5208400  16.4747530
  63.4651720  14.8589940  16.4097520  64.8742220  15.0746670  16.9195990
  64.7836600  12.1160030   2.5337790  65.0638890  11.2727930   2.8897210
  64.0102330  12.3483140   3.0476540  60.9379730  29.1709280  14.9745230
  60.8638430  30.0744420  15.2817600  60.0358570  28.8521180  14.9467300
  61.4865060  28.3367790   2.5971590  62.3815850  28.6752760   2.6190350
  61.5182690  27.6147200   1.9695870  52.3407020  26.4983870   8.2778850
  52.6710030  25.6304930   8.0457490  52.7698020  26.7042390   9.1083810
  56.9368940  24.8292880   5.9380820  56.6364480  24.7057850   6.8384730
  56.8306430  23.9701470   5.5296550  52.8297230  27.3654460  11.0160480
  52.3928220  27.5455260  11.8484630  53.3974910  28.1229080  10.8742200
  68.4659410  26.8671460  15.3037790  67.8661400  26.9264020  14.5601710
  68.5953310  25.9276440  15.4334640  69.1617320  21.3536760   3.1441700
  69.9236230  21.9233410   3.2501390  69.1771690  20.7863960   3.9150010
  52.6621660  19.8774690   7.3749360  52.0070500  19.6086330   6.7309060
  53.4999610  19.7679170   6.9251340  70.1677290  22.2086860   7.9883630
  70.5386120  21.4254180   7.5819600  70.8079220  22.8975960   7.8100930
  67.1511050  23.5923440  13.4013950  66.3370890  24.0220600  13.6639740
  67.5585250  24.2041850  12.7883000  69.1101830  19.5840120   5.2943650
  68.7345430  18.8168050   4.8624940  68.3804950  19.9662820   5.7818580
  53.6997590  20.2627260  11.9152700  54.0670630  20.1754660  12.7948720
  53.1308410  19.4993810  11.8159560  68.5001450  18.7311640  14.9283170
  68.2687540  18.5024390  14.0281120  68.7606000  19.6511190  14.8828060
  53.2513590  17.1736350  15.8211120  52.3569640  17.1403110  16.1604830
  53.7911140  17.3723140  16.5862370  66.9389520  13.9568070  17.7062870
  67.8159700  13.9651470  18.0896870  66.9510360  13.2198910  17.0955220
  51.8759740  17.0873620   3.3174690  50.9723820  17.3503820   3.1426350
  52.3600360  17.3584790   2.5374650  68.3852790  17.8097610   8.5950890
  68.9090270  17.3160260   7.9641060  68.9712210  17.9447970   9.3398460
  68.5642510  17.8937480  12.1170440  67.6145220  17.8601020  12.2315430
  68.7455520  18.8037590  11.8820210  67.8752760  17.0670960   4.5343300
  68.3711880  16.8341830   5.3192180  67.6768830  16.2282800   4.1180940
  53.7553300  11.4484680  10.1694340  54.4029490  10.8982060   9.7289500
  54.1755140  11.7027830  10.9910150  69.3039920  15.7031910   7.0680980
  69.1939200  15.5487950   8.0063250  70.0647510  15.1752850   6.8256390
  67.6505640  11.6426040  13.5263980  68.2877860  12.2560180  13.8923170
  67.7980530  11.6786700  12.5813210  70.2668680  14.3050490   2.9343830
  69.4720180  14.2395610   3.4636740  70.4711960  15.2401130   2.9229180
  67.2087100  28.3442040   6.9282220  67.8046170  28.0226610   6.2516640
  67.4665250  27.8713860   7.7195490  53.5085300  11.6040350  12.9119660
  53.1600120  12.0604170  13.6777840  53.1773000  10.7097480  12.9942090
  55.1149670  24.7759950  17.0772850  55.0719300  24.4052860  17.9587310
  55.2460680  25.7137520  17.2174670  58.8155700  26.3319540  12.6782570
  58.5747060  26.5994100  11.7913090  59.7558340  26.5025270  12.7333430
  61.0210120  12.7952230  16.4339080  60.9599010  13.3874060  17.1834490
  61.9610500  12.6878190  16.2889340  63.6584680  12.4522290  16.0731370
  64.2725090  12.7701580  15.4112450  64.2034240  11.9670880  16.6927230
  70.0759860  28.3513920  13.4793210  69.5818140  28.7482790  12.7620340
  69.4673150  27.7263130  13.8730490  54.1805940  11.1316550  16.1870430
  54.7288930  10.9504600  15.4236540  54.2461250  10.3410660  16.7226740
  54.9537700  27.7222200  14.1970630  54.3598020  27.5906900  14.9360670
  54.9461540  26.8860340  13.7312730  64.3992720  11.0154430  12.4000660
  63.5252560  11.3489540  12.1973590  64.2903470  10.5427610  13.2252530
  65.3064700  13.2225300  13.7842380  64.9778060  12.4077060  13.4044110
  66.2547000  13.1795110  13.6608070  67.7599310  28.9937340  10.7579950
  67.3002280  29.7453150  10.3837970  67.1311770  28.2743810  10.6994750
  54.5849930  25.0880580  13.1478670  53.8583990  24.4685870  13.0804620
  54.6459080  25.4821190  12.2776750  58.1895030  27.3025580   9.9328080
  58.7060050  26.6912940   9.4076340  58.8392410  27.8054360  10.4239090
  60.9290530  28.1934070  10.7597060  61.2168340  27.9388370   9.8830070
  61.4413750  27.6411430  11.3502630  62.1467540  11.9324270  11.3393570
  61.3639330  12.4069770  11.6190330  61.8530470  11.0279100  11.2306750
  66.6988610  12.6347370   9.3842660  67.1396700  12.5792470   8.5364260
  66.4296200  13.5505380   9.4552840  68.5627180  12.2662610   7.3951480
  68.5015580  11.3223830   7.2482500  69.3419210  12.3742700   7.9404940
  52.8679930  28.4054970   6.3575430  52.7001970  27.7725650   7.0557320
  52.0014440  28.6114370   6.0069620  53.4907950  12.2371750   3.8607290
  54.2487310  12.3500630   3.2871320  53.0285120  13.0740950   3.8150720
  60.0321760  14.3511020   6.8509600  59.2196270  13.9767910   6.5105480
  60.5363400  13.5956100   7.1530790  64.5346740  11.0153470   8.0892670
  65.1376110  11.5873680   8.5641190  63.7939730  11.5792910   7.8666570
  67.6781340  11.4175030   3.3632950  67.8731970  12.3158480   3.6300380
  66.8911210  11.1862110   3.8565900  54.4742630  27.0988200   3.8025570
  53.9490250  27.4796230   3.0987530  54.3987210  27.7238970   4.5235280
  55.8633100  12.7635800   2.4009260  56.3925860  11.9765600   2.2717210
  56.4961420  13.4426990   2.6344790  58.0570940  12.5010940   5.4554650
  57.4273680  11.7998250   5.6224780  57.5176080  13.2615070   5.2387810
  60.9962890  29.1150170  18.1265260  61.9230200  28.8794440  18.1701220
  60.9813320  29.9422170  17.6451290  69.2307950  28.6575740   5.1239510
  69.4060140  27.9713480   4.4800430  68.5329520  29.1822790   4.7316180
  58.1826500  11.7794920  17.8907140  57.9010770  12.2828520  17.1267960
  58.5646200  10.9816670  17.5249270  57.0735600  29.0470580   2.6774820
  57.8054420  28.7629860   2.1298710  57.3329270  28.8083860   3.5674200
  56.2350390  25.1635310   2.6821150  55.6059270  25.6320410   3.2306980
  56.3498220  24.3184530   3.1167340  64.7841960  11.1948500  18.4687610
  64.6707410  11.5143110  19.3639130  65.6011700  11.5961010  18.1724890
  67.5640450  28.3420030  17.9506300  68.3565770  27.8469260  17.7432260
  67.8573600  29.0210170  18.5581910  61.8218150   2.2176500 103.3592560
  61.0460250   1.7376940 103.6491130  62.4731080   1.5382150 103.1848720
  55.8383980   2.5296310 104.2368320  55.0068860   2.2745020 104.6364830
  56.4464960   2.6007080 104.9726240  65.8425580   6.6236690 102.1391690
  65.3807110   5.8523930 102.4678860  66.6551130   6.6502760 102.6444140
  55.8185240   6.5636400 104.4326340  56.1213280   5.6734140 104.2536560
  56.5628830   7.1206620 104.2048590  62.0688890   8.9094700 101.7595680
  61.4500330   9.3652200 101.1890120  62.9240670   9.0646160 101.3585380
  61.2627140   4.8933690 103.3662720  61.1935420   3.9523630 103.2051850
  62.0247000   4.9835100 103.9385290  62.9352240   3.7933940  99.1527590
  62.3169510   4.2583390  98.5890310  63.4475490   4.4861420  99.5697100
  57.7984000   3.3209810 105.8311190  57.4653380   3.9478730 106.4732260
  57.9750680   3.8471690 105.0512860  57.0103100   5.2890610 107.6460370
  57.6277100   5.9641690 107.3644820  56.1496220   5.6978590 107.5547870
  52.3035440   4.4790470  96.5267220  51.9263420   4.9677570  95.7952120
  52.5608510   5.1515750  97.1573750  67.9280690   6.7530020 105.5615010
  67.2444210   7.4229130 105.5531680  68.4674980   6.9510670 104.7959870
  65.4639430   8.5974150 104.2760190  65.4766590   8.1936440 103.4082450
  64.9114650   9.3721440 104.1721620  66.7584850   5.3190370  99.3650360
  66.6481180   4.3764700  99.4899780  66.7553100   5.6806010 100.2513120
  64.8624870   3.5003990 105.6042800  65.2793660   3.2864100 104.7696260
  65.5864690   3.7576780 106.1751420  68.8086970   1.8991210 105.6959040
  67.9805600   1.9684300 105.2209170  69.4037450   2.4845520 105.2274870
  66.3302420   2.5075990  99.2248100  65.7114840   2.1695540  98.5774400
  66.3126870   1.8635750  99.9327290  58.3743470   5.1587990 103.6671790
  58.0771760   4.5533460 102.9879570  59.3243290   5.1965300 103.5561150
  66.4629080   8.7319860 107.3294890  65.9859640   9.5392050 107.1367500
  65.7790870   8.0798190 107.4821100  57.4661900   4.8969680 110.3179590
  56.5690430   5.1209650 110.5652990  57.4914770   5.0204620 109.3690990
  56.2933120   1.7683000 108.8936960  56.1540890   2.6405800 109.2624360
  55.4114480   1.4255810 108.7484900  62.6162500   6.6858870 100.2002090
  63.0558410   7.4283200  99.7857480  62.5549390   6.9285440 101.1241050
  52.2451770   3.5380550 104.8107870  52.3232190   3.6729320 103.8663590
  52.8593450   2.8296440 105.0035990  53.4899400   5.2380740 101.2214050
  53.0827480   5.3795330 100.3667650  54.3812410   4.9540900 101.0185260
  69.4461540   5.6844650 109.5586290  69.5724600   5.4456530 108.6403470
  69.4882920   4.8529190 110.0308370  63.3078280   9.3872650 108.1281100
  63.8222950   9.2980660 108.9303530  62.4647360   9.7332350 108.4209010
  65.2832680   9.6727990  97.5565100  65.1233820   9.3830930  98.4546930
  65.1179390   8.8968120  97.0210330  57.7621060   9.4526520  99.3336720
  57.5863540   8.5362060  99.1204520  56.9076800   9.8113810  99.5734520
  64.9858810   7.1815550  96.1163100  64.2923970   7.1792840  95.4565380
  65.7281670   6.7574870  95.6857270  64.5508740   8.8078260 100.1911590
  65.0065690   8.0267640 100.5050210  64.8901260   9.5185080 100.7352770
  52.3011290   4.5794720 107.3502330  52.4642330   4.1100080 106.5321700
  52.7663740   4.0718280 108.0151170  53.8750270   3.9546150 109.5098140
  53.4905060   3.3139820 110.1081100  54.1862460   4.6582270 110.0792870
  56.3428570   4.0492320  97.9057820  55.5690830   3.5089940  97.7456540
  57.0723200   3.5298930  97.5675580  67.1016550   3.0457680 103.6984210
  67.8215670   3.5412970 103.3080320  66.8998370   2.3675570 103.0538080
  62.4835350   3.1166740 109.5853210  62.4172660   2.1962410 109.3310800
  61.8540490   3.2142180 110.2997850  56.3865970   3.7172700 101.5436630
  56.9044640   2.9140960 101.4893520  55.9349990   3.6551840 102.3853460
  61.2735470   4.9838980  96.8163930  61.6151170   5.7281210  96.3207250
  60.4448180   5.2970100  97.1788760  62.4152080   5.9387310 109.3357010
  62.4296620   5.0068270 109.1175920  61.7077180   6.0247070 109.9746780
  68.6263290   2.5794650 108.6825590  67.9011480   3.1723430 108.4854980
  69.1538750   2.5718190 107.8838960  68.5776400   6.9769390  98.3337750
  67.9352560   6.3225010  98.6081470  68.1907060   7.3824480  97.5578420
  64.1562880   4.3054820 102.1809440  64.5086700   3.7082950 101.5210810
  63.2725210   3.9799050 102.3517690  60.2426160   5.0652510  99.5879850
  60.9297290   5.6121720  99.9687440  59.4558580   5.6093240  99.6229460
  59.5453370   2.0698540  99.2005210  60.0016150   2.8803790  99.4265400
  59.1941580   1.7521680 100.0323700  61.8485980   7.5804880 106.4297510
  62.4928200   7.7864260 107.1070930  62.2115420   6.8193280 105.9768360
  63.1218060   5.5837230 105.1474960  63.7640290   4.8830390 105.2607130
  63.6467410   6.3635670 104.9671850  66.9673780   5.8685850  94.8714100
  66.7411360   5.1516290  95.4638740  66.5769980   5.6198290  94.0335850
  64.8955680   6.3832130 108.3511020  65.2311920   6.9698820 109.0288940
  63.9756020   6.2524840 108.5808810  52.7489810   9.8952710  95.6458560
  53.1087450  10.4942050  94.9915830  52.6082150  10.4412600  96.4193590
  66.5490030   3.7857790  96.5328260  66.2611730   4.2470480  97.3206140
  67.3442200   3.3255560  96.8012480  52.7331670   8.1607570 110.1200960
  52.8422790   7.2202310 109.9796350  52.0812230   8.4262320 109.4714690
  58.7658430   7.2783910  96.4632230  58.7568530   8.0113600  95.8476740
  57.8456790   7.0315490  96.5559190  54.3665070   2.4998800  97.2078990
  53.7593020   3.2397700  97.2174290  54.8414420   2.5898160  96.3817190
  61.7518030   7.3412150  95.1257420  61.8530010   7.1376140  94.1959400
  60.8519770   7.0870430  95.3305200  60.3936140   9.8598470  99.8205090
  60.6477640   9.8219860  98.8984460  59.4448620   9.7331800  99.8133340
  56.3770360   2.4609950  94.9567560  57.1433630   2.3491310  95.5192990
  56.4545050   1.7647920  94.3044330  68.4014300   7.9499200 103.0717860
  68.5261720   8.7730370 103.5441670  69.2679860   7.7389930 102.7242010
  55.8731830  10.0430410 102.7434990  56.6094310   9.4945870 103.0143560
  56.2572750  10.9086420 102.6040980  52.7577310   6.1103980  98.6176500
  51.8317090   6.3525120  98.6081910  53.2233740   6.9378240  98.4961250
  58.9834140   9.2160720  94.5660560  59.7762750   9.5049550  94.1142350
  58.4638490   8.7852890  93.8873040  68.0364310   8.4430850  95.9897300
  67.7505820   8.0295990  95.1751480  67.8383860   9.3718560  95.8697820
  59.5011540   4.4364130  94.4302910  59.3962180   3.8216480  95.1564290
  59.3335760   3.9130020  93.6465920  59.6525860   3.1220930 110.4092140
  58.8871530   3.6905930 110.3246810  59.8341820   2.8297140 109.5160370
  62.7414270   3.4984160  95.0344900  62.1924370   3.9453460  95.6787640
  63.3633530   2.9933410  95.5582570  66.7949210   4.8526260 110.9667160
  67.5358680   5.1902020 110.4634620  66.0321890   5.0218320 110.4136930
  58.4089390   2.4575080  96.9310200  58.8305810   2.2914950  97.7741590
  58.5340230   1.6475310  96.4365340  65.4694870   2.9041090 109.5022370
  65.8835890   3.0586170 110.3512790  64.5345870   3.0296310 109.6648150
  60.2310100   2.8561570 107.4718300  60.6498210   3.6994300 107.2994540
  59.3118730   2.9933610 107.2425080  58.0817520   9.1614580 108.5876030
  57.5438610   9.8860640 108.2684730  58.3351480   8.6844920 107.7973370
  60.9379730  10.3965790 108.8462680  60.8638430  11.3000930 109.1535050
  60.0358570  10.0777690 108.8184750  61.4865060   9.5624300  96.4689040
  62.3815850   9.9009270  96.4907800  61.5182690   8.8403710  95.8413320
  55.1261220   4.9351350  94.6976040  55.5636090   5.4781020  95.3533620
  55.6108950   4.1098300  94.7072380  52.3407020   7.7240380 102.1496300
  52.6710030   6.8561440 101.9174940  52.7698020   7.9298900 102.9801260
  56.9368940   6.0549390  99.8098270  56.6364480   5.9314360 100.7102180
  56.8306430   5.1957980  99.4014000  52.8297230   8.5910970 104.8877930
  52.3928220   8.7711770 105.7202080  53.3974910   9.3485590 104.7459650
  68.4659410   8.0927970 109.1755240  67.8661400   8.1520530 108.4319160
  68.5953310   7.1532950 109.3052090  69.7060860   5.8345790  94.5124950
  68.8753820   5.9022440  94.9832180  69.8832690   6.7249910  94.2091810
  69.1617320   2.5793270  97.0159150  69.9236230   3.1489920  97.1218840
  69.1771690   2.0120470  97.7867460  70.1677290   3.4343370 101.8601080
  70.5386120   2.6510690 101.4537050  70.8079220   4.1232470 101.6818380
  67.1511050   4.8179950 107.2731400  66.3370890   5.2477110 107.5357190
  67.5585250   5.4298360 106.6600450  69.2136490   2.8727640  94.1731670
  69.4885330   3.7806520  94.0450890  69.0247230   2.8090170  95.1093660
  67.2087100   9.5698550 100.7999670  67.8046170   9.2483120 100.1234090
  67.4665250   9.0970370 101.5912940  58.8155700   7.5576050 106.5500020
  58.5747060   7.8250610 105.6630540  59.7558340   7.7281780 106.6050880
  70.0759860   9.5770430 107.3510660  69.5818140   9.9739300 106.6337790
  69.4673150   8.9519640 107.7447940  54.9537700   8.9478710 108.0688080
  54.3598020   8.8163410 108.8078120  54.9461540   8.1116850 107.6030180
  67.7599310  10.2193850 104.6297400  67.3002280  10.9709660 104.2555420
  67.1311770   9.5000320 104.5712200  54.5849930   6.3137090 107.0196120
  53.8583990   5.6942380 106.9522070  54.6459080   6.7077700 106.1494200
  58.1895030   8.5282090 103.8045530  58.7060050   7.9169450 103.2793790
  58.8392410   9.0310870 104.2956540  60.9290530   9.4190580 104.6314510
  61.2168340   9.1644880 103.7547520  61.4413750   8.8667940 105.2220080
  52.8679930   9.6311480 100.2292880  52.7001970   8.9982160 100.9274770
  52.0014440   9.8370880  99.8787070  54.4742630   8.3244710  97.6743020
  53.9490250   8.7052740  96.9704980  54.3987210   8.9495480  98.3952730
  69.2307950   9.8832250  98.9956960  69.4060140   9.1969990  98.3517880
  68.5329520  10.4079300  98.6033630  57.0735600  10.2727090  96.5492270
  57.8054420   9.9886370  96.0016160  57.3329270  10.0340370  97.4391650
  56.2350390   6.3891820  96.5538600  55.6059270   6.8576920  97.1024430
  56.3498220   5.5441040  96.9884790  61.8218150   2.2176500  84.5849070
  61.0460250   1.7376940  84.8747640  62.4731080   1.5382150  84.4105230
  55.8383980   2.5296310  85.4624830  55.0068860   2.2745020  85.8621340
  56.4464960   2.6007080  86.1982750  65.8425580   6.6236690  83.3648200
  65.3807110   5.8523930  83.6935370  66.6551130   6.6502760  83.8700650
  55.8185240   6.5636400  85.6582850  56.1213280   5.6734140  85.4793070
  56.5628830   7.1206620  85.4305100  62.0688890   8.9094700  82.9852190
  61.4500330   9.3652200  82.4146630  62.9240670   9.0646160  82.5841890
  61.2627140   4.8933690  84.5919230  61.1935420   3.9523630  84.4308360
  62.0247000   4.9835100  85.1641800  62.9352240   3.7933940  80.3784100
  62.3169510   4.2583390  79.8146820  63.4475490   4.4861420  80.7953610
  57.7984000   3.3209810  87.0567700  57.4653380   3.9478730  87.6988770
  57.9750680   3.8471690  86.2769370  57.0103100   5.2890610  88.8716880
  57.6277100   5.9641690  88.5901330  56.1496220   5.6978590  88.7804380
  52.3035440   4.4790470  77.7523730  51.9263420   4.9677570  77.0208630
  52.5608510   5.1515750  78.3830260  67.9280690   6.7530020  86.7871520
  67.2444210   7.4229130  86.7788190  68.4674980   6.9510670  86.0216380
  65.4639430   8.5974150  85.5016700  65.4766590   8.1936440  84.6338960
  64.9114650   9.3721440  85.3978130  66.7584850   5.3190370  80.5906870
  66.6481180   4.3764700  80.7156290  66.7553100   5.6806010  81.4769630
  64.8624870   3.5003990  86.8299310  65.2793660   3.2864100  85.9952770
  65.5864690   3.7576780  87.4007930  68.8086970   1.8991210  86.9215550
  67.9805600   1.9684300  86.4465680  69.4037450   2.4845520  86.4531380
  66.3302420   2.5075990  80.4504610  65.7114840   2.1695540  79.8030910
  66.3126870   1.8635750  81.1583800  58.3743470   5.1587990  84.8928300
  58.0771760   4.5533460  84.2136080  59.3243290   5.1965300  84.7817660
  66.4629080   8.7319860  88.5551400  65.9859640   9.5392050  88.3624010
  65.7790870   8.0798190  88.7077610  57.4661900   4.8969680  91.5436100
  56.5690430   5.1209650  91.7909500  57.4914770   5.0204620  90.5947500
  56.2933120   1.7683000  90.1193470  56.1540890   2.6405800  90.4880870
  55.4114480   1.4255810  89.9741410  62.6162500   6.6858870  81.4258600
  63.0558410   7.4283200  81.0113990  62.5549390   6.9285440  82.3497560
  58.0913470   7.7104700  92.3278620  58.0628900   8.1147650  91.4607050
  57.9278440   6.7815060  92.1650220  70.0428290   8.4931800  93.6242790
  70.5188010   8.9714690  94.3031870  70.6635450   8.4249290  92.8988290
  52.2451770   3.5380550  86.0364380  52.3232190   3.6729320  85.0920100
  52.8593450   2.8296440  86.2292500  53.4899400   5.2380740  82.4470560
  53.0827480   5.3795330  81.5924160  54.3812410   4.9540900  82.2441770
  69.4461540   5.6844650  90.7842800  69.5724600   5.4456530  89.8659980
  69.4882920   4.8529190  91.2564880  63.3078280   9.3872650  89.3537610
  63.8222950   9.2980660  90.1560040  62.4647360   9.7332350  89.6465520
  65.2832680   9.6727990  78.7821610  65.1233820   9.3830930  79.6803440
  65.1179390   8.8968120  78.2466840  57.7621060   9.4526520  80.5593230
  57.5863540   8.5362060  80.3461030  56.9076800   9.8113810  80.7991030
  64.9858810   7.1815550  77.3419610  64.2923970   7.1792840  76.6821890
  65.7281670   6.7574870  76.9113780  64.5508740   8.8078260  81.4168100
  65.0065690   8.0267640  81.7306720  64.8901260   9.5185080  81.9609280
  52.3011290   4.5794720  88.5758840  52.4642330   4.1100080  87.7578210
  52.7663740   4.0718280  89.2407680  53.8750270   3.9546150  90.7354650
  53.4905060   3.3139820  91.3337610  54.1862460   4.6582270  91.3049380
  56.3428570   4.0492320  79.1314330  55.5690830   3.5089940  78.9713050
  57.0723200   3.5298930  78.7932090  67.1016550   3.0457680  84.9240720
  67.8215670   3.5412970  84.5336830  66.8998370   2.3675570  84.2794590
  62.4835350   3.1166740  90.8109720  62.4172660   2.1962410  90.5567310
  61.8540490   3.2142180  91.5254360  56.3865970   3.7172700  82.7693140
  56.9044640   2.9140960  82.7150030  55.9349990   3.6551840  83.6109970
  61.2735470   4.9838980  78.0420440  61.6151170   5.7281210  77.5463760
  60.4448180   5.2970100  78.4045270  62.4152080   5.9387310  90.5613520
  62.4296620   5.0068270  90.3432430  61.7077180   6.0247070  91.2003290
  68.6263290   2.5794650  89.9082100  67.9011480   3.1723430  89.7111490
  69.1538750   2.5718190  89.1095470  68.5776400   6.9769390  79.5594260
  67.9352560   6.3225010  79.8337980  68.1907060   7.3824480  78.7834930
  64.1562880   4.3054820  83.4065950  64.5086700   3.7082950  82.7467320
  63.2725210   3.9799050  83.5774200  60.2426160   5.0652510  80.8136360
  60.9297290   5.6121720  81.1943950  59.4558580   5.6093240  80.8485970
  59.5453370   2.0698540  80.4261720  60.0016150   2.8803790  80.6521910
  59.1941580   1.7521680  81.2580210  61.8485980   7.5804880  87.6554020
  62.4928200   7.7864260  88.3327440  62.2115420   6.8193280  87.2024870
  63.1218060   5.5837230  86.3731470  63.7640290   4.8830390  86.4863640
  63.6467410   6.3635670  86.1928360  66.9673780   5.8685850  76.0970610
  66.7411360   5.1516290  76.6895250  66.5769980   5.6198290  75.2592360
  64.8955680   6.3832130  89.5767530  65.2311920   6.9698820  90.2545450
  63.9756020   6.2524840  89.8065320  52.7489810   9.8952710  76.8715070
  53.1087450  10.4942050  76.2172340  52.6082150  10.4412600  77.6450100
  66.5490030   3.7857790  77.7584770  66.2611730   4.2470480  78.5462650
  67.3442200   3.3255560  78.0268990  52.7331670   8.1607570  91.3457470
  52.8422790   7.2202310  91.2052860  52.0812230   8.4262320  90.6971200
  60.7244260   6.4323460  92.7455590  60.4041130   5.7132700  93.2901280
  60.0502620   7.1078530  92.8191650  58.7658430   7.2783910  77.6888740
  58.7568530   8.0113600  77.0733250  57.8456790   7.0315490  77.7815700
  54.3665070   2.4998800  78.4335500  53.7593020   3.2397700  78.4430800
  54.8414420   2.5898160  77.6073700  61.7518030   7.3412150  76.3513930
  61.8530010   7.1376140  75.4215910  60.8519770   7.0870430  76.5561710
  60.3936140   9.8598470  81.0461600  60.6477640   9.8219860  80.1240970
  59.4448620   9.7331800  81.0389850  56.3770360   2.4609950  76.1824070
  57.1433630   2.3491310  76.7449500  56.4545050   1.7647920  75.5300840
  68.4014300   7.9499200  84.2974370  68.5261720   8.7730370  84.7698180
  69.2679860   7.7389930  83.9498520  55.8731830  10.0430410  83.9691500
  56.6094310   9.4945870  84.2400070  56.2572750  10.9086420  83.8297490
  52.7577310   6.1103980  79.8433010  51.8317090   6.3525120  79.8338420
  53.2233740   6.9378240  79.7217760  54.8790110   9.2276480  93.1577080
  55.6802840   9.5488530  93.5712480  54.3641930   8.8672060  93.8796990
  58.9834140   9.2160720  75.7917070  59.7762750   9.5049550  75.3398860
  58.4638490   8.7852890  75.1129550  63.7154740   5.3356350  93.1052490
  63.1092900   5.3587950  92.3648240  63.4108850   4.6039390  93.6419740
  65.1455110   9.0636640  91.7161900  66.0976860   8.9794660  91.6662140
  64.9983330   9.7278350  92.3895690  68.0364310   8.4430850  77.2153810
  67.7505820   8.0295990  76.4007990  67.8383860   9.3718560  77.0954330
  59.5011540   4.4364130  75.6559420  59.3962180   3.8216480  76.3820800
  59.3335760   3.9130020  74.8722430  59.6525860   3.1220930  91.6348650
  58.8871530   3.6905930  91.5503320  59.8341820   2.8297140  90.7416880
  62.7414270   3.4984160  76.2601410  62.1924370   3.9453460  76.9044150
  63.3633530   2.9933410  76.7839080  66.7949210   4.8526260  92.1923670
  67.5358680   5.1902020  91.6891130  66.0321890   5.0218320  91.6393440
  58.4089390   2.4575080  78.1566710  58.8305810   2.2914950  78.9998100
  58.5340230   1.6475310  77.6621850  65.4694870   2.9041090  90.7278880
  65.8835890   3.0586170  91.5769300  64.5345870   3.0296310  90.8904660
  60.2310100   2.8561570  88.6974810  60.6498210   3.6994300  88.5251050
  59.3118730   2.9933610  88.4681590  58.0817520   9.1614580  89.8132540
  57.5438610   9.8860640  89.4941240  58.3351480   8.6844920  89.0229880
  60.9379730  10.3965790  90.0719190  60.8638430  11.3000930  90.3791560
  60.0358570  10.0777690  90.0441260  61.4865060   9.5624300  77.6945550
  62.3815850   9.9009270  77.7164310  61.5182690   8.8403710  77.0669830
  55.1261220   4.9351350  75.9232550  55.5636090   5.4781020  76.5790130
  55.6108950   4.1098300  75.9328890  52.3407020   7.7240380  83.3752810
  52.6710030   6.8561440  83.1431450  52.7698020   7.9298900  84.2057770
  56.9368940   6.0549390  81.0354780  56.6364480   5.9314360  81.9358690
  56.8306430   5.1957980  80.6270510  52.8297230   8.5910970  86.1134440
  52.3928220   8.7711770  86.9458590  53.3974910   9.3485590  85.9716160
  68.4659410   8.0927970  90.4011750  67.8661400   8.1520530  89.6575670
  68.5953310   7.1532950  90.5308600  69.7060860   5.8345790  75.7381460
  68.8753820   5.9022440  76.2088690  69.8832690   6.7249910  75.4348320
  69.1617320   2.5793270  78.2415660  69.9236230   3.1489920  78.3475350
  69.1771690   2.0120470  79.0123970  70.1677290   3.4343370  83.0857590
  70.5386120   2.6510690  82.6793560  70.8079220   4.1232470  82.9074890
  67.1511050   4.8179950  88.4987910  66.3370890   5.2477110  88.7613700
  67.5585250   5.4298360  87.8856960  69.2136490   2.8727640  75.3988180
  69.4885330   3.7806520  75.2707400  69.0247230   2.8090170  76.3350170
  67.2087100   9.5698550  82.0256180  67.8046170   9.2483120  81.3490600
  67.4665250   9.0970370  82.8169450  55.1149670   6.0016460  92.1746810
  55.0719300   5.6309370  93.0561270  55.2460680   6.9394030  92.3148630
  58.8155700   7.5576050  87.7756530  58.5747060   7.8250610  86.8887050
  59.7558340   7.7281780  87.8307390  70.0759860   9.5770430  88.5767170
  69.5818140   9.9739300  87.8594300  69.4673150   8.9519640  88.9704450
  54.9537700   8.9478710  89.2944590  54.3598020   8.8163410  90.0334630
  54.9461540   8.1116850  88.8286690  67.7599310  10.2193850  85.8553910
  67.3002280  10.9709660  85.4811930  67.1311770   9.5000320  85.7968710
  54.5849930   6.3137090  88.2452630  53.8583990   5.6942380  88.1778580
  54.6459080   6.7077700  87.3750710  58.1895030   8.5282090  85.0302040
  58.7060050   7.9169450  84.5050300  58.8392410   9.0310870  85.5213050
  60.9290530   9.4190580  85.8571020  61.2168340   9.1644880  84.9804030
  61.4413750   8.8667940  86.4476590  52.8679930   9.6311480  81.4549390
  52.7001970   8.9982160  82.1531280  52.0014440   9.8370880  81.1043580
  54.4742630   8.3244710  78.8999530  53.9490250   8.7052740  78.1961490
  54.3987210   8.9495480  79.6209240  60.9962890  10.3406680  93.2239220
  61.9230200  10.1050950  93.2675180  60.9813320  11.1678680  92.7425250
  69.2307950   9.8832250  80.2213470  69.4060140   9.1969990  79.5774390
  68.5329520  10.4079300  79.8290140  57.0735600  10.2727090  77.7748780
  57.8054420   9.9886370  77.2272670  57.3329270  10.0340370  78.6648160
  56.2350390   6.3891820  77.7795110  55.6059270   6.8576920  78.3280940
  56.3498220   5.5441040  78.2141300  67.5640450   9.5676540  93.0480260
  68.3565770   9.0725770  92.8406220  67.8573600  10.2466680  93.6555870
  61.8218150   2.2176500  65.8105580  61.0460250   1.7376940  66.1004150
  62.4731080   1.5382150  65.6361740  55.8383980   2.5296310  66.6881340
  55.0068860   2.2745020  67.0877850  56.4464960   2.6007080  67.4239260
  65.8425580   6.6236690  64.5904710  65.3807110   5.8523930  64.9191880
  66.6551130   6.6502760  65.0957160  55.8185240   6.5636400  66.8839360
  56.1213280   5.6734140  66.7049580  56.5628830   7.1206620  66.6561610
  62.0688890   8.9094700  64.2108700  61.4500330   9.3652200  63.6403140
  62.9240670   9.0646160  63.8098400  61.2627140   4.8933690  65.8175740
  61.1935420   3.9523630  65.6564870  62.0247000   4.9835100  66.3898310
  62.9352240   3.7933940  61.6040610  62.3169510   4.2583390  61.0403330
  63.4475490   4.4861420  62.0210120  57.7984000   3.3209810  68.2824210
  57.4653380   3.9478730  68.9245280  57.9750680   3.8471690  67.5025880
  57.0103100   5.2890610  70.0973390  57.6277100   5.9641690  69.8157840
  56.1496220   5.6978590  70.0060890  52.3035440   4.4790470  58.9780240
  51.9263420   4.9677570  58.2465140  52.5608510   5.1515750  59.6086770
  67.9280690   6.7530020  68.0128030  67.2444210   7.4229130  68.0044700
  68.4674980   6.9510670  67.2472890  65.4639430   8.5974150  66.7273210
  65.4766590   8.1936440  65.8595470  64.9114650   9.3721440  66.6234640
  66.7584850   5.3190370  61.8163380  66.6481180   4.3764700  61.9412800
  66.7553100   5.6806010  62.7026140  64.8624870   3.5003990  68.0555820
  65.2793660   3.2864100  67.2209280  65.5864690   3.7576780  68.6264440
  68.8086970   1.8991210  68.1472060  67.9805600   1.9684300  67.6722190
  69.4037450   2.4845520  67.6787890  66.3302420   2.5075990  61.6761120
  65.7114840   2.1695540  61.0287420  66.3126870   1.8635750  62.3840310
  58.3743470   5.1587990  66.1184810  58.0771760   4.5533460  65.4392590
  59.3243290   5.1965300  66.0074170  66.4629080   8.7319860  69.7807910
  65.9859640   9.5392050  69.5880520  65.7790870   8.0798190  69.9334120
  57.4661900   4.8969680  72.7692610  56.5690430   5.1209650  73.0166010
  57.4914770   5.0204620  71.8204010  56.2933120   1.7683000  71.3449980
  56.1540890   2.6405800  71.7137380  55.4114480   1.4255810  71.1997920
  62.6162500   6.6858870  62.6515110  63.0558410   7.4283200  62.2370500
  62.5549390   6.9285440  63.5754070  58.0913470   7.7104700  73.5535130
  58.0628900   8.1147650  72.6863560  57.9278440   6.7815060  73.3906730
  70.0428290   8.4931800  74.8499300  70.5188010   8.9714690  75.5288380
  70.6635450   8.4249290  74.1244800  52.2451770   3.5380550  67.2620890
  52.3232190   3.6729320  66.3176610  52.8593450   2.8296440  67.4549010
  53.4899400   5.2380740  63.6727070  53.0827480   5.3795330  62.8180670
  54.3812410   4.9540900  63.4698280  69.4461540   5.6844650  72.0099310
  69.5724600   5.4456530  71.0916490  69.4882920   4.8529190  72.4821390
  63.3078280   9.3872650  70.5794120  63.8222950   9.2980660  71.3816550
  62.4647360   9.7332350  70.8722030  65.2832680   9.6727990  60.0078120
  65.1233820   9.3830930  60.9059950  65.1179390   8.8968120  59.4723350
  57.7621060   9.4526520  61.7849740  57.5863540   8.5362060  61.5717540
  56.9076800   9.8113810  62.0247540  64.9858810   7.1815550  58.5676120
  64.2923970   7.1792840  57.9078400  65.7281670   6.7574870  58.1370290
  64.5508740   8.8078260  62.6424610  65.0065690   8.0267640  62.9563230
  64.8901260   9.5185080  63.1865790  52.3011290   4.5794720  69.8015350
  52.4642330   4.1100080  68.9834720  52.7663740   4.0718280  70.4664190
  53.8750270   3.9546150  71.9611160  53.4905060   3.3139820  72.5594120
  54.1862460   4.6582270  72.5305890  56.3428570   4.0492320  60.3570840
  55.5690830   3.5089940  60.1969560  57.0723200   3.5298930  60.0188600
  67.1016550   3.0457680  66.1497230  67.8215670   3.5412970  65.7593340
  66.8998370   2.3675570  65.5051100  62.4835350   3.1166740  72.0366230
  62.4172660   2.1962410  71.7823820  61.8540490   3.2142180  72.7510870
  56.3865970   3.7172700  63.9949650  56.9044640   2.9140960  63.9406540
  55.9349990   3.6551840  64.8366480  61.2735470   4.9838980  59.2676950
  61.6151170   5.7281210  58.7720270  60.4448180   5.2970100  59.6301780
  62.4152080   5.9387310  71.7870030  62.4296620   5.0068270  71.5688940
  61.7077180   6.0247070  72.4259800  68.6263290   2.5794650  71.1338610
  67.9011480   3.1723430  70.9368000  69.1538750   2.5718190  70.3351980
  68.5776400   6.9769390  60.7850770  67.9352560   6.3225010  61.0594490
  68.1907060   7.3824480  60.0091440  64.1562880   4.3054820  64.6322460
  64.5086700   3.7082950  63.9723830  63.2725210   3.9799050  64.8030710
  60.2426160   5.0652510  62.0392870  60.9297290   5.6121720  62.4200460
  59.4558580   5.6093240  62.0742480  59.5453370   2.0698540  61.6518230
  60.0016150   2.8803790  61.8778420  59.1941580   1.7521680  62.4836720
  61.8485980   7.5804880  68.8810530  62.4928200   7.7864260  69.5583950
  62.2115420   6.8193280  68.4281380  63.1218060   5.5837230  67.5987980
  63.7640290   4.8830390  67.7120150  63.6467410   6.3635670  67.4184870
  66.9673780   5.8685850  57.3227120  66.7411360   5.1516290  57.9151760
  66.5769980   5.6198290  56.4848870  64.8955680   6.3832130  70.8024040
  65.2311920   6.9698820  71.4801960  63.9756020   6.2524840  71.0321830
  52.7489810   9.8952710  58.0971580  53.1087450  10.4942050  57.4428850
  52.6082150  10.4412600  58.8706610  66.5490030   3.7857790  58.9841280
  66.2611730   4.2470480  59.7719160  67.3442200   3.3255560  59.2525500
  52.7331670   8.1607570  72.5713980  52.8422790   7.2202310  72.4309370
  52.0812230   8.4262320  71.9227710  60.7244260   6.4323460  73.9712100
  60.4041130   5.7132700  74.5157790  60.0502620   7.1078530  74.0448160
  58.7658430   7.2783910  58.9145250  58.7568530   8.0113600  58.2989760
  57.8456790   7.0315490  59.0072210  54.3665070   2.4998800  59.6592010
  53.7593020   3.2397700  59.6687310  54.8414420   2.5898160  58.8330210
  61.7518030   7.3412150  57.5770440  61.8530010   7.1376140  56.6472420
  60.8519770   7.0870430  57.7818220  60.3936140   9.8598470  62.2718110
  60.6477640   9.8219860  61.3497480  59.4448620   9.7331800  62.2646360
  56.3770360   2.4609950  57.4080580  57.1433630   2.3491310  57.9706010
  56.4545050   1.7647920  56.7557350  68.4014300   7.9499200  65.5230880
  68.5261720   8.7730370  65.9954690  69.2679860   7.7389930  65.1755030
  55.8731830  10.0430410  65.1948010  56.6094310   9.4945870  65.4656580
  56.2572750  10.9086420  65.0554000  52.7577310   6.1103980  61.0689520
  51.8317090   6.3525120  61.0594930  53.2233740   6.9378240  60.9474270
  54.8790110   9.2276480  74.3833590  55.6802840   9.5488530  74.7968990
  54.3641930   8.8672060  75.1053500  58.9834140   9.2160720  57.0173580
  59.7762750   9.5049550  56.5655370  58.4638490   8.7852890  56.3386060
  63.7154740   5.3356350  74.3309000  63.1092900   5.3587950  73.5904750
  63.4108850   4.6039390  74.8676250  65.1455110   9.0636640  72.9418410
  66.0976860   8.9794660  72.8918650  64.9983330   9.7278350  73.6152200
  68.0364310   8.4430850  58.4410320  67.7505820   8.0295990  57.6264500
  67.8383860   9.3718560  58.3210840  59.5011540   4.4364130  56.8815930
  59.3962180   3.8216480  57.6077310  59.3335760   3.9130020  56.0978940
  59.6525860   3.1220930  72.8605160  58.8871530   3.6905930  72.7759830
  59.8341820   2.8297140  71.9673390  62.7414270   3.4984160  57.4857920
  62.1924370   3.9453460  58.1300660  63.3633530   2.9933410  58.0095590
  66.7949210   4.8526260  73.4180180  67.5358680   5.1902020  72.9147640
  66.0321890   5.0218320  72.8649950  58.4089390   2.4575080  59.3823220
  58.8305810   2.2914950  60.2254610  58.5340230   1.6475310  58.8878360
  65.4694870   2.9041090  71.9535390  65.8835890   3.0586170  72.8025810
  64.5345870   3.0296310  72.1161170  60.2310100   2.8561570  69.9231320
  60.6498210   3.6994300  69.7507560  59.3118730   2.9933610  69.6938100
  58.0817520   9.1614580  71.0389050  57.5438610   9.8860640  70.7197750
  58.3351480   8.6844920  70.2486390  60.9379730  10.3965790  71.2975700
  60.8638430  11.3000930  71.6048070  60.0358570  10.0777690  71.2697770
  61.4865060   9.5624300  58.9202060  62.3815850   9.9009270  58.9420820
  61.5182690   8.8403710  58.2926340  55.1261220   4.9351350  57.1489060
  55.5636090   5.4781020  57.8046640  55.6108950   4.1098300  57.1585400
  52.3407020   7.7240380  64.6009320  52.6710030   6.8561440  64.3687960
  52.7698020   7.9298900  65.4314280  56.9368940   6.0549390  62.2611290
  56.6364480   5.9314360  63.1615200  56.8306430   5.1957980  61.8527020
  52.8297230   8.5910970  67.3390950  52.3928220   8.7711770  68.1715100
  53.3974910   9.3485590  67.1972670  68.4659410   8.0927970  71.6268260
  67.8661400   8.1520530  70.8832180  68.5953310   7.1532950  71.7565110
  69.7060860   5.8345790  56.9637970  68.8753820   5.9022440  57.4345200
  69.8832690   6.7249910  56.6604830  69.1617320   2.5793270  59.4672170
  69.9236230   3.1489920  59.5731860  69.1771690   2.0120470  60.2380480
  70.1677290   3.4343370  64.3114100  70.5386120   2.6510690  63.9050070
  70.8079220   4.1232470  64.1331400  67.1511050   4.8179950  69.7244420
  66.3370890   5.2477110  69.9870210  67.5585250   5.4298360  69.1113470
  69.2136490   2.8727640  56.6244690  69.4885330   3.7806520  56.4963910
  69.0247230   2.8090170  57.5606680  67.2087100   9.5698550  63.2512690
  67.8046170   9.2483120  62.5747110  67.4665250   9.0970370  64.0425960
  55.1149670   6.0016460  73.4003320  55.0719300   5.6309370  74.2817780
  55.2460680   6.9394030  73.5405140  58.8155700   7.5576050  69.0013040
  58.5747060   7.8250610  68.1143560  59.7558340   7.7281780  69.0563900
  70.0759860   9.5770430  69.8023680  69.5818140   9.9739300  69.0850810
  69.4673150   8.9519640  70.1960960  54.9537700   8.9478710  70.5201100
  54.3598020   8.8163410  71.2591140  54.9461540   8.1116850  70.0543200
  67.7599310  10.2193850  67.0810420  67.3002280  10.9709660  66.7068440
  67.1311770   9.5000320  67.0225220  54.5849930   6.3137090  69.4709140
  53.8583990   5.6942380  69.4035090  54.6459080   6.7077700  68.6007220
  58.1895030   8.5282090  66.2558550  58.7060050   7.9169450  65.7306810
  58.8392410   9.0310870  66.7469560  60.9290530   9.4190580  67.0827530
  61.2168340   9.1644880  66.2060540  61.4413750   8.8667940  67.6733100
  52.8679930   9.6311480  62.6805900  52.7001970   8.9982160  63.3787790
  52.0014440   9.8370880  62.3300090  54.4742630   8.3244710  60.1256040
  53.9490250   8.7052740  59.4218000  54.3987210   8.9495480  60.8465750
  60.9962890  10.3406680  74.4495730  61.9230200  10.1050950  74.4931690
  60.9813320  11.1678680  73.9681760  69.2307950   9.8832250  61.4469980
  69.4060140   9.1969990  60.8030900  68.5329520  10.4079300  61.0546650
  57.0735600  10.2727090  59.0005290  57.8054420   9.9886370  58.4529180
  57.3329270  10.0340370  59.8904670  56.2350390   6.3891820  59.0051620
  55.6059270   6.8576920  59.5537450  56.3498220   5.5441040  59.4397810
  67.5640450   9.5676540  74.2736770  68.3565770   9.0725770  74.0662730
  67.8573600  10.2466680  74.8812380  61.8218150   2.2176500  47.0362090
  61.0460250   1.7376940  47.3260660  62.4731080   1.5382150  46.8618250
  55.8383980   2.5296310  47.9137850  55.0068860   2.2745020  48.3134360
  56.4464960   2.6007080  48.6495770  65.8425580   6.6236690  45.8161220
  65.3807110   5.8523930  46.1448390  66.6551130   6.6502760  46.3213670
  55.8185240   6.5636400  48.1095870  56.1213280   5.6734140  47.9306090
  56.5628830   7.1206620  47.8818120  62.0688890   8.9094700  45.4365210
  61.4500330   9.3652200  44.8659650  62.9240670   9.0646160  45.0354910
  61.2627140   4.8933690  47.0432250  61.1935420   3.9523630  46.8821380
  62.0247000   4.9835100  47.6154820  62.9352240   3.7933940  42.8297120
  62.3169510   4.2583390  42.2659840  63.4475490   4.4861420  43.2466630
  57.7984000   3.3209810  49.5080720  57.4653380   3.9478730  50.1501790
  57.9750680   3.8471690  48.7282390  57.0103100   5.2890610  51.3229900
  57.6277100   5.9641690  51.0414350  56.1496220   5.6978590  51.2317400
  52.3035440   4.4790470  40.2036750  51.9263420   4.9677570  39.4721650
  52.5608510   5.1515750  40.8343280  67.9280690   6.7530020  49.2384540
  67.2444210   7.4229130  49.2301210  68.4674980   6.9510670  48.4729400
  65.4639430   8.5974150  47.9529720  65.4766590   8.1936440  47.0851980
  64.9114650   9.3721440  47.8491150  66.7584850   5.3190370  43.0419890
  66.6481180   4.3764700  43.1669310  66.7553100   5.6806010  43.9282650
  64.8624870   3.5003990  49.2812330  65.2793660   3.2864100  48.4465790
  65.5864690   3.7576780  49.8520950  68.8086970   1.8991210  49.3728570
  67.9805600   1.9684300  48.8978700  69.4037450   2.4845520  48.9044400
  66.3302420   2.5075990  42.9017630  65.7114840   2.1695540  42.2543930
  66.3126870   1.8635750  43.6096820  58.3743470   5.1587990  47.3441320
  58.0771760   4.5533460  46.6649100  59.3243290   5.1965300  47.2330680
  66.4629080   8.7319860  51.0064420  65.9859640   9.5392050  50.8137030
  65.7790870   8.0798190  51.1590630  57.4661900   4.8969680  53.9949120
  56.5690430   5.1209650  54.2422520  57.4914770   5.0204620  53.0460520
  56.2933120   1.7683000  52.5706490  56.1540890   2.6405800  52.9393890
  55.4114480   1.4255810  52.4254430  62.6162500   6.6858870  43.8771620
  63.0558410   7.4283200  43.4627010  62.5549390   6.9285440  44.8010580
  58.0913470   7.7104700  54.7791640  58.0628900   8.1147650  53.9120070
  57.9278440   6.7815060  54.6163240  70.0428290   8.4931800  56.0755810
  70.5188010   8.9714690  56.7544890  70.6635450   8.4249290  55.3501310
  52.2451770   3.5380550  48.4877400  52.3232190   3.6729320  47.5433120
  52.8593450   2.8296440  48.6805520  53.4899400   5.2380740  44.8983580
  53.0827480   5.3795330  44.0437180  54.3812410   4.9540900  44.6954790
  69.4461540   5.6844650  53.2355820  69.5724600   5.4456530  52.3173000
  69.4882920   4.8529190  53.7077900  63.3078280   9.3872650  51.8050630
  63.8222950   9.2980660  52.6073060  62.4647360   9.7332350  52.0978540
  65.2832680   9.6727990  41.2334630  65.1233820   9.3830930  42.1316460
  65.1179390   8.8968120  40.6979860  57.7621060   9.4526520  43.0106250
  57.5863540   8.5362060  42.7974050  56.9076800   9.8113810  43.2504050
  64.9858810   7.1815550  39.7932630  64.2923970   7.1792840  39.1334910
  65.7281670   6.7574870  39.3626800  64.5508740   8.8078260  43.8681120
  65.0065690   8.0267640  44.1819740  64.8901260   9.5185080  44.4122300
  52.3011290   4.5794720  51.0271860  52.4642330   4.1100080  50.2091230
  52.7663740   4.0718280  51.6920700  53.8750270   3.9546150  53.1867670
  53.4905060   3.3139820  53.7850630  54.1862460   4.6582270  53.7562400
  56.3428570   4.0492320  41.5827350  55.5690830   3.5089940  41.4226070
  57.0723200   3.5298930  41.2445110  67.1016550   3.0457680  47.3753740
  67.8215670   3.5412970  46.9849850  66.8998370   2.3675570  46.7307610
  62.4835350   3.1166740  53.2622740  62.4172660   2.1962410  53.0080330
  61.8540490   3.2142180  53.9767380  56.3865970   3.7172700  45.2206160
  56.9044640   2.9140960  45.1663050  55.9349990   3.6551840  46.0622990
  61.2735470   4.9838980  40.4933460  61.6151170   5.7281210  39.9976780
  60.4448180   5.2970100  40.8558290  62.4152080   5.9387310  53.0126540
  62.4296620   5.0068270  52.7945450  61.7077180   6.0247070  53.6516310
  68.6263290   2.5794650  52.3595120  67.9011480   3.1723430  52.1624510
  69.1538750   2.5718190  51.5608490  68.5776400   6.9769390  42.0107280
  67.9352560   6.3225010  42.2851000  68.1907060   7.3824480  41.2347950
  64.1562880   4.3054820  45.8578970  64.5086700   3.7082950  45.1980340
  63.2725210   3.9799050  46.0287220  60.2426160   5.0652510  43.2649380
  60.9297290   5.6121720  43.6456970  59.4558580   5.6093240  43.2998990
  59.5453370   2.0698540  42.8774740  60.0016150   2.8803790  43.1034930
  59.1941580   1.7521680  43.7093230  61.8485980   7.5804880  50.1067040
  62.4928200   7.7864260  50.7840460  62.2115420   6.8193280  49.6537890
  63.1218060   5.5837230  48.8244490  63.7640290   4.8830390  48.9376660
  63.6467410   6.3635670  48.6441380  66.9673780   5.8685850  38.5483630
  66.7411360   5.1516290  39.1408270  66.5769980   5.6198290  37.7105380
  64.8955680   6.3832130  52.0280550  65.2311920   6.9698820  52.7058470
  63.9756020   6.2524840  52.2578340  52.7489810   9.8952710  39.3228090
  53.1087450  10.4942050  38.6685360  52.6082150  10.4412600  40.0963120
  66.5490030   3.7857790  40.2097790  66.2611730   4.2470480  40.9975670
  67.3442200   3.3255560  40.4782010  52.7331670   8.1607570  53.7970490
  52.8422790   7.2202310  53.6565880  52.0812230   8.4262320  53.1484220
  60.7244260   6.4323460  55.1968610  60.4041130   5.7132700  55.7414300
  60.0502620   7.1078530  55.2704670  58.7658430   7.2783910  40.1401760
  58.7568530   8.0113600  39.5246270  57.8456790   7.0315490  40.2328720
  54.3665070   2.4998800  40.8848520  53.7593020   3.2397700  40.8943820
  54.8414420   2.5898160  40.0586720  61.7518030   7.3412150  38.8026950
  61.8530010   7.1376140  37.8728930  60.8519770   7.0870430  39.0074730
  60.3936140   9.8598470  43.4974620  60.6477640   9.8219860  42.5753990
  59.4448620   9.7331800  43.4902870  56.3770360   2.4609950  38.6337090
  57.1433630   2.3491310  39.1962520  56.4545050   1.7647920  37.9813860
  68.4014300   7.9499200  46.7487390  68.5261720   8.7730370  47.2211200
  69.2679860   7.7389930  46.4011540  55.8731830  10.0430410  46.4204520
  56.6094310   9.4945870  46.6913090  56.2572750  10.9086420  46.2810510
  52.7577310   6.1103980  42.2946030  51.8317090   6.3525120  42.2851440
  53.2233740   6.9378240  42.1730780  54.8790110   9.2276480  55.6090100
  55.6802840   9.5488530  56.0225500  54.3641930   8.8672060  56.3310010
  58.9834140   9.2160720  38.2430090  59.7762750   9.5049550  37.7911880
  58.4638490   8.7852890  37.5642570  63.7154740   5.3356350  55.5565510
  63.1092900   5.3587950  54.8161260  63.4108850   4.6039390  56.0932760
  65.1455110   9.0636640  54.1674920  66.0976860   8.9794660  54.1175160
  64.9983330   9.7278350  54.8408710  68.0364310   8.4430850  39.6666830
  67.7505820   8.0295990  38.8521010  67.8383860   9.3718560  39.5467350
  59.5011540   4.4364130  38.1072440  59.3962180   3.8216480  38.8333820
  59.3335760   3.9130020  37.3235450  59.6525860   3.1220930  54.0861670
  58.8871530   3.6905930  54.0016340  59.8341820   2.8297140  53.1929900
  62.7414270   3.4984160  38.7114430  62.1924370   3.9453460  39.3557170
  63.3633530   2.9933410  39.2352100  66.7949210   4.8526260  54.6436690
  67.5358680   5.1902020  54.1404150  66.0321890   5.0218320  54.0906460
  58.4089390   2.4575080  40.6079730  58.8305810   2.2914950  41.4511120
  58.5340230   1.6475310  40.1134870  65.4694870   2.9041090  53.1791900
  65.8835890   3.0586170  54.0282320  64.5345870   3.0296310  53.3417680
  60.2310100   2.8561570  51.1487830  60.6498210   3.6994300  50.9764070
  59.3118730   2.9933610  50.9194610  58.0817520   9.1614580  52.2645560
  57.5438610   9.8860640  51.9454260  58.3351480   8.6844920  51.4742900
  60.9379730  10.3965790  52.5232210  60.8638430  11.3000930  52.8304580
  60.0358570  10.0777690  52.4954280  61.4865060   9.5624300  40.1458570
  62.3815850   9.9009270  40.1677330  61.5182690   8.8403710  39.5182850
  55.1261220   4.9351350  38.3745570  55.5636090   5.4781020  39.0303150
  55.6108950   4.1098300  38.3841910  52.3407020   7.7240380  45.8265830
  52.6710030   6.8561440  45.5944470  52.7698020   7.9298900  46.6570790
  56.9368940   6.0549390  43.4867800  56.6364480   5.9314360  44.3871710
  56.8306430   5.1957980  43.0783530  52.8297230   8.5910970  48.5647460
  52.3928220   8.7711770  49.3971610  53.3974910   9.3485590  48.4229180
  68.4659410   8.0927970  52.8524770  67.8661400   8.1520530  52.1088690
  68.5953310   7.1532950  52.9821620  69.7060860   5.8345790  38.1894480
  68.8753820   5.9022440  38.6601710  69.8832690   6.7249910  37.8861340
  69.1617320   2.5793270  40.6928680  69.9236230   3.1489920  40.7988370
  69.1771690   2.0120470  41.4636990  70.1677290   3.4343370  45.5370610
  70.5386120   2.6510690  45.1306580  70.8079220   4.1232470  45.3587910
  67.1511050   4.8179950  50.9500930  66.3370890   5.2477110  51.2126720
  67.5585250   5.4298360  50.3369980  69.2136490   2.8727640  37.8501200
  69.4885330   3.7806520  37.7220420  69.0247230   2.8090170  38.7863190
  67.2087100   9.5698550  44.4769200  67.8046170   9.2483120  43.8003620
  67.4665250   9.0970370  45.2682470  55.1149670   6.0016460  54.6259830
  55.0719300   5.6309370  55.5074290  55.2460680   6.9394030  54.7661650
  58.8155700   7.5576050  50.2269550  58.5747060   7.8250610  49.3400070
  59.7558340   7.7281780  50.2820410  70.0759860   9.5770430  51.0280190
  69.5818140   9.9739300  50.3107320  69.4673150   8.9519640  51.4217470
  54.9537700   8.9478710  51.7457610  54.3598020   8.8163410  52.4847650
  54.9461540   8.1116850  51.2799710  67.7599310  10.2193850  48.3066930
  67.3002280  10.9709660  47.9324950  67.1311770   9.5000320  48.2481730
  54.5849930   6.3137090  50.6965650  53.8583990   5.6942380  50.6291600
  54.6459080   6.7077700  49.8263730  58.1895030   8.5282090  47.4815060
  58.7060050   7.9169450  46.9563320  58.8392410   9.0310870  47.9726070
  60.9290530   9.4190580  48.3084040  61.2168340   9.1644880  47.4317050
  61.4413750   8.8667940  48.8989610  52.8679930   9.6311480  43.9062410
  52.7001970   8.9982160  44.6044300  52.0014440   9.8370880  43.5556600
  54.4742630   8.3244710  41.3512550  53.9490250   8.7052740  40.6474510
  54.3987210   8.9495480  42.0722260  60.9962890  10.3406680  55.6752240
  61.9230200  10.1050950  55.7188200  60.9813320  11.1678680  55.1938270
  69.2307950   9.8832250  42.6726490  69.4060140   9.1969990  42.0287410
  68.5329520  10.4079300  42.2803160  57.0735600  10.2727090  40.2261800
  57.8054420   9.9886370  39.6785690  57.3329270  10.0340370  41.1161180
  56.2350390   6.3891820  40.2308130  55.6059270   6.8576920  40.7793960
  56.3498220   5.5441040  40.6654320  67.5640450   9.5676540  55.4993280
  68.3565770   9.0725770  55.2919240  67.8573600  10.2466680  56.1068890
  61.8218150   2.2176500  28.2618600  61.0460250   1.7376940  28.5517170
  62.4731080   1.5382150  28.0874760  55.8383980   2.5296310  29.1394360
  55.0068860   2.2745020  29.5390870  56.4464960   2.6007080  29.8752280
  65.8425580   6.6236690  27.0417730  65.3807110   5.8523930  27.3704900
  66.6551130   6.6502760  27.5470180  55.8185240   6.5636400  29.3352380
  56.1213280   5.6734140  29.1562600  56.5628830   7.1206620  29.1074630
  62.0688890   8.9094700  26.6621720  61.4500330   9.3652200  26.0916160
  62.9240670   9.0646160  26.2611420  61.2627140   4.8933690  28.2688760
  61.1935420   3.9523630  28.1077890  62.0247000   4.9835100  28.8411330
  62.9352240   3.7933940  24.0553630  62.3169510   4.2583390  23.4916350
  63.4475490   4.4861420  24.4723140  57.7984000   3.3209810  30.7337230
  57.4653380   3.9478730  31.3758300  57.9750680   3.8471690  29.9538900
  57.0103100   5.2890610  32.5486410  57.6277100   5.9641690  32.2670860
  56.1496220   5.6978590  32.4573910  52.3035440   4.4790470  21.4293260
  51.9263420   4.9677570  20.6978160  52.5608510   5.1515750  22.0599790
  67.9280690   6.7530020  30.4641050  67.2444210   7.4229130  30.4557720
  68.4674980   6.9510670  29.6985910  65.4639430   8.5974150  29.1786230
  65.4766590   8.1936440  28.3108490  64.9114650   9.3721440  29.0747660
  66.7584850   5.3190370  24.2676400  66.6481180   4.3764700  24.3925820
  66.7553100   5.6806010  25.1539160  64.8624870   3.5003990  30.5068840
  65.2793660   3.2864100  29.6722300  65.5864690   3.7576780  31.0777460
  68.8086970   1.8991210  30.5985080  67.9805600   1.9684300  30.1235210
  69.4037450   2.4845520  30.1300910  66.3302420   2.5075990  24.1274140
  65.7114840   2.1695540  23.4800440  66.3126870   1.8635750  24.8353330
  58.3743470   5.1587990  28.5697830  58.0771760   4.5533460  27.8905610
  59.3243290   5.1965300  28.4587190  66.4629080   8.7319860  32.2320930
  65.9859640   9.5392050  32.0393540  65.7790870   8.0798190  32.3847140
  57.4661900   4.8969680  35.2205630  56.5690430   5.1209650  35.4679030
  57.4914770   5.0204620  34.2717030  56.2933120   1.7683000  33.7963000
  56.1540890   2.6405800  34.1650400  55.4114480   1.4255810  33.6510940
  62.6162500   6.6858870  25.1028130  63.0558410   7.4283200  24.6883520
  62.5549390   6.9285440  26.0267090  58.0913470   7.7104700  36.0048150
  58.0628900   8.1147650  35.1376580  57.9278440   6.7815060  35.8419750
  70.0428290   8.4931800  37.3012320  70.5188010   8.9714690  37.9801400
  70.6635450   8.4249290  36.5757820  52.2451770   3.5380550  29.7133910
  52.3232190   3.6729320  28.7689630  52.8593450   2.8296440  29.9062030
  53.4899400   5.2380740  26.1240090  53.0827480   5.3795330  25.2693690
  54.3812410   4.9540900  25.9211300  69.4461540   5.6844650  34.4612330
  69.5724600   5.4456530  33.5429510  69.4882920   4.8529190  34.9334410
  63.3078280   9.3872650  33.0307140  63.8222950   9.2980660  33.8329570
  62.4647360   9.7332350  33.3235050  65.2832680   9.6727990  22.4591140
  65.1233820   9.3830930  23.3572970  65.1179390   8.8968120  21.9236370
  57.7621060   9.4526520  24.2362760  57.5863540   8.5362060  24.0230560
  56.9076800   9.8113810  24.4760560  64.9858810   7.1815550  21.0189140
  64.2923970   7.1792840  20.3591420  65.7281670   6.7574870  20.5883310
  64.5508740   8.8078260  25.0937630  65.0065690   8.0267640  25.4076250
  64.8901260   9.5185080  25.6378810  52.3011290   4.5794720  32.2528370
  52.4642330   4.1100080  31.4347740  52.7663740   4.0718280  32.9177210
  53.8750270   3.9546150  34.4124180  53.4905060   3.3139820  35.0107140
  54.1862460   4.6582270  34.9818910  56.3428570   4.0492320  22.8083860
  55.5690830   3.5089940  22.6482580  57.0723200   3.5298930  22.4701620
  67.1016550   3.0457680  28.6010250  67.8215670   3.5412970  28.2106360
  66.8998370   2.3675570  27.9564120  62.4835350   3.1166740  34.4879250
  62.4172660   2.1962410  34.2336840  61.8540490   3.2142180  35.2023890
  56.3865970   3.7172700  26.4462670  56.9044640   2.9140960  26.3919560
  55.9349990   3.6551840  27.2879500  61.2735470   4.9838980  21.7189970
  61.6151170   5.7281210  21.2233290  60.4448180   5.2970100  22.0814800
  62.4152080   5.9387310  34.2383050  62.4296620   5.0068270  34.0201960
  61.7077180   6.0247070  34.8772820  68.6263290   2.5794650  33.5851630
  67.9011480   3.1723430  33.3881020  69.1538750   2.5718190  32.7865000
  68.5776400   6.9769390  23.2363790  67.9352560   6.3225010  23.5107510
  68.1907060   7.3824480  22.4604460  64.1562880   4.3054820  27.0835480
  64.5086700   3.7082950  26.4236850  63.2725210   3.9799050  27.2543730
  60.2426160   5.0652510  24.4905890  60.9297290   5.6121720  24.8713480
  59.4558580   5.6093240  24.5255500  59.5453370   2.0698540  24.1031250
  60.0016150   2.8803790  24.3291440  59.1941580   1.7521680  24.9349740
  61.8485980   7.5804880  31.3323550  62.4928200   7.7864260  32.0096970
  62.2115420   6.8193280  30.8794400  63.1218060   5.5837230  30.0501000
  63.7640290   4.8830390  30.1633170  63.6467410   6.3635670  29.8697890
  66.9673780   5.8685850  19.7740140  66.7411360   5.1516290  20.3664780
  66.5769980   5.6198290  18.9361890  64.8955680   6.3832130  33.2537060
  65.2311920   6.9698820  33.9314980  63.9756020   6.2524840  33.4834850
  52.7489810   9.8952710  20.5484600  53.1087450  10.4942050  19.8941870
  52.6082150  10.4412600  21.3219630  66.5490030   3.7857790  21.4354300
  66.2611730   4.2470480  22.2232180  67.3442200   3.3255560  21.7038520
  52.7331670   8.1607570  35.0227000  52.8422790   7.2202310  34.8822390
  52.0812230   8.4262320  34.3740730  60.7244260   6.4323460  36.4225120
  60.4041130   5.7132700  36.9670810  60.0502620   7.1078530  36.4961180
  58.7658430   7.2783910  21.3658270  58.7568530   8.0113600  20.7502780
  57.8456790   7.0315490  21.4585230  54.3665070   2.4998800  22.1105030
  53.7593020   3.2397700  22.1200330  54.8414420   2.5898160  21.2843230
  61.7518030   7.3412150  20.0283460  61.8530010   7.1376140  19.0985440
  60.8519770   7.0870430  20.2331240  60.3936140   9.8598470  24.7231130
  60.6477640   9.8219860  23.8010500  59.4448620   9.7331800  24.7159380
  56.3770360   2.4609950  19.8593600  57.1433630   2.3491310  20.4219030
  56.4545050   1.7647920  19.2070370  68.4014300   7.9499200  27.9743900
  68.5261720   8.7730370  28.4467710  69.2679860   7.7389930  27.6268050
  55.8731830  10.0430410  27.6461030  56.6094310   9.4945870  27.9169600
  56.2572750  10.9086420  27.5067020  52.7577310   6.1103980  23.5202540
  51.8317090   6.3525120  23.5107950  53.2233740   6.9378240  23.3987290
  54.8790110   9.2276480  36.8346610  55.6802840   9.5488530  37.2482010
  54.3641930   8.8672060  37.5566520  58.9834140   9.2160720  19.4686600
  59.7762750   9.5049550  19.0168390  58.4638490   8.7852890  18.7899080
  63.7154740   5.3356350  36.7822020  63.1092900   5.3587950  36.0417770
  63.4108850   4.6039390  37.3189270  65.1455110   9.0636640  35.3931430
  66.0976860   8.9794660  35.3431670  64.9983330   9.7278350  36.0665220
  68.0364310   8.4430850  20.8923340  67.7505820   8.0295990  20.0777520
  67.8383860   9.3718560  20.7723860  59.5011540   4.4364130  19.3328950
  59.3962180   3.8216480  20.0590330  59.3335760   3.9130020  18.5491960
  59.6525860   3.1220930  35.3118180  58.8871530   3.6905930  35.2272850
  59.8341820   2.8297140  34.4186410  62.7414270   3.4984160  19.9370940
  62.1924370   3.9453460  20.5813680  63.3633530   2.9933410  20.4608610
  66.7949210   4.8526260  35.8693200  67.5358680   5.1902020  35.3660660
  66.0321890   5.0218320  35.3162970  58.4089390   2.4575080  21.8336240
  58.8305810   2.2914950  22.6767630  58.5340230   1.6475310  21.3391380
  65.4694870   2.9041090  34.4048410  65.8835890   3.0586170  35.2538830
  64.5345870   3.0296310  34.5674190  60.2310100   2.8561570  32.3744340
  60.6498210   3.6994300  32.2020580  59.3118730   2.9933610  32.1451120
  58.0817520   9.1614580  33.4902070  57.5438610   9.8860640  33.1710770
  58.3351480   8.6844920  32.6999410  60.9379730  10.3965790  33.7488720
  60.8638430  11.3000930  34.0561090  60.0358570  10.0777690  33.7210790
  61.4865060   9.5624300  21.3715080  62.3815850   9.9009270  21.3933840
  61.5182690   8.8403710  20.7439360  55.1261220   4.9351350  19.6002080
  55.5636090   5.4781020  20.2559660  55.6108950   4.1098300  19.6098420
  52.3407020   7.7240380  27.0522340  52.6710030   6.8561440  26.8200980
  52.7698020   7.9298900  27.8827300  56.9368940   6.0549390  24.7124310
  56.6364480   5.9314360  25.6128220  56.8306430   5.1957980  24.3040040
  52.8297230   8.5910970  29.7903970  52.3928220   8.7711770  30.6228120
  53.3974910   9.3485590  29.6485690  68.4659410   8.0927970  34.0781280
  67.8661400   8.1520530  33.3345200  68.5953310   7.1532950  34.2078130
  69.7060860   5.8345790  19.4150990  68.8753820   5.9022440  19.8858220
  69.8832690   6.7249910  19.1117850  69.1617320   2.5793270  21.9185190
  69.9236230   3.1489920  22.0244880  69.1771690   2.0120470  22.6893500
  70.1677290   3.4343370  26.7627120  70.5386120   2.6510690  26.3563090
  70.8079220   4.1232470  26.5844420  67.1511050   4.8179950  32.1757440
  66.3370890   5.2477110  32.4383230  67.5585250   5.4298360  31.5626490
  69.2136490   2.8727640  19.0757710  69.4885330   3.7806520  18.9476930
  69.0247230   2.8090170  20.0119700  67.2087100   9.5698550  25.7025710
  67.8046170   9.2483120  25.0260130  67.4665250   9.0970370  26.4938980
  55.1149670   6.0016460  35.8516340  55.0719300   5.6309370  36.7330800
  55.2460680   6.9394030  35.9918160  58.8155700   7.5576050  31.4526060
  58.5747060   7.8250610  30.5656580  59.7558340   7.7281780  31.5076920
  70.0759860   9.5770430  32.2536700  69.5818140   9.9739300  31.5363830
  69.4673150   8.9519640  32.6473980  54.9537700   8.9478710  32.9714120
  54.3598020   8.8163410  33.7104160  54.9461540   8.1116850  32.5056220
  67.7599310  10.2193850  29.5323440  67.3002280  10.9709660  29.1581460
  67.1311770   9.5000320  29.4738240  54.5849930   6.3137090  31.9222160
  53.8583990   5.6942380  31.8548110  54.6459080   6.7077700  31.0520240
  58.1895030   8.5282090  28.7071570  58.7060050   7.9169450  28.1819830
  58.8392410   9.0310870  29.1982580  60.9290530   9.4190580  29.5340550
  61.2168340   9.1644880  28.6573560  61.4413750   8.8667940  30.1246120
  52.8679930   9.6311480  25.1318920  52.7001970   8.9982160  25.8300810
  52.0014440   9.8370880  24.7813110  54.4742630   8.3244710  22.5769060
  53.9490250   8.7052740  21.8731020  54.3987210   8.9495480  23.2978770
  60.9962890  10.3406680  36.9008750  61.9230200  10.1050950  36.9444710
  60.9813320  11.1678680  36.4194780  69.2307950   9.8832250  23.8983000
  69.4060140   9.1969990  23.2543920  68.5329520  10.4079300  23.5059670
  57.0735600  10.2727090  21.4518310  57.8054420   9.9886370  20.9042200
  57.3329270  10.0340370  22.3417690  56.2350390   6.3891820  21.4564640
  55.6059270   6.8576920  22.0050470  56.3498220   5.5441040  21.8910830
  67.5640450   9.5676540  36.7249790  68.3565770   9.0725770  36.5175750
  67.8573600  10.2466680  37.3325400  61.8218150   2.2176500   9.4875110
  61.0460250   1.7376940   9.7773680  62.4731080   1.5382150   9.3131270
  55.8383980   2.5296310  10.3650870  55.0068860   2.2745020  10.7647380
  56.4464960   2.6007080  11.1008790  65.8425580   6.6236690   8.2674240
  65.3807110   5.8523930   8.5961410  66.6551130   6.6502760   8.7726690
  55.8185240   6.5636400  10.5608890  56.1213280   5.6734140  10.3819110
  56.5628830   7.1206620  10.3331140  62.0688890   8.9094700   7.8878230
  61.4500330   9.3652200   7.3172670  62.9240670   9.0646160   7.4867930
  61.2627140   4.8933690   9.4945270  61.1935420   3.9523630   9.3334400
  62.0247000   4.9835100  10.0667840  62.9352240   3.7933940   5.2810140
  62.3169510   4.2583390   4.7172860  63.4475490   4.4861420   5.6979650
  57.7984000   3.3209810  11.9593740  57.4653380   3.9478730  12.6014810
  57.9750680   3.8471690  11.1795410  57.0103100   5.2890610  13.7742920
  57.6277100   5.9641690  13.4927370  56.1496220   5.6978590  13.6830420
  52.3035440   4.4790470   2.6549770  51.9263420   4.9677570   1.9234670
  52.5608510   5.1515750   3.2856300  67.9280690   6.7530020  11.6897560
  67.2444210   7.4229130  11.6814230  68.4674980   6.9510670  10.9242420
  65.4639430   8.5974150  10.4042740  65.4766590   8.1936440   9.5365000
  64.9114650   9.3721440  10.3004170  66.7584850   5.3190370   5.4932910
  66.6481180   4.3764700   5.6182330  66.7553100   5.6806010   6.3795670
  64.8624870   3.5003990  11.7325350  65.2793660   3.2864100  10.8978810
  65.5864690   3.7576780  12.3033970  68.8086970   1.8991210  11.8241590
  67.9805600   1.9684300  11.3491720  69.4037450   2.4845520  11.3557420
  66.3302420   2.5075990   5.3530650  65.7114840   2.1695540   4.7056950
  66.3126870   1.8635750   6.0609840  58.3743470   5.1587990   9.7954340
  58.0771760   4.5533460   9.1162120  59.3243290   5.1965300   9.6843700
  66.4629080   8.7319860  13.4577440  65.9859640   9.5392050  13.2650050
  65.7790870   8.0798190  13.6103650  57.4661900   4.8969680  16.4462140
  56.5690430   5.1209650  16.6935540  57.4914770   5.0204620  15.4973540
  56.2933120   1.7683000  15.0219510  56.1540890   2.6405800  15.3906910
  55.4114480   1.4255810  14.8767450  62.6162500   6.6858870   6.3284640
  63.0558410   7.4283200   5.9140030  62.5549390   6.9285440   7.2523600
  58.0913470   7.7104700  17.2304660  58.0628900   8.1147650  16.3633090
  57.9278440   6.7815060  17.0676260  70.0428290   8.4931800  18.5268830
  70.5188010   8.9714690  19.2057910  70.6635450   8.4249290  17.8014330
  52.2451770   3.5380550  10.9390420  52.3232190   3.6729320   9.9946140
  52.8593450   2.8296440  11.1318540  53.4899400   5.2380740   7.3496600
  53.0827480   5.3795330   6.4950200  54.3812410   4.9540900   7.1467810
  69.4461540   5.6844650  15.6868840  69.5724600   5.4456530  14.7686020
  69.4882920   4.8529190  16.1590920  63.3078280   9.3872650  14.2563650
  63.8222950   9.2980660  15.0586080  62.4647360   9.7332350  14.5491560
  65.2832680   9.6727990   3.6847650  65.1233820   9.3830930   4.5829480
  65.1179390   8.8968120   3.1492880  57.7621060   9.4526520   5.4619270
  57.5863540   8.5362060   5.2487070  56.9076800   9.8113810   5.7017070
  64.9858810   7.1815550   2.2445650  64.2923970   7.1792840   1.5847930
  65.7281670   6.7574870   1.8139820  64.5508740   8.8078260   6.3194140
  65.0065690   8.0267640   6.6332760  64.8901260   9.5185080   6.8635320
  52.3011290   4.5794720  13.4784880  52.4642330   4.1100080  12.6604250
  52.7663740   4.0718280  14.1433720  53.8750270   3.9546150  15.6380690
  53.4905060   3.3139820  16.2363650  54.1862460   4.6582270  16.2075420
  56.3428570   4.0492320   4.0340370  55.5690830   3.5089940   3.8739090
  57.0723200   3.5298930   3.6958130  67.1016550   3.0457680   9.8266760
  67.8215670   3.5412970   9.4362870  66.8998370   2.3675570   9.1820630
  62.4835350   3.1166740  15.7135760  62.4172660   2.1962410  15.4593350
  61.8540490   3.2142180  16.4280400  56.3865970   3.7172700   7.6719180
  56.9044640   2.9140960   7.6176070  55.9349990   3.6551840   8.5136010
  61.2735470   4.9838980   2.9446480  61.6151170   5.7281210   2.4489800
  60.4448180   5.2970100   3.3071310  62.4152080   5.9387310  15.4639560
  62.4296620   5.0068270  15.2458470  61.7077180   6.0247070  16.1029330
  68.6263290   2.5794650  14.8108140  67.9011480   3.1723430  14.6137530
  69.1538750   2.5718190  14.0121510  68.5776400   6.9769390   4.4620300
  67.9352560   6.3225010   4.7364020  68.1907060   7.3824480   3.6860970
  64.1562880   4.3054820   8.3091990  64.5086700   3.7082950   7.6493360
  63.2725210   3.9799050   8.4800240  60.2426160   5.0652510   5.7162400
  60.9297290   5.6121720   6.0969990  59.4558580   5.6093240   5.7512010
  59.5453370   2.0698540   5.3287760  60.0016150   2.8803790   5.5547950
  59.1941580   1.7521680   6.1606250  61.8485980   7.5804880  12.5580060
  62.4928200   7.7864260  13.2353480  62.2115420   6.8193280  12.1050910
  63.1218060   5.5837230  11.2757510  63.7640290   4.8830390  11.3889680
  63.6467410   6.3635670  11.0954400  64.8955680   6.3832130  14.4793570
  65.2311920   6.9698820  15.1571490  63.9756020   6.2524840  14.7091360
  66.5490030   3.7857790   2.6610810  66.2611730   4.2470480   3.4488690
  67.3442200   3.3255560   2.9295030  52.7331670   8.1607570  16.2483510
  52.8422790   7.2202310  16.1078900  52.0812230   8.4262320  15.5997240
  60.7244260   6.4323460  17.6481630  60.4041130   5.7132700  18.1927320
  60.0502620   7.1078530  17.7217690  58.7658430   7.2783910   2.5914780
  58.7568530   8.0113600   1.9759290  57.8456790   7.0315490   2.6841740
  54.3665070   2.4998800   3.3361540  53.7593020   3.2397700   3.3456840
  54.8414420   2.5898160   2.5099740  60.3936140   9.8598470   5.9487640
  60.6477640   9.8219860   5.0267010  59.4448620   9.7331800   5.9415890
  68.4014300   7.9499200   9.2000410  68.5261720   8.7730370   9.6724220
  69.2679860   7.7389930   8.8524560  55.8731830  10.0430410   8.8717540
  56.6094310   9.4945870   9.1426110  56.2572750  10.9086420   8.7323530
  52.7577310   6.1103980   4.7459050  51.8317090   6.3525120   4.7364460
  53.2233740   6.9378240   4.6243800  54.8790110   9.2276480  18.0603120
  55.6802840   9.5488530  18.4738520  54.3641930   8.8672060  18.7823030
  63.7154740   5.3356350  18.0078530  63.1092900   5.3587950  17.2674280
  63.4108850   4.6039390  18.5445780  65.1455110   9.0636640  16.6187940
  66.0976860   8.9794660  16.5688180  64.9983330   9.7278350  17.2921730
  68.0364310   8.4430850   2.1179850  67.7505820   8.0295990   1.3034030
  67.8383860   9.3718560   1.9980370  59.6525860   3.1220930  16.5374690
  58.8871530   3.6905930  16.4529360  59.8341820   2.8297140  15.6442920
  66.7949210   4.8526260  17.0949710  67.5358680   5.1902020  16.5917170
  66.0321890   5.0218320  16.5419480  58.4089390   2.4575080   3.0592750
  58.8305810   2.2914950   3.9024140  58.5340230   1.6475310   2.5647890
  65.4694870   2.9041090  15.6304920  65.8835890   3.0586170  16.4795340
  64.5345870   3.0296310  15.7930700  60.2310100   2.8561570  13.6000850
  60.6498210   3.6994300  13.4277090  59.3118730   2.9933610  13.3707630
  58.0817520   9.1614580  14.7158580  57.5438610   9.8860640  14.3967280
  58.3351480   8.6844920  13.9255920  60.9379730  10.3965790  14.9745230
  60.8638430  11.3000930  15.2817600  60.0358570  10.0777690  14.9467300
  61.4865060   9.5624300   2.5971590  62.3815850   9.9009270   2.6190350
  61.5182690   8.8403710   1.9695870  52.3407020   7.7240380   8.2778850
  52.6710030   6.8561440   8.0457490  52.7698020   7.9298900   9.1083810
  56.9368940   6.0549390   5.9380820  56.6364480   5.9314360   6.8384730
  56.8306430   5.1957980   5.5296550  52.8297230   8.5910970  11.0160480
  52.3928220   8.7711770  11.8484630  53.3974910   9.3485590  10.8742200
  68.4659410   8.0927970  15.3037790  67.8661400   8.1520530  14.5601710
  68.5953310   7.1532950  15.4334640  69.1617320   2.5793270   3.1441700
  69.9236230   3.1489920   3.2501390  69.1771690   2.0120470   3.9150010
  70.1677290   3.4343370   7.9883630  70.5386120   2.6510690   7.5819600
  70.8079220   4.1232470   7.8100930  67.1511050   4.8179950  13.4013950
  66.3370890   5.2477110  13.6639740  67.5585250   5.4298360  12.7883000
  67.2087100   9.5698550   6.9282220  67.8046170   9.2483120   6.2516640
  67.4665250   9.0970370   7.7195490  55.1149670   6.0016460  17.0772850
  55.0719300   5.6309370  17.9587310  55.2460680   6.9394030  17.2174670
  58.8155700   7.5576050  12.6782570  58.5747060   7.8250610  11.7913090
  59.7558340   7.7281780  12.7333430  70.0759860   9.5770430  13.4793210
  69.5818140   9.9739300  12.7620340  69.4673150   8.9519640  13.8730490
  54.9537700   8.9478710  14.1970630  54.3598020   8.8163410  14.9360670
  54.9461540   8.1116850  13.7312730  67.7599310  10.2193850  10.7579950
  67.3002280  10.9709660  10.3837970  67.1311770   9.5000320  10.6994750
  54.5849930   6.3137090  13.1478670  53.8583990   5.6942380  13.0804620
  54.6459080   6.7077700  12.2776750  58.1895030   8.5282090   9.9328080
  58.7060050   7.9169450   9.4076340  58.8392410   9.0310870  10.4239090
  60.9290530   9.4190580  10.7597060  61.2168340   9.1644880   9.8830070
  61.4413750   8.8667940  11.3502630  52.8679930   9.6311480   6.3575430
  52.7001970   8.9982160   7.0557320  52.0014440   9.8370880   6.0069620
  54.4742630   8.3244710   3.8025570  53.9490250   8.7052740   3.0987530
  54.3987210   8.9495480   4.5235280  60.9962890  10.3406680  18.1265260
  61.9230200  10.1050950  18.1701220  60.9813320  11.1678680  17.6451290
  69.2307950   9.8832250   5.1239510  69.4060140   9.1969990   4.4800430
  68.5329520  10.4079300   4.7316180  57.0735600  10.2727090   2.6774820
  57.8054420   9.9886370   2.1298710  57.3329270  10.0340370   3.5674200
  56.2350390   6.3891820   2.6821150  55.6059270   6.8576920   3.2306980
  56.3498220   5.5441040   3.1167340  67.5640450   9.5676540  17.9506300
  68.3565770   9.0725770  17.7432260  67.8573600  10.2466680  18.5581910
  44.9156620 113.0858420 101.4783290  44.8350670 112.1713030 101.2075000
  44.5021040 113.5825490 100.7723000  35.4732440 110.1359140  98.0210710
  34.5849140 110.4775110  97.9190590  35.7573630 109.9359460  97.1291540
  33.4365450 112.7364790 103.9050410  34.0081560 111.9686990 103.9054050
  33.4366990 113.0353550 102.9957020  34.6790320 108.1449150 105.6919340
  34.4993160 107.2474900 105.9722100  34.2770400 108.6921020 106.3666290
  43.5188820 110.3465010 103.5931650  43.8953640 109.4736890 103.4805320
  43.4208330 110.6823710 102.7022090  37.6493830 108.7190640  99.0549090
  37.7560580 109.6194370  99.3617850  36.7386190 108.6708610  98.7643740
  47.3012940 107.8415450 100.5259990  48.1222560 107.3512020 100.5685470
  47.3347020 108.4313110 101.2791830  35.2976990 110.6409650 104.3001680
  35.9787100 110.9048020 104.9189080  34.9825040 109.8010520 104.6339690
  39.4901560 111.6877010 103.3874270  39.9979780 112.1857980 104.0279290
  40.0214800 110.9112210 103.2113630  51.5912490 109.8582200 107.0903620
  50.8864660 110.2463910 106.5718730  51.8570410 110.5532490 107.6924550
  37.7737660 106.3275570 107.6537690  37.7756100 106.8447960 106.8483590
  36.9441970 105.8505750 107.6307620  47.5374420 109.7815830 103.2987530
  46.8329990 110.0700720 103.8790640  47.8986580 110.5915940 102.9387090
  37.4552990 108.0385530 105.6608140  37.7969800 108.8827580 105.3662010
  36.5168800 108.1869270 105.7773480  50.6061340 109.2270620 103.6896740
  49.6586250 109.2609600 103.8212170  50.9311330 110.0409570 104.0746100
  41.1380880 105.5267800 101.9852730  41.4455860 104.9714690 101.2688230
  40.2081580 105.6612260 101.8025720  43.5130720 109.8633630  95.7180010
  42.5734390 110.0247590  95.8032470  43.8313980 110.5819310  95.1716000
  46.9985490 111.3321470 106.6413910  46.5856670 112.1575180 106.8953900
  46.2661440 110.7466510 106.4490270  37.8446900 110.8924580 105.2831620
  38.3961490 111.0019920 104.5084870  38.3590410 111.2662180 105.9986850
  49.3140770 105.6466550  94.5461890  49.0013430 105.7393380  95.4460960
  50.0753240 106.2247580  94.4959320  35.8322910 113.0126350  99.0039230
  35.7120510 113.7388440  98.3920500  35.5223800 112.2429260  98.5267140
  50.5242060 110.3838050 110.5236030  49.9086330 110.8917720 109.9951490
  50.2038480 109.4836380 110.4661970  38.2986570 106.3561420 102.3862900
  37.8554720 107.1370960 102.0547420  38.8571560 106.6791310 103.0933840
  42.5856380 109.2229940 107.9898220  42.1235750 109.4312960 108.8018160
  42.1834490 108.4089290 107.6868890  47.5860890 110.4438890 109.1194880
  46.7354480 110.1444640 109.4403950  47.4262680 110.6880900 108.2078700
  41.4145390 105.9772120  97.2668730  40.7899570 105.9731990  97.9922040
  41.3275510 105.1103080  96.8704700  40.3362470 106.9008750 104.2452500
  40.6334800 107.8071580 104.1644520  40.8848030 106.4127530 103.6312070
  38.0900790 111.4794990 100.1144150  37.8641710 111.2632160 101.0190770
  37.3093320 111.9123450  99.7690120  45.3198550 111.4858360  98.7134800
  44.7207440 112.2094160  98.5298420  45.8678160 111.4235140  97.9311250
  40.5300000 112.3780570 110.7804420  40.4343600 111.4375300 110.6304820
  41.3731980 112.5995640 110.3852490  43.9263420 110.1221900 100.7438080
  44.3192990 110.4394100  99.9306770  44.2880270 109.2433780 100.8582600
  35.6610540 108.7894240 108.9338200  35.2673930 109.6369450 109.1410980
  34.9728940 108.1520610 109.1246840  32.9627590 106.7122700 102.9668280
  32.6740640 107.2825560 103.6793260  33.7073350 106.2327150 103.3299510
  33.1497820 110.6542820  94.1771000  33.0672490 111.5973580  94.3185990
  32.7980880 110.5117730  93.2983350  44.5118560 112.7127650 104.8388860
  43.7799680 113.2214460 105.1878960  44.1142900 111.8957630 104.5377640
  40.9495950 109.3881850 103.2441350  40.9532010 108.9471800 102.3945890
  41.8447070 109.7099180 103.3513170  36.7998330 109.2708340 102.2035560
  36.4598380 109.7483570 102.9602610  36.0375650 108.8173460 101.8436660
  41.0116100 110.3893930  96.2348110  41.1328920 110.3480410  97.1833930
  40.6264610 111.2518080  96.0794840  44.9744470 108.1661330 104.2511800
  44.9917210 108.6169980 105.0953650  44.7260050 107.2666970 104.4645240
  40.0237600 112.6995070  95.6331410  39.4554500 112.2513320  95.0067320
  40.7326600 113.0587850  95.0996560  48.4015220 105.5793510 110.0898180
  48.7260990 104.8483170 110.6156160  48.4371730 105.2607150 109.1879170
  34.1144410 108.1927320 101.1200230  33.8291330 107.8282990 101.9578850
  34.0523270 107.4607780 100.5063370  39.0403290 112.4892270 107.3090970
  38.7360360 113.3684250 107.5341330  39.9949750 112.5492060 107.3448410
  43.7883000 107.0856580  97.8413600  42.9747610 106.5869750  97.7658910
  43.5944950 107.9254830  97.4249950  46.5031390 111.4576230  96.1375760
  47.3911010 111.7693460  95.9627100  46.4736480 110.5848480  95.7456340
  48.7745660 112.7688070  95.6055620  48.6909380 113.2002290  94.7552060
  49.4939850 113.2286420  96.0382440  36.6721660 105.0597130  99.6727730
  36.5436290 105.0515030 100.6212650  35.8483680 105.3980220  99.3218740
  33.6715590 106.8188250 109.1334430  32.9574110 107.0185170 109.7387040
  34.0910630 106.0427820 109.5049230  45.1654370 109.3110560 106.8835880
  45.5335190 108.4905770 107.2115450  44.3052570 109.3712450 107.2991530
  48.5316400 108.2667500  97.6923440  47.9029560 108.3713170  96.9781670
  48.0368320 108.4864280  98.4817320  40.5000430 110.5453450  99.1081320
  39.7916580 111.0139790  99.5494930  40.7844910 109.8875460  99.7426510
  42.1256360 111.9650150 107.1073850  42.6241610 112.4395970 107.7725700
  42.2679310 111.0413670 107.3143880  44.5315860 107.2704110 100.5477110
  44.4083640 107.2890240  99.5986620  45.4800420 107.3183050 100.6675510
  38.7035450 108.8538530  96.4832030  39.5525980 109.2908680  96.4172220
  38.3366720 109.1658790  97.3104090  49.3323220 108.1818110 107.9502240
  48.8296820 108.9223510 108.2896050  50.1479880 108.5702110 107.6339030
  47.6245230 113.4251290 101.3963600  46.6835370 113.4401520 101.5711290
  47.9389300 112.6387250 101.8423900  36.2973630 112.5395960  95.6400450
  36.3777220 111.5923470  95.7517850  37.1893380 112.8702840  95.7461110
  37.7973320 111.0832570 109.7381180  37.2669780 110.5923520 109.1104520
  38.4661390 111.5116770 109.2039110  38.2845620 108.0494940 109.8178470
  38.1902490 107.4315690 109.0929340  37.7043010 108.7761230 109.5908380
  41.0507060 106.6068180 106.8505860  40.6024360 106.6292440 106.0051410
  40.4172260 106.2087200 107.4476160  43.7930510 113.2338690 108.8556140
  43.9126720 112.6379830 109.5950980  44.6524510 113.2708380 108.4357440
  38.5304800 111.1769250  93.8768360  38.3293860 110.3136610  94.2381700
  38.3596850 111.0902610  92.9389960  40.5599280 109.7760040 110.1131960
  41.1498970 109.4675890 110.8009780  39.7419520 109.3039790 110.2691860
  45.3792710 109.3925850 110.3464980  44.6908230 108.7307390 110.2814970
  46.0998730 108.9464120 110.7913440  46.0093110 105.9877480  96.4055240
  46.2895400 105.1445380  96.7614660  45.2358840 106.2200590  96.9193990
  37.3287600 108.2769870  93.8646240  37.6313500 108.2837300  92.9565390
  38.0682190 107.9267730  94.3613900  40.5472530 107.2204490  94.8502440
  40.1994530 106.5428480  94.2704890  40.7485300 106.7594000  95.6645830
  33.8878170 113.7492140 101.2466810  33.2327010 113.4803780 100.6026510
  34.7256120 113.6396620 100.7968790  46.8368610 108.5433430  95.4685300
  47.2553490 108.3564410  94.6281960  46.5304670 107.6912480  95.7788230
  50.3358340 113.4557570  99.1661100  49.9601940 112.6885500  98.7342390
  49.6061460 113.8380270  99.6536030  49.7257960 112.6029090 108.8000620
  49.4944050 112.3741840 107.8998570  49.9862510 113.5228640 108.7545510
  34.4770100 111.0453800 109.6928570  33.5826150 111.0120560 110.0322280
  35.0167650 111.2440590 110.4579820  33.1016250 110.9591070  97.1892140
  32.1980330 111.2221270  97.0143800  33.5856870 111.2302240  96.4092100
  49.6109300 111.6815060 102.4668340  50.1346780 111.1877710 101.8358510
  50.1968720 111.8165420 103.2115910  49.7899020 111.7654930 105.9887890
  48.8401730 111.7318470 106.1032880  49.9712030 112.6755040 105.7537660
  35.6443460 110.0156610  95.0986520  36.3535160 109.5939830  94.6133800
  34.9283400 110.0831840  94.4669870  35.2917620 106.0695940  94.1389170
  36.0145750 106.6104880  94.4570390  35.5642140 105.7959360  93.2630710
  49.1009270 110.9388410  98.4060750  49.5968390 110.7059280  99.1909630
  48.9025340 110.1000250  97.9898390  34.9809810 105.3202130 104.0411790
  35.6286000 104.7699510 103.6006950  35.4011650 105.5745280 104.8627600
  50.5296430 109.5749360 100.9398430  50.4195710 109.4205400 101.8780700
  51.2904020 109.0470300 100.6973840  48.8762150 105.5143490 107.3981430
  49.5134370 106.1277630 107.7640620  49.0237040 105.5504150 106.4530660
  51.4186700 107.4057280  94.1804570  52.3436010 107.2738460  93.9722860
  51.3962490 107.4850100  95.1341020  51.4925190 108.1767940  96.8061280
  50.6976690 108.1113060  97.3354190  51.6968470 109.1118580  96.7946630
  34.7341810 105.4757800 106.7837110  34.3856630 105.9321620 107.5495290
  34.4029510 104.5814930 106.8659540  44.8841190 106.3239740 109.9448820
  45.4981600 106.6419030 109.2829900  45.4290750 105.8388330 110.5644680
  35.4062450 105.0034000 110.0587880  35.9545440 104.8222050 109.2953990
  35.4717760 104.2128110 110.5944190  45.6249230 104.8871880 106.2718110
  44.7509070 105.2206990 106.0691040  45.5159980 104.4145060 107.0969980
  46.5321210 107.0942750 107.6559830  46.2034570 106.2794510 107.2761560
  47.4803510 107.0512560 107.5325520  43.3724050 105.8041720 105.2111020
  42.5895840 106.2787220 105.4907780  43.0786980 104.8996550 105.1024200
  47.9245120 106.5064820 103.2560110  48.3653210 106.4509920 102.4081710
  47.6552710 107.4222830 103.3270290  49.7883690 106.1380060 101.2668930
  49.7272090 105.1941280 101.1199950  50.5675720 106.2460150 101.8122390
  34.7164460 106.1089200  97.7324740  35.4743820 106.2218080  97.1588770
  34.2541630 106.9458400  97.6868170  41.2578270 108.2228470 100.7227050
  40.4452780 107.8485360 100.3822930  41.7619910 107.4673550 101.0248240
  45.7603250 104.8870920 101.9610120  46.3632620 105.4591130 102.4358640
  45.0196240 105.4510360 101.7384020  48.9037850 105.2892480  97.2350400
  49.0988480 106.1875930  97.5017830  48.1167720 105.0579560  97.7283350
  37.0889610 106.6353250  96.2726710  37.6182370 105.8483050  96.1434660
  37.7217930 107.3144440  96.5062240  39.2827450 106.3728390  99.3272100
  38.6530190 105.6715700  99.4942230  38.7432590 107.1332520  99.1105260
  44.9156620 113.0858420  82.7039800  44.8350670 112.1713030  82.4331510
  44.5021040 113.5825490  81.9979510  35.4732440 110.1359140  79.2467220
  34.5849140 110.4775110  79.1447100  35.7573630 109.9359460  78.3548050
  33.4365450 112.7364790  85.1306920  34.0081560 111.9686990  85.1310560
  33.4366990 113.0353550  84.2213530  34.6790320 108.1449150  86.9175850
  34.4993160 107.2474900  87.1978610  34.2770400 108.6921020  87.5922800
  43.5188820 110.3465010  84.8188160  43.8953640 109.4736890  84.7061830
  43.4208330 110.6823710  83.9278600  37.6493830 108.7190640  80.2805600
  37.7560580 109.6194370  80.5874360  36.7386190 108.6708610  79.9900250
  47.3012940 107.8415450  81.7516500  48.1222560 107.3512020  81.7941980
  47.3347020 108.4313110  82.5048340  35.2976990 110.6409650  85.5258190
  35.9787100 110.9048020  86.1445590  34.9825040 109.8010520  85.8596200
  39.4901560 111.6877010  84.6130780  39.9979780 112.1857980  85.2535800
  40.0214800 110.9112210  84.4370140  51.5912490 109.8582200  88.3160130
  50.8864660 110.2463910  87.7975240  51.8570410 110.5532490  88.9181060
  37.7737660 106.3275570  88.8794200  37.7756100 106.8447960  88.0740100
  36.9441970 105.8505750  88.8564130  47.5374420 109.7815830  84.5244040
  46.8329990 110.0700720  85.1047150  47.8986580 110.5915940  84.1643600
  37.4552990 108.0385530  86.8864650  37.7969800 108.8827580  86.5918520
  36.5168800 108.1869270  87.0029990  50.6061340 109.2270620  84.9153250
  49.6586250 109.2609600  85.0468680  50.9311330 110.0409570  85.3002610
  41.1380880 105.5267800  83.2109240  41.4455860 104.9714690  82.4944740
  40.2081580 105.6612260  83.0282230  43.5130720 109.8633630  76.9436520
  42.5734390 110.0247590  77.0288980  43.8313980 110.5819310  76.3972510
  46.9985490 111.3321470  87.8670420  46.5856670 112.1575180  88.1210410
  46.2661440 110.7466510  87.6746780  37.8446900 110.8924580  86.5088130
  38.3961490 111.0019920  85.7341380  38.3590410 111.2662180  87.2243360
  49.3140770 105.6466550  75.7718400  49.0013430 105.7393380  76.6717470
  50.0753240 106.2247580  75.7215830  35.8322910 113.0126350  80.2295740
  35.7120510 113.7388440  79.6177010  35.5223800 112.2429260  79.7523650
  50.5242060 110.3838050  91.7492540  49.9086330 110.8917720  91.2208000
  50.2038480 109.4836380  91.6918480  38.2986570 106.3561420  83.6119410
  37.8554720 107.1370960  83.2803930  38.8571560 106.6791310  84.3190350
  42.5856380 109.2229940  89.2154730  42.1235750 109.4312960  90.0274670
  42.1834490 108.4089290  88.9125400  47.5860890 110.4438890  90.3451390
  46.7354480 110.1444640  90.6660460  47.4262680 110.6880900  89.4335210
  44.6810600 111.9440640  92.4450180  45.0064010 111.1104390  92.1052410
  45.4690930 112.4669160  92.5928510  41.4145390 105.9772120  78.4925240
  40.7899570 105.9731990  79.2178550  41.3275510 105.1103080  78.0961210
  40.3362470 106.9008750  85.4709010  40.6334800 107.8071580  85.3901030
  40.8848030 106.4127530  84.8568580  38.0900790 111.4794990  81.3400660
  37.8641710 111.2632160  82.2447280  37.3093320 111.9123450  80.9946630
  45.3198550 111.4858360  79.9391310  44.7207440 112.2094160  79.7554930
  45.8678160 111.4235140  79.1567760  40.5300000 112.3780570  92.0060930
  40.4343600 111.4375300  91.8561330  41.3731980 112.5995640  91.6109000
  43.9263420 110.1221900  81.9694590  44.3192990 110.4394100  81.1563280
  44.2880270 109.2433780  82.0839110  35.6610540 108.7894240  90.1594710
  35.2673930 109.6369450  90.3667490  34.9728940 108.1520610  90.3503350
  42.2355590 108.8729210  93.2291450  41.5453910 108.6801410  93.8637540
  42.9787890 109.1563850  93.7615750  32.9627590 106.7122700  84.1924790
  32.6740640 107.2825560  84.9049770  33.7073350 106.2327150  84.5556020
  33.1497820 110.6542820  75.4027510  33.0672490 111.5973580  75.5442500
  32.7980880 110.5117730  74.5239860  44.5118560 112.7127650  86.0645370
  43.7799680 113.2214460  86.4135470  44.1142900 111.8957630  85.7634150
  40.9495950 109.3881850  84.4697860  40.9532010 108.9471800  83.6202400
  41.8447070 109.7099180  84.5769680  36.7998330 109.2708340  83.4292070
  36.4598380 109.7483570  84.1859120  36.0375650 108.8173460  83.0693170
  41.0116100 110.3893930  77.4604620  41.1328920 110.3480410  78.4090440
  40.6264610 111.2518080  77.3051350  44.9744470 108.1661330  85.4768310
  44.9917210 108.6169980  86.3210160  44.7260050 107.2666970  85.6901750
  40.0237600 112.6995070  76.8587920  39.4554500 112.2513320  76.2323830
  40.7326600 113.0587850  76.3253070  48.4015220 105.5793510  91.3154690
  48.7260990 104.8483170  91.8412670  48.4371730 105.2607150  90.4135680
  34.1144410 108.1927320  82.3456740  33.8291330 107.8282990  83.1835360
  34.0523270 107.4607780  81.7319880  39.0403290 112.4892270  88.5347480
  38.7360360 113.3684250  88.7597840  39.9949750 112.5492060  88.5704920
  43.7883000 107.0856580  79.0670110  42.9747610 106.5869750  78.9915420
  43.5944950 107.9254830  78.6506460  46.5031390 111.4576230  77.3632270
  47.3911010 111.7693460  77.1883610  46.4736480 110.5848480  76.9712850
  48.7745660 112.7688070  76.8312130  48.6909380 113.2002290  75.9808570
  49.4939850 113.2286420  77.2638950  36.6721660 105.0597130  80.8984240
  36.5436290 105.0515030  81.8469160  35.8483680 105.3980220  80.5475250
  33.6715590 106.8188250  90.3590940  32.9574110 107.0185170  90.9643550
  34.0910630 106.0427820  90.7305740  45.1654370 109.3110560  88.1092390
  45.5335190 108.4905770  88.4371960  44.3052570 109.3712450  88.5248040
  48.5316400 108.2667500  78.9179950  47.9029560 108.3713170  78.2038180
  48.0368320 108.4864280  79.7073830  40.5000430 110.5453450  80.3337830
  39.7916580 111.0139790  80.7751440  40.7844910 109.8875460  80.9683020
  42.1256360 111.9650150  88.3330360  42.6241610 112.4395970  88.9982210
  42.2679310 111.0413670  88.5400390  44.5315860 107.2704110  81.7733620
  44.4083640 107.2890240  80.8243130  45.4800420 107.3183050  81.8932020
  38.7035450 108.8538530  77.7088540  39.5525980 109.2908680  77.6428730
  38.3366720 109.1658790  78.5360600  49.3323220 108.1818110  89.1758750
  48.8296820 108.9223510  89.5152560  50.1479880 108.5702110  88.8595540
  47.6245230 113.4251290  82.6220110  46.6835370 113.4401520  82.7967800
  47.9389300 112.6387250  83.0680410  36.2973630 112.5395960  76.8656960
  36.3777220 111.5923470  76.9774360  37.1893380 112.8702840  76.9717620
  35.8567510 112.5040470  92.9963200  35.8972850 112.2054340  93.9048430
  36.7113010 112.9048080  92.8370720  37.7973320 111.0832570  90.9637690
  37.2669780 110.5923520  90.3361030  38.4661390 111.5116770  90.4295620
  47.1673550 112.8898190  92.7318030  47.7494320 112.1350510  92.6438510
  47.3435320 113.4205630  91.9549510  38.2845620 108.0494940  91.0434980
  38.1902490 107.4315690  90.3185850  37.7043010 108.7761230  90.8164890
  41.0507060 106.6068180  88.0762370  40.6024360 106.6292440  87.2307920
  40.4172260 106.2087200  88.6732670  43.7930510 113.2338690  90.0812650
  43.9126720 112.6379830  90.8207490  44.6524510 113.2708380  89.6613950
  38.5304800 111.1769250  75.1024870  38.3293860 110.3136610  75.4638210
  38.3596850 111.0902610  74.1646470  40.5599280 109.7760040  91.3388470
  41.1498970 109.4675890  92.0266290  39.7419520 109.3039790  91.4948370
  45.3792710 109.3925850  91.5721490  44.6908230 108.7307390  91.5071480
  46.0998730 108.9464120  92.0169950  46.0093110 105.9877480  77.6311750
  46.2895400 105.1445380  77.9871170  45.2358840 106.2200590  78.1450500
  37.3287600 108.2769870  75.0902750  37.6313500 108.2837300  74.1821900
  38.0682190 107.9267730  75.5870410  40.5472530 107.2204490  76.0758950
  40.1994530 106.5428480  75.4961400  40.7485300 106.7594000  76.8902340
  33.8878170 113.7492140  82.4723320  33.2327010 113.4803780  81.8283020
  34.7256120 113.6396620  82.0225300  46.8368610 108.5433430  76.6941810
  47.2553490 108.3564410  75.8538470  46.5304670 107.6912480  77.0044740
  50.3358340 113.4557570  80.3917610  49.9601940 112.6885500  79.9598900
  49.6061460 113.8380270  80.8792540  49.7257960 112.6029090  90.0257130
  49.4944050 112.3741840  89.1255080  49.9862510 113.5228640  89.9802020
  34.4770100 111.0453800  90.9185080  33.5826150 111.0120560  91.2578790
  35.0167650 111.2440590  91.6836330  48.1646030 107.8285520  92.8036830
  49.0416210 107.8368920  93.1870830  48.1766870 107.0916360  92.1929180
  33.1016250 110.9591070  78.4148650  32.1980330 111.2221270  78.2400310
  33.5856870 111.2302240  77.6348610  49.6109300 111.6815060  83.6924850
  50.1346780 111.1877710  83.0615020  50.1968720 111.8165420  84.4372420
  49.7899020 111.7654930  87.2144400  48.8401730 111.7318470  87.3289390
  49.9712030 112.6755040  86.9794170  35.6443460 110.0156610  76.3243030
  36.3535160 109.5939830  75.8390310  34.9283400 110.0831840  75.6926380
  35.2917620 106.0695940  75.3645680  36.0145750 106.6104880  75.6826900
  35.5642140 105.7959360  74.4887220  49.1009270 110.9388410  79.6317260
  49.5968390 110.7059280  80.4166140  48.9025340 110.1000250  79.2154900
  34.9809810 105.3202130  85.2668300  35.6286000 104.7699510  84.8263460
  35.4011650 105.5745280  86.0884110  50.5296430 109.5749360  82.1654940
  50.4195710 109.4205400  83.1037210  51.2904020 109.0470300  81.9230350
  48.8762150 105.5143490  88.6237940  49.5134370 106.1277630  88.9897130
  49.0237040 105.5504150  87.6787170  51.4186700 107.4057280  75.4061080
  52.3436010 107.2738460  75.1979370  51.3962490 107.4850100  76.3597530
  51.4925190 108.1767940  78.0317790  50.6976690 108.1113060  78.5610700
  51.6968470 109.1118580  78.0203140  34.7341810 105.4757800  88.0093620
  34.3856630 105.9321620  88.7751800  34.4029510 104.5814930  88.0916050
  42.2466630 106.6669680  91.5313040  42.1855520 107.2591510  92.2808450
  43.1867010 106.5595640  91.3863300  44.8841190 106.3239740  91.1705330
  45.4981600 106.6419030  90.5086410  45.4290750 105.8388330  91.7901190
  35.4062450 105.0034000  91.2844390  35.9545440 104.8222050  90.5210500
  35.4717760 104.2128110  91.8200700  45.6249230 104.8871880  87.4974620
  44.7509070 105.2206990  87.2947550  45.5159980 104.4145060  88.3226490
  46.5321210 107.0942750  88.8816340  46.2034570 106.2794510  88.5018070
  47.4803510 107.0512560  88.7582030  43.3724050 105.8041720  86.4367530
  42.5895840 106.2787220  86.7164290  43.0786980 104.8996550  86.3280710
  47.9245120 106.5064820  84.4816620  48.3653210 106.4509920  83.6338220
  47.6552710 107.4222830  84.5526800  49.7883690 106.1380060  82.4925440
  49.7272090 105.1941280  82.3456460  50.5675720 106.2460150  83.0378900
  34.7164460 106.1089200  78.9581250  35.4743820 106.2218080  78.3845280
  34.2541630 106.9458400  78.9124680  41.2578270 108.2228470  81.9483560
  40.4452780 107.8485360  81.6079440  41.7619910 107.4673550  82.2504750
  45.7603250 104.8870920  83.1866630  46.3632620 105.4591130  83.6615150
  45.0196240 105.4510360  82.9640530  48.9037850 105.2892480  78.4606910
  49.0988480 106.1875930  78.7274340  48.1167720 105.0579560  78.9539860
  37.0889610 106.6353250  77.4983220  37.6182370 105.8483050  77.3691170
  37.7217930 107.3144440  77.7318750  39.2827450 106.3728390  80.5528610
  38.6530190 105.6715700  80.7198740  38.7432590 107.1332520  80.3361770
  39.4083010 105.6512370  92.9881100  39.1267280 106.1545970  92.2241920
  39.7902710 104.8534120  92.6223230  46.0098470 105.0665950  93.5661570
  45.8963920 105.3860560  94.4613090  46.8268210 105.4678460  93.2698850
  44.9156620 113.0858420  63.9296310  44.8350670 112.1713030  63.6588020
  44.5021040 113.5825490  63.2236020  35.4732440 110.1359140  60.4723730
  34.5849140 110.4775110  60.3703610  35.7573630 109.9359460  59.5804560
  33.4365450 112.7364790  66.3563430  34.0081560 111.9686990  66.3567070
  33.4366990 113.0353550  65.4470040  34.6790320 108.1449150  68.1432360
  34.4993160 107.2474900  68.4235120  34.2770400 108.6921020  68.8179310
  43.5188820 110.3465010  66.0444670  43.8953640 109.4736890  65.9318340
  43.4208330 110.6823710  65.1535110  37.6493830 108.7190640  61.5062110
  37.7560580 109.6194370  61.8130870  36.7386190 108.6708610  61.2156760
  47.3012940 107.8415450  62.9773010  48.1222560 107.3512020  63.0198490
  47.3347020 108.4313110  63.7304850  35.2976990 110.6409650  66.7514700
  35.9787100 110.9048020  67.3702100  34.9825040 109.8010520  67.0852710
  39.4901560 111.6877010  65.8387290  39.9979780 112.1857980  66.4792310
  40.0214800 110.9112210  65.6626650  51.5912490 109.8582200  69.5416640
  50.8864660 110.2463910  69.0231750  51.8570410 110.5532490  70.1437570
  37.7737660 106.3275570  70.1050710  37.7756100 106.8447960  69.2996610
  36.9441970 105.8505750  70.0820640  47.5374420 109.7815830  65.7500550
  46.8329990 110.0700720  66.3303660  47.8986580 110.5915940  65.3900110
  37.4552990 108.0385530  68.1121160  37.7969800 108.8827580  67.8175030
  36.5168800 108.1869270  68.2286500  50.6061340 109.2270620  66.1409760
  49.6586250 109.2609600  66.2725190  50.9311330 110.0409570  66.5259120
  41.1380880 105.5267800  64.4365750  41.4455860 104.9714690  63.7201250
  40.2081580 105.6612260  64.2538740  43.5130720 109.8633630  58.1693030
  42.5734390 110.0247590  58.2545490  43.8313980 110.5819310  57.6229020
  46.9985490 111.3321470  69.0926930  46.5856670 112.1575180  69.3466920
  46.2661440 110.7466510  68.9003290  37.8446900 110.8924580  67.7344640
  38.3961490 111.0019920  66.9597890  38.3590410 111.2662180  68.4499870
  49.3140770 105.6466550  56.9974910  49.0013430 105.7393380  57.8973980
  50.0753240 106.2247580  56.9472340  35.8322910 113.0126350  61.4552250
  35.7120510 113.7388440  60.8433520  35.5223800 112.2429260  60.9780160
  50.5242060 110.3838050  72.9749050  49.9086330 110.8917720  72.4464510
  50.2038480 109.4836380  72.9174990  38.2986570 106.3561420  64.8375920
  37.8554720 107.1370960  64.5060440  38.8571560 106.6791310  65.5446860
  42.5856380 109.2229940  70.4411240  42.1235750 109.4312960  71.2531180
  42.1834490 108.4089290  70.1381910  47.5860890 110.4438890  71.5707900
  46.7354480 110.1444640  71.8916970  47.4262680 110.6880900  70.6591720
  44.6810600 111.9440640  73.6706690  45.0064010 111.1104390  73.3308920
  45.4690930 112.4669160  73.8185020  41.4145390 105.9772120  59.7181750
  40.7899570 105.9731990  60.4435060  41.3275510 105.1103080  59.3217720
  40.3362470 106.9008750  66.6965520  40.6334800 107.8071580  66.6157540
  40.8848030 106.4127530  66.0825090  38.0900790 111.4794990  62.5657170
  37.8641710 111.2632160  63.4703790  37.3093320 111.9123450  62.2203140
  45.3198550 111.4858360  61.1647820  44.7207440 112.2094160  60.9811440
  45.8678160 111.4235140  60.3824270  40.5300000 112.3780570  73.2317440
  40.4343600 111.4375300  73.0817840  41.3731980 112.5995640  72.8365510
  43.9263420 110.1221900  63.1951100  44.3192990 110.4394100  62.3819790
  44.2880270 109.2433780  63.3095620  35.6610540 108.7894240  71.3851220
  35.2673930 109.6369450  71.5924000  34.9728940 108.1520610  71.5759860
  42.2355590 108.8729210  74.4547960  41.5453910 108.6801410  75.0894050
  42.9787890 109.1563850  74.9872260  32.9627590 106.7122700  65.4181300
  32.6740640 107.2825560  66.1306280  33.7073350 106.2327150  65.7812530
  33.1497820 110.6542820  56.6284020  33.0672490 111.5973580  56.7699010
  32.7980880 110.5117730  55.7496370  44.5118560 112.7127650  67.2901880
  43.7799680 113.2214460  67.6391980  44.1142900 111.8957630  66.9890660
  40.9495950 109.3881850  65.6954370  40.9532010 108.9471800  64.8458910
  41.8447070 109.7099180  65.8026190  36.7998330 109.2708340  64.6548580
  36.4598380 109.7483570  65.4115630  36.0375650 108.8173460  64.2949680
  41.0116100 110.3893930  58.6861130  41.1328920 110.3480410  59.6346950
  40.6264610 111.2518080  58.5307860  44.9744470 108.1661330  66.7024820
  44.9917210 108.6169980  67.5466670  44.7260050 107.2666970  66.9158260
  40.0237600 112.6995070  58.0844430  39.4554500 112.2513320  57.4580340
  40.7326600 113.0587850  57.5509580  48.4015220 105.5793510  72.5411200
  48.7260990 104.8483170  73.0669180  48.4371730 105.2607150  71.6392190
  34.1144410 108.1927320  63.5713250  33.8291330 107.8282990  64.4091870
  34.0523270 107.4607780  62.9576390  39.0403290 112.4892270  69.7603990
  38.7360360 113.3684250  69.9854350  39.9949750 112.5492060  69.7961430
  43.7883000 107.0856580  60.2926620  42.9747610 106.5869750  60.2171930
  43.5944950 107.9254830  59.8762970  46.5031390 111.4576230  58.5888780
  47.3911010 111.7693460  58.4140120  46.4736480 110.5848480  58.1969360
  48.7745660 112.7688070  58.0568640  48.6909380 113.2002290  57.2065080
  49.4939850 113.2286420  58.4895460  36.6721660 105.0597130  62.1240750
  36.5436290 105.0515030  63.0725670  35.8483680 105.3980220  61.7731760
  33.6715590 106.8188250  71.5847450  32.9574110 107.0185170  72.1900060
  34.0910630 106.0427820  71.9562250  45.1654370 109.3110560  69.3348900
  45.5335190 108.4905770  69.6628470  44.3052570 109.3712450  69.7504550
  48.5316400 108.2667500  60.1436460  47.9029560 108.3713170  59.4294690
  48.0368320 108.4864280  60.9330340  40.5000430 110.5453450  61.5594340
  39.7916580 111.0139790  62.0007950  40.7844910 109.8875460  62.1939530
  42.1256360 111.9650150  69.5586870  42.6241610 112.4395970  70.2238720
  42.2679310 111.0413670  69.7656900  44.5315860 107.2704110  62.9990130
  44.4083640 107.2890240  62.0499640  45.4800420 107.3183050  63.1188530
  38.7035450 108.8538530  58.9345050  39.5525980 109.2908680  58.8685240
  38.3366720 109.1658790  59.7617110  49.3323220 108.1818110  70.4015260
  48.8296820 108.9223510  70.7409070  50.1479880 108.5702110  70.0852050
  47.6245230 113.4251290  63.8476620  46.6835370 113.4401520  64.0224310
  47.9389300 112.6387250  64.2936920  36.2973630 112.5395960  58.0913470
  36.3777220 111.5923470  58.2030870  37.1893380 112.8702840  58.1974130
  35.8567510 112.5040470  74.2219710  35.8972850 112.2054340  75.1304940
  36.7113010 112.9048080  74.0627230  37.7973320 111.0832570  72.1894200
  37.2669780 110.5923520  71.5617540  38.4661390 111.5116770  71.6552130
  47.1673550 112.8898190  73.9574540  47.7494320 112.1350510  73.8695020
  47.3435320 113.4205630  73.1806020  38.2845620 108.0494940  72.2691490
  38.1902490 107.4315690  71.5442360  37.7043010 108.7761230  72.0421400
  41.0507060 106.6068180  69.3018880  40.6024360 106.6292440  68.4564430
  40.4172260 106.2087200  69.8989180  43.7930510 113.2338690  71.3069160
  43.9126720 112.6379830  72.0464000  44.6524510 113.2708380  70.8870460
  38.5304800 111.1769250  56.3281380  38.3293860 110.3136610  56.6894720
  38.3596850 111.0902610  55.3902980  40.5599280 109.7760040  72.5644980
  41.1498970 109.4675890  73.2522800  39.7419520 109.3039790  72.7204880
  45.3792710 109.3925850  72.7978000  44.6908230 108.7307390  72.7327990
  46.0998730 108.9464120  73.2426460  46.0093110 105.9877480  58.8568260
  46.2895400 105.1445380  59.2127680  45.2358840 106.2200590  59.3707010
  37.3287600 108.2769870  56.3159260  37.6313500 108.2837300  55.4078410
  38.0682190 107.9267730  56.8126920  40.5472530 107.2204490  57.3015460
  40.1994530 106.5428480  56.7217910  40.7485300 106.7594000  58.1158850
  33.8878170 113.7492140  63.6979830  33.2327010 113.4803780  63.0539530
  34.7256120 113.6396620  63.2481810  46.8368610 108.5433430  57.9198320
  47.2553490 108.3564410  57.0794980  46.5304670 107.6912480  58.2301250
  50.3358340 113.4557570  61.6174120  49.9601940 112.6885500  61.1855410
  49.6061460 113.8380270  62.1049050  49.7257960 112.6029090  71.2513640
  49.4944050 112.3741840  70.3511590  49.9862510 113.5228640  71.2058530
  34.4770100 111.0453800  72.1441590  33.5826150 111.0120560  72.4835300
  35.0167650 111.2440590  72.9092840  48.1646030 107.8285520  74.0293340
  49.0416210 107.8368920  74.4127340  48.1766870 107.0916360  73.4185690
  33.1016250 110.9591070  59.6405160  32.1980330 111.2221270  59.4656820
  33.5856870 111.2302240  58.8605120  49.6109300 111.6815060  64.9181360
  50.1346780 111.1877710  64.2871530  50.1968720 111.8165420  65.6628930
  49.7899020 111.7654930  68.4400910  48.8401730 111.7318470  68.5545900
  49.9712030 112.6755040  68.2050680  35.6443460 110.0156610  57.5499540
  36.3535160 109.5939830  57.0646820  34.9283400 110.0831840  56.9182890
  35.2917620 106.0695940  56.5902190  36.0145750 106.6104880  56.9083410
  35.5642140 105.7959360  55.7143730  49.1009270 110.9388410  60.8573770
  49.5968390 110.7059280  61.6422650  48.9025340 110.1000250  60.4411410
  34.9809810 105.3202130  66.4924810  35.6286000 104.7699510  66.0519970
  35.4011650 105.5745280  67.3140620  50.5296430 109.5749360  63.3911450
  50.4195710 109.4205400  64.3293720  51.2904020 109.0470300  63.1486860
  48.8762150 105.5143490  69.8494450  49.5134370 106.1277630  70.2153640
  49.0237040 105.5504150  68.9043680  51.4186700 107.4057280  56.6317590
  52.3436010 107.2738460  56.4235880  51.3962490 107.4850100  57.5854040
  51.4925190 108.1767940  59.2574300  50.6976690 108.1113060  59.7867210
  51.6968470 109.1118580  59.2459650  34.7341810 105.4757800  69.2350130
  34.3856630 105.9321620  70.0008310  34.4029510 104.5814930  69.3172560
  42.2466630 106.6669680  72.7569550  42.1855520 107.2591510  73.5064960
  43.1867010 106.5595640  72.6119810  44.8841190 106.3239740  72.3961840
  45.4981600 106.6419030  71.7342920  45.4290750 105.8388330  73.0157700
  35.4062450 105.0034000  72.5100900  35.9545440 104.8222050  71.7467010
  35.4717760 104.2128110  73.0457210  45.6249230 104.8871880  68.7231130
  44.7509070 105.2206990  68.5204060  45.5159980 104.4145060  69.5483000
  46.5321210 107.0942750  70.1072850  46.2034570 106.2794510  69.7274580
  47.4803510 107.0512560  69.9838540  43.3724050 105.8041720  67.6624040
  42.5895840 106.2787220  67.9420800  43.0786980 104.8996550  67.5537220
  47.9245120 106.5064820  65.7073130  48.3653210 106.4509920  64.8594730
  47.6552710 107.4222830  65.7783310  49.7883690 106.1380060  63.7181950
  49.7272090 105.1941280  63.5712970  50.5675720 106.2460150  64.2635410
  34.7164460 106.1089200  60.1837760  35.4743820 106.2218080  59.6101790
  34.2541630 106.9458400  60.1381190  41.2578270 108.2228470  63.1740070
  40.4452780 107.8485360  62.8335950  41.7619910 107.4673550  63.4761260
  45.7603250 104.8870920  64.4123140  46.3632620 105.4591130  64.8871660
  45.0196240 105.4510360  64.1897040  48.9037850 105.2892480  59.6863420
  49.0988480 106.1875930  59.9530850  48.1167720 105.0579560  60.1796370
  37.0889610 106.6353250  58.7239730  37.6182370 105.8483050  58.5947680
  37.7217930 107.3144440  58.9575260  39.2827450 106.3728390  61.7785120
  38.6530190 105.6715700  61.9455250  38.7432590 107.1332520  61.5618280
  39.4083010 105.6512370  74.2137610  39.1267280 106.1545970  73.4498430
  39.7902710 104.8534120  73.8479740  46.0098470 105.0665950  74.7918080
  45.8963920 105.3860560  75.6869600  46.8268210 105.4678460  74.4955360
  44.9156620 113.0858420  45.1552820  44.8350670 112.1713030  44.8844530
  44.5021040 113.5825490  44.4492530  35.4732440 110.1359140  41.6980240
  34.5849140 110.4775110  41.5960120  35.7573630 109.9359460  40.8061070
  33.4365450 112.7364790  47.5819940  34.0081560 111.9686990  47.5823580
  33.4366990 113.0353550  46.6726550  34.6790320 108.1449150  49.3688870
  34.4993160 107.2474900  49.6491630  34.2770400 108.6921020  50.0435820
  43.5188820 110.3465010  47.2701180  43.8953640 109.4736890  47.1574850
  43.4208330 110.6823710  46.3791620  37.6493830 108.7190640  42.7318620
  37.7560580 109.6194370  43.0387380  36.7386190 108.6708610  42.4413270
  47.3012940 107.8415450  44.2029520  48.1222560 107.3512020  44.2455000
  47.3347020 108.4313110  44.9561360  35.2976990 110.6409650  47.9771210
  35.9787100 110.9048020  48.5958610  34.9825040 109.8010520  48.3109220
  39.4901560 111.6877010  47.0643800  39.9979780 112.1857980  47.7048820
  40.0214800 110.9112210  46.8883160  51.5912490 109.8582200  50.7673150
  50.8864660 110.2463910  50.2488260  51.8570410 110.5532490  51.3694080
  37.7737660 106.3275570  51.3307220  37.7756100 106.8447960  50.5253120
  36.9441970 105.8505750  51.3077150  47.5374420 109.7815830  46.9757060
  46.8329990 110.0700720  47.5560170  47.8986580 110.5915940  46.6156620
  37.4552990 108.0385530  49.3377670  37.7969800 108.8827580  49.0431540
  36.5168800 108.1869270  49.4543010  50.6061340 109.2270620  47.3666270
  49.6586250 109.2609600  47.4981700  50.9311330 110.0409570  47.7515630
  41.1380880 105.5267800  45.6622260  41.4455860 104.9714690  44.9457760
  40.2081580 105.6612260  45.4795250  43.5130720 109.8633630  39.3949540
  42.5734390 110.0247590  39.4802000  43.8313980 110.5819310  38.8485530
  46.9985490 111.3321470  50.3183440  46.5856670 112.1575180  50.5723430
  46.2661440 110.7466510  50.1259800  37.8446900 110.8924580  48.9601150
  38.3961490 111.0019920  48.1854400  38.3590410 111.2662180  49.6756380
  49.3140770 105.6466550  38.2231420  49.0013430 105.7393380  39.1230490
  50.0753240 106.2247580  38.1728850  35.8322910 113.0126350  42.6808760
  35.7120510 113.7388440  42.0690030  35.5223800 112.2429260  42.2036670
  50.5242060 110.3838050  54.2005560  49.9086330 110.8917720  53.6721020
  50.2038480 109.4836380  54.1431500  38.2986570 106.3561420  46.0632430
  37.8554720 107.1370960  45.7316950  38.8571560 106.6791310  46.7703370
  42.5856380 109.2229940  51.6667750  42.1235750 109.4312960  52.4787690
  42.1834490 108.4089290  51.3638420  47.5860890 110.4438890  52.7964410
  46.7354480 110.1444640  53.1173480  47.4262680 110.6880900  51.8848230
  44.6810600 111.9440640  54.8963200  45.0064010 111.1104390  54.5565430
  45.4690930 112.4669160  55.0441530  41.4145390 105.9772120  40.9438260
  40.7899570 105.9731990  41.6691570  41.3275510 105.1103080  40.5474230
  40.3362470 106.9008750  47.9222030  40.6334800 107.8071580  47.8414050
  40.8848030 106.4127530  47.3081600  38.0900790 111.4794990  43.7913680
  37.8641710 111.2632160  44.6960300  37.3093320 111.9123450  43.4459650
  45.3198550 111.4858360  42.3904330  44.7207440 112.2094160  42.2067950
  45.8678160 111.4235140  41.6080780  40.5300000 112.3780570  54.4573950
  40.4343600 111.4375300  54.3074350  41.3731980 112.5995640  54.0622020
  43.9263420 110.1221900  44.4207610  44.3192990 110.4394100  43.6076300
  44.2880270 109.2433780  44.5352130  35.6610540 108.7894240  52.6107730
  35.2673930 109.6369450  52.8180510  34.9728940 108.1520610  52.8016370
  42.2355590 108.8729210  55.6804470  41.5453910 108.6801410  56.3150560
  42.9787890 109.1563850  56.2128770  32.9627590 106.7122700  46.6437810
  32.6740640 107.2825560  47.3562790  33.7073350 106.2327150  47.0069040
  33.1497820 110.6542820  37.8540530  33.0672490 111.5973580  37.9955520
  32.7980880 110.5117730  36.9752880  44.5118560 112.7127650  48.5158390
  43.7799680 113.2214460  48.8648490  44.1142900 111.8957630  48.2147170
  40.9495950 109.3881850  46.9210880  40.9532010 108.9471800  46.0715420
  41.8447070 109.7099180  47.0282700  36.7998330 109.2708340  45.8805090
  36.4598380 109.7483570  46.6372140  36.0375650 108.8173460  45.5206190
  41.0116100 110.3893930  39.9117640  41.1328920 110.3480410  40.8603460
  40.6264610 111.2518080  39.7564370  44.9744470 108.1661330  47.9281330
  44.9917210 108.6169980  48.7723180  44.7260050 107.2666970  48.1414770
  40.0237600 112.6995070  39.3100940  39.4554500 112.2513320  38.6836850
  40.7326600 113.0587850  38.7766090  48.4015220 105.5793510  53.7667710
  48.7260990 104.8483170  54.2925690  48.4371730 105.2607150  52.8648700
  34.1144410 108.1927320  44.7969760  33.8291330 107.8282990  45.6348380
  34.0523270 107.4607780  44.1832900  39.0403290 112.4892270  50.9860500
  38.7360360 113.3684250  51.2110860  39.9949750 112.5492060  51.0217940
  43.7883000 107.0856580  41.5183130  42.9747610 106.5869750  41.4428440
  43.5944950 107.9254830  41.1019480  46.5031390 111.4576230  39.8145290
  47.3911010 111.7693460  39.6396630  46.4736480 110.5848480  39.4225870
  48.7745660 112.7688070  39.2825150  48.6909380 113.2002290  38.4321590
  49.4939850 113.2286420  39.7151970  36.6721660 105.0597130  43.3497260
  36.5436290 105.0515030  44.2982180  35.8483680 105.3980220  42.9988270
  33.6715590 106.8188250  52.8103960  32.9574110 107.0185170  53.4156570
  34.0910630 106.0427820  53.1818760  45.1654370 109.3110560  50.5605410
  45.5335190 108.4905770  50.8884980  44.3052570 109.3712450  50.9761060
  48.5316400 108.2667500  41.3692970  47.9029560 108.3713170  40.6551200
  48.0368320 108.4864280  42.1586850  40.5000430 110.5453450  42.7850850
  39.7916580 111.0139790  43.2264460  40.7844910 109.8875460  43.4196040
  42.1256360 111.9650150  50.7843380  42.6241610 112.4395970  51.4495230
  42.2679310 111.0413670  50.9913410  44.5315860 107.2704110  44.2246640
  44.4083640 107.2890240  43.2756150  45.4800420 107.3183050  44.3445040
  38.7035450 108.8538530  40.1601560  39.5525980 109.2908680  40.0941750
  38.3366720 109.1658790  40.9873620  49.3323220 108.1818110  51.6271770
  48.8296820 108.9223510  51.9665580  50.1479880 108.5702110  51.3108560
  47.6245230 113.4251290  45.0733130  46.6835370 113.4401520  45.2480820
  47.9389300 112.6387250  45.5193430  36.2973630 112.5395960  39.3169980
  36.3777220 111.5923470  39.4287380  37.1893380 112.8702840  39.4230640
  35.8567510 112.5040470  55.4476220  35.8972850 112.2054340  56.3561450
  36.7113010 112.9048080  55.2883740  37.7973320 111.0832570  53.4150710
  37.2669780 110.5923520  52.7874050  38.4661390 111.5116770  52.8808640
  47.1673550 112.8898190  55.1831050  47.7494320 112.1350510  55.0951530
  47.3435320 113.4205630  54.4062530  38.2845620 108.0494940  53.4948000
  38.1902490 107.4315690  52.7698870  37.7043010 108.7761230  53.2677910
  41.0507060 106.6068180  50.5275390  40.6024360 106.6292440  49.6820940
  40.4172260 106.2087200  51.1245690  43.7930510 113.2338690  52.5325670
  43.9126720 112.6379830  53.2720510  44.6524510 113.2708380  52.1126970
  38.5304800 111.1769250  37.5537890  38.3293860 110.3136610  37.9151230
  38.3596850 111.0902610  36.6159490  40.5599280 109.7760040  53.7901490
  41.1498970 109.4675890  54.4779310  39.7419520 109.3039790  53.9461390
  45.3792710 109.3925850  54.0234510  44.6908230 108.7307390  53.9584500
  46.0998730 108.9464120  54.4682970  46.0093110 105.9877480  40.0824770
  46.2895400 105.1445380  40.4384190  45.2358840 106.2200590  40.5963520
  37.3287600 108.2769870  37.5415770  37.6313500 108.2837300  36.6334920
  38.0682190 107.9267730  38.0383430  40.5472530 107.2204490  38.5271970
  40.1994530 106.5428480  37.9474420  40.7485300 106.7594000  39.3415360
  33.8878170 113.7492140  44.9236340  33.2327010 113.4803780  44.2796040
  34.7256120 113.6396620  44.4738320  46.8368610 108.5433430  39.1454830
  47.2553490 108.3564410  38.3051490  46.5304670 107.6912480  39.4557760
  50.3358340 113.4557570  42.8430630  49.9601940 112.6885500  42.4111920
  49.6061460 113.8380270  43.3305560  49.7257960 112.6029090  52.4770150
  49.4944050 112.3741840  51.5768100  49.9862510 113.5228640  52.4315040
  34.4770100 111.0453800  53.3698100  33.5826150 111.0120560  53.7091810
  35.0167650 111.2440590  54.1349350  48.1646030 107.8285520  55.2549850
  49.0416210 107.8368920  55.6383850  48.1766870 107.0916360  54.6442200
  33.1016250 110.9591070  40.8661670  32.1980330 111.2221270  40.6913330
  33.5856870 111.2302240  40.0861630  49.6109300 111.6815060  46.1437870
  50.1346780 111.1877710  45.5128040  50.1968720 111.8165420  46.8885440
  49.7899020 111.7654930  49.6657420  48.8401730 111.7318470  49.7802410
  49.9712030 112.6755040  49.4307190  35.6443460 110.0156610  38.7756050
  36.3535160 109.5939830  38.2903330  34.9283400 110.0831840  38.1439400
  35.2917620 106.0695940  37.8158700  36.0145750 106.6104880  38.1339920
  35.5642140 105.7959360  36.9400240  49.1009270 110.9388410  42.0830280
  49.5968390 110.7059280  42.8679160  48.9025340 110.1000250  41.6667920
  34.9809810 105.3202130  47.7181320  35.6286000 104.7699510  47.2776480
  35.4011650 105.5745280  48.5397130  50.5296430 109.5749360  44.6167960
  50.4195710 109.4205400  45.5550230  51.2904020 109.0470300  44.3743370
  48.8762150 105.5143490  51.0750960  49.5134370 106.1277630  51.4410150
  49.0237040 105.5504150  50.1300190  51.4186700 107.4057280  37.8574100
  52.3436010 107.2738460  37.6492390  51.3962490 107.4850100  38.8110550
  51.4925190 108.1767940  40.4830810  50.6976690 108.1113060  41.0123720
  51.6968470 109.1118580  40.4716160  34.7341810 105.4757800  50.4606640
  34.3856630 105.9321620  51.2264820  34.4029510 104.5814930  50.5429070
  42.2466630 106.6669680  53.9826060  42.1855520 107.2591510  54.7321470
  43.1867010 106.5595640  53.8376320  44.8841190 106.3239740  53.6218350
  45.4981600 106.6419030  52.9599430  45.4290750 105.8388330  54.2414210
  35.4062450 105.0034000  53.7357410  35.9545440 104.8222050  52.9723520
  35.4717760 104.2128110  54.2713720  45.6249230 104.8871880  49.9487640
  44.7509070 105.2206990  49.7460570  45.5159980 104.4145060  50.7739510
  46.5321210 107.0942750  51.3329360  46.2034570 106.2794510  50.9531090
  47.4803510 107.0512560  51.2095050  43.3724050 105.8041720  48.8880550
  42.5895840 106.2787220  49.1677310  43.0786980 104.8996550  48.7793730
  47.9245120 106.5064820  46.9329640  48.3653210 106.4509920  46.0851240
  47.6552710 107.4222830  47.0039820  49.7883690 106.1380060  44.9438460
  49.7272090 105.1941280  44.7969480  50.5675720 106.2460150  45.4891920
  34.7164460 106.1089200  41.4094270  35.4743820 106.2218080  40.8358300
  34.2541630 106.9458400  41.3637700  41.2578270 108.2228470  44.3996580
  40.4452780 107.8485360  44.0592460  41.7619910 107.4673550  44.7017770
  45.7603250 104.8870920  45.6379650  46.3632620 105.4591130  46.1128170
  45.0196240 105.4510360  45.4153550  48.9037850 105.2892480  40.9119930
  49.0988480 106.1875930  41.1787360  48.1167720 105.0579560  41.4052880
  37.0889610 106.6353250  39.9496240  37.6182370 105.8483050  39.8204190
  37.7217930 107.3144440  40.1831770  39.2827450 106.3728390  43.0041630
  38.6530190 105.6715700  43.1711760  38.7432590 107.1332520  42.7874790
  39.4083010 105.6512370  55.4394120  39.1267280 106.1545970  54.6754940
  39.7902710 104.8534120  55.0736250  46.0098470 105.0665950  56.0174590
  45.8963920 105.3860560  56.9126110  46.8268210 105.4678460  55.7211870
  44.9156620 113.0858420  26.3809330  44.8350670 112.1713030  26.1101040
  44.5021040 113.5825490  25.6749040  35.4732440 110.1359140  22.9236750
  34.5849140 110.4775110  22.8216630  35.7573630 109.9359460  22.0317580
  33.4365450 112.7364790  28.8076450  34.0081560 111.9686990  28.8080090
  33.4366990 113.0353550  27.8983060  34.6790320 108.1449150  30.5945380
  34.4993160 107.2474900  30.8748140  34.2770400 108.6921020  31.2692330
  43.5188820 110.3465010  28.4957690  43.8953640 109.4736890  28.3831360
  43.4208330 110.6823710  27.6048130  37.6493830 108.7190640  23.9575130
  37.7560580 109.6194370  24.2643890  36.7386190 108.6708610  23.6669780
  47.3012940 107.8415450  25.4286030  48.1222560 107.3512020  25.4711510
  47.3347020 108.4313110  26.1817870  35.2976990 110.6409650  29.2027720
  35.9787100 110.9048020  29.8215120  34.9825040 109.8010520  29.5365730
  39.4901560 111.6877010  28.2900310  39.9979780 112.1857980  28.9305330
  40.0214800 110.9112210  28.1139670  51.5912490 109.8582200  31.9929660
  50.8864660 110.2463910  31.4744770  51.8570410 110.5532490  32.5950590
  37.7737660 106.3275570  32.5563730  37.7756100 106.8447960  31.7509630
  36.9441970 105.8505750  32.5333660  47.5374420 109.7815830  28.2013570
  46.8329990 110.0700720  28.7816680  47.8986580 110.5915940  27.8413130
  37.4552990 108.0385530  30.5634180  37.7969800 108.8827580  30.2688050
  36.5168800 108.1869270  30.6799520  50.6061340 109.2270620  28.5922780
  49.6586250 109.2609600  28.7238210  50.9311330 110.0409570  28.9772140
  41.1380880 105.5267800  26.8878770  41.4455860 104.9714690  26.1714270
  40.2081580 105.6612260  26.7051760  43.5130720 109.8633630  20.6206050
  42.5734390 110.0247590  20.7058510  43.8313980 110.5819310  20.0742040
  46.9985490 111.3321470  31.5439950  46.5856670 112.1575180  31.7979940
  46.2661440 110.7466510  31.3516310  37.8446900 110.8924580  30.1857660
  38.3961490 111.0019920  29.4110910  38.3590410 111.2662180  30.9012890
  49.3140770 105.6466550  19.4487930  49.0013430 105.7393380  20.3487000
  50.0753240 106.2247580  19.3985360  35.8322910 113.0126350  23.9065270
  35.7120510 113.7388440  23.2946540  35.5223800 112.2429260  23.4293180
  50.5242060 110.3838050  35.4262070  49.9086330 110.8917720  34.8977530
  50.2038480 109.4836380  35.3688010  38.2986570 106.3561420  27.2888940
  37.8554720 107.1370960  26.9573460  38.8571560 106.6791310  27.9959880
  42.5856380 109.2229940  32.8924260  42.1235750 109.4312960  33.7044200
  42.1834490 108.4089290  32.5894930  47.5860890 110.4438890  34.0220920
  46.7354480 110.1444640  34.3429990  47.4262680 110.6880900  33.1104740
  44.6810600 111.9440640  36.1219710  45.0064010 111.1104390  35.7821940
  45.4690930 112.4669160  36.2698040  41.4145390 105.9772120  22.1694770
  40.7899570 105.9731990  22.8948080  41.3275510 105.1103080  21.7730740
  40.3362470 106.9008750  29.1478540  40.6334800 107.8071580  29.0670560
  40.8848030 106.4127530  28.5338110  38.0900790 111.4794990  25.0170190
  37.8641710 111.2632160  25.9216810  37.3093320 111.9123450  24.6716160
  45.3198550 111.4858360  23.6160840  44.7207440 112.2094160  23.4324460
  45.8678160 111.4235140  22.8337290  40.5300000 112.3780570  35.6830460
  40.4343600 111.4375300  35.5330860  41.3731980 112.5995640  35.2878530
  43.9263420 110.1221900  25.6464120  44.3192990 110.4394100  24.8332810
  44.2880270 109.2433780  25.7608640  35.6610540 108.7894240  33.8364240
  35.2673930 109.6369450  34.0437020  34.9728940 108.1520610  34.0272880
  42.2355590 108.8729210  36.9060980  41.5453910 108.6801410  37.5407070
  42.9787890 109.1563850  37.4385280  32.9627590 106.7122700  27.8694320
  32.6740640 107.2825560  28.5819300  33.7073350 106.2327150  28.2325550
  33.1497820 110.6542820  19.0797040  33.0672490 111.5973580  19.2212030
  32.7980880 110.5117730  18.2009390  44.5118560 112.7127650  29.7414900
  43.7799680 113.2214460  30.0905000  44.1142900 111.8957630  29.4403680
  40.9495950 109.3881850  28.1467390  40.9532010 108.9471800  27.2971930
  41.8447070 109.7099180  28.2539210  36.7998330 109.2708340  27.1061600
  36.4598380 109.7483570  27.8628650  36.0375650 108.8173460  26.7462700
  41.0116100 110.3893930  21.1374150  41.1328920 110.3480410  22.0859970
  40.6264610 111.2518080  20.9820880  44.9744470 108.1661330  29.1537840
  44.9917210 108.6169980  29.9979690  44.7260050 107.2666970  29.3671280
  40.0237600 112.6995070  20.5357450  39.4554500 112.2513320  19.9093360
  40.7326600 113.0587850  20.0022600  48.4015220 105.5793510  34.9924220
  48.7260990 104.8483170  35.5182200  48.4371730 105.2607150  34.0905210
  34.1144410 108.1927320  26.0226270  33.8291330 107.8282990  26.8604890
  34.0523270 107.4607780  25.4089410  39.0403290 112.4892270  32.2117010
  38.7360360 113.3684250  32.4367370  39.9949750 112.5492060  32.2474450
  43.7883000 107.0856580  22.7439640  42.9747610 106.5869750  22.6684950
  43.5944950 107.9254830  22.3275990  46.5031390 111.4576230  21.0401800
  47.3911010 111.7693460  20.8653140  46.4736480 110.5848480  20.6482380
  48.7745660 112.7688070  20.5081660  48.6909380 113.2002290  19.6578100
  49.4939850 113.2286420  20.9408480  36.6721660 105.0597130  24.5753770
  36.5436290 105.0515030  25.5238690  35.8483680 105.3980220  24.2244780
  33.6715590 106.8188250  34.0360470  32.9574110 107.0185170  34.6413080
  34.0910630 106.0427820  34.4075270  45.1654370 109.3110560  31.7861920
  45.5335190 108.4905770  32.1141490  44.3052570 109.3712450  32.2017570
  48.5316400 108.2667500  22.5949480  47.9029560 108.3713170  21.8807710
  48.0368320 108.4864280  23.3843360  40.5000430 110.5453450  24.0107360
  39.7916580 111.0139790  24.4520970  40.7844910 109.8875460  24.6452550
  42.1256360 111.9650150  32.0099890  42.6241610 112.4395970  32.6751740
  42.2679310 111.0413670  32.2169920  44.5315860 107.2704110  25.4503150
  44.4083640 107.2890240  24.5012660  45.4800420 107.3183050  25.5701550
  38.7035450 108.8538530  21.3858070  39.5525980 109.2908680  21.3198260
  38.3366720 109.1658790  22.2130130  49.3323220 108.1818110  32.8528280
  48.8296820 108.9223510  33.1922090  50.1479880 108.5702110  32.5365070
  47.6245230 113.4251290  26.2989640  46.6835370 113.4401520  26.4737330
  47.9389300 112.6387250  26.7449940  36.2973630 112.5395960  20.5426490
  36.3777220 111.5923470  20.6543890  37.1893380 112.8702840  20.6487150
  35.8567510 112.5040470  36.6732730  35.8972850 112.2054340  37.5817960
  36.7113010 112.9048080  36.5140250  37.7973320 111.0832570  34.6407220
  37.2669780 110.5923520  34.0130560  38.4661390 111.5116770  34.1065150
  47.1673550 112.8898190  36.4087560  47.7494320 112.1350510  36.3208040
  47.3435320 113.4205630  35.6319040  38.2845620 108.0494940  34.7204510
  38.1902490 107.4315690  33.9955380  37.7043010 108.7761230  34.4934420
  41.0507060 106.6068180  31.7531900  40.6024360 106.6292440  30.9077450
  40.4172260 106.2087200  32.3502200  43.7930510 113.2338690  33.7582180
  43.9126720 112.6379830  34.4977020  44.6524510 113.2708380  33.3383480
  38.5304800 111.1769250  18.7794400  38.3293860 110.3136610  19.1407740
  38.3596850 111.0902610  17.8416000  40.5599280 109.7760040  35.0158000
  41.1498970 109.4675890  35.7035820  39.7419520 109.3039790  35.1717900
  45.3792710 109.3925850  35.2491020  44.6908230 108.7307390  35.1841010
  46.0998730 108.9464120  35.6939480  46.0093110 105.9877480  21.3081280
  46.2895400 105.1445380  21.6640700  45.2358840 106.2200590  21.8220030
  37.3287600 108.2769870  18.7672280  37.6313500 108.2837300  17.8591430
  38.0682190 107.9267730  19.2639940  40.5472530 107.2204490  19.7528480
  40.1994530 106.5428480  19.1730930  40.7485300 106.7594000  20.5671870
  33.8878170 113.7492140  26.1492850  33.2327010 113.4803780  25.5052550
  34.7256120 113.6396620  25.6994830  46.8368610 108.5433430  20.3711340
  47.2553490 108.3564410  19.5308000  46.5304670 107.6912480  20.6814270
  50.3358340 113.4557570  24.0687140  49.9601940 112.6885500  23.6368430
  49.6061460 113.8380270  24.5562070  49.7257960 112.6029090  33.7026660
  49.4944050 112.3741840  32.8024610  49.9862510 113.5228640  33.6571550
  34.4770100 111.0453800  34.5954610  33.5826150 111.0120560  34.9348320
  35.0167650 111.2440590  35.3605860  48.1646030 107.8285520  36.4806360
  49.0416210 107.8368920  36.8640360  48.1766870 107.0916360  35.8698710
  33.1016250 110.9591070  22.0918180  32.1980330 111.2221270  21.9169840
  33.5856870 111.2302240  21.3118140  49.6109300 111.6815060  27.3694380
  50.1346780 111.1877710  26.7384550  50.1968720 111.8165420  28.1141950
  49.7899020 111.7654930  30.8913930  48.8401730 111.7318470  31.0058920
  49.9712030 112.6755040  30.6563700  35.6443460 110.0156610  20.0012560
  36.3535160 109.5939830  19.5159840  34.9283400 110.0831840  19.3695910
  35.2917620 106.0695940  19.0415210  36.0145750 106.6104880  19.3596430
  35.5642140 105.7959360  18.1656750  49.1009270 110.9388410  23.3086790
  49.5968390 110.7059280  24.0935670  48.9025340 110.1000250  22.8924430
  34.9809810 105.3202130  28.9437830  35.6286000 104.7699510  28.5032990
  35.4011650 105.5745280  29.7653640  50.5296430 109.5749360  25.8424470
  50.4195710 109.4205400  26.7806740  51.2904020 109.0470300  25.5999880
  48.8762150 105.5143490  32.3007470  49.5134370 106.1277630  32.6666660
  49.0237040 105.5504150  31.3556700  51.4186700 107.4057280  19.0830610
  52.3436010 107.2738460  18.8748900  51.3962490 107.4850100  20.0367060
  51.4925190 108.1767940  21.7087320  50.6976690 108.1113060  22.2380230
  51.6968470 109.1118580  21.6972670  34.7341810 105.4757800  31.6863150
  34.3856630 105.9321620  32.4521330  34.4029510 104.5814930  31.7685580
  42.2466630 106.6669680  35.2082570  42.1855520 107.2591510  35.9577980
  43.1867010 106.5595640  35.0632830  44.8841190 106.3239740  34.8474860
  45.4981600 106.6419030  34.1855940  45.4290750 105.8388330  35.4670720
  35.4062450 105.0034000  34.9613920  35.9545440 104.8222050  34.1980030
  35.4717760 104.2128110  35.4970230  45.6249230 104.8871880  31.1744150
  44.7509070 105.2206990  30.9717080  45.5159980 104.4145060  31.9996020
  46.5321210 107.0942750  32.5585870  46.2034570 106.2794510  32.1787600
  47.4803510 107.0512560  32.4351560  43.3724050 105.8041720  30.1137060
  42.5895840 106.2787220  30.3933820  43.0786980 104.8996550  30.0050240
  47.9245120 106.5064820  28.1586150  48.3653210 106.4509920  27.3107750
  47.6552710 107.4222830  28.2296330  49.7883690 106.1380060  26.1694970
  49.7272090 105.1941280  26.0225990  50.5675720 106.2460150  26.7148430
  34.7164460 106.1089200  22.6350780  35.4743820 106.2218080  22.0614810
  34.2541630 106.9458400  22.5894210  41.2578270 108.2228470  25.6253090
  40.4452780 107.8485360  25.2848970  41.7619910 107.4673550  25.9274280
  45.7603250 104.8870920  26.8636160  46.3632620 105.4591130  27.3384680
  45.0196240 105.4510360  26.6410060  48.9037850 105.2892480  22.1376440
  49.0988480 106.1875930  22.4043870  48.1167720 105.0579560  22.6309390
  37.0889610 106.6353250  21.1752750  37.6182370 105.8483050  21.0460700
  37.7217930 107.3144440  21.4088280  39.2827450 106.3728390  24.2298140
  38.6530190 105.6715700  24.3968270  38.7432590 107.1332520  24.0131300
  39.4083010 105.6512370  36.6650630  39.1267280 106.1545970  35.9011450
  39.7902710 104.8534120  36.2992760  46.0098470 105.0665950  37.2431100
  45.8963920 105.3860560  38.1382620  46.8268210 105.4678460  36.9468380
  44.9156620 113.0858420   7.6065840  44.8350670 112.1713030   7.3357550
  44.5021040 113.5825490   6.9005550  35.4732440 110.1359140   4.1493260
  34.5849140 110.4775110   4.0473140  35.7573630 109.9359460   3.2574090
  33.4365450 112.7364790  10.0332960  34.0081560 111.9686990  10.0336600
  33.4366990 113.0353550   9.1239570  34.6790320 108.1449150  11.8201890
  34.4993160 107.2474900  12.1004650  34.2770400 108.6921020  12.4948840
  43.5188820 110.3465010   9.7214200  43.8953640 109.4736890   9.6087870
  43.4208330 110.6823710   8.8304640  37.6493830 108.7190640   5.1831640
  37.7560580 109.6194370   5.4900400  36.7386190 108.6708610   4.8926290
  47.3012940 107.8415450   6.6542540  48.1222560 107.3512020   6.6968020
  47.3347020 108.4313110   7.4074380  35.2976990 110.6409650  10.4284230
  35.9787100 110.9048020  11.0471630  34.9825040 109.8010520  10.7622240
  39.4901560 111.6877010   9.5156820  39.9979780 112.1857980  10.1561840
  40.0214800 110.9112210   9.3396180  51.5912490 109.8582200  13.2186170
  50.8864660 110.2463910  12.7001280  51.8570410 110.5532490  13.8207100
  37.7737660 106.3275570  13.7820240  37.7756100 106.8447960  12.9766140
  36.9441970 105.8505750  13.7590170  47.5374420 109.7815830   9.4270080
  46.8329990 110.0700720  10.0073190  47.8986580 110.5915940   9.0669640
  37.4552990 108.0385530  11.7890690  37.7969800 108.8827580  11.4944560
  36.5168800 108.1869270  11.9056030  50.6061340 109.2270620   9.8179290
  49.6586250 109.2609600   9.9494720  50.9311330 110.0409570  10.2028650
  41.1380880 105.5267800   8.1135280  41.4455860 104.9714690   7.3970780
  40.2081580 105.6612260   7.9308270  43.5130720 109.8633630   1.8462560
  42.5734390 110.0247590   1.9315020  43.8313980 110.5819310   1.2998550
  46.9985490 111.3321470  12.7696460  46.5856670 112.1575180  13.0236450
  46.2661440 110.7466510  12.5772820  37.8446900 110.8924580  11.4114170
  38.3961490 111.0019920  10.6367420  38.3590410 111.2662180  12.1269400
  35.8322910 113.0126350   5.1321780  35.7120510 113.7388440   4.5203050
  35.5223800 112.2429260   4.6549690  50.5242060 110.3838050  16.6518580
  49.9086330 110.8917720  16.1234040  50.2038480 109.4836380  16.5944520
  38.2986570 106.3561420   8.5145450  37.8554720 107.1370960   8.1829970
  38.8571560 106.6791310   9.2216390  42.5856380 109.2229940  14.1180770
  42.1235750 109.4312960  14.9300710  42.1834490 108.4089290  13.8151440
  47.5860890 110.4438890  15.2477430  46.7354480 110.1444640  15.5686500
  47.4262680 110.6880900  14.3361250  44.6810600 111.9440640  17.3476220
  45.0064010 111.1104390  17.0078450  45.4690930 112.4669160  17.4954550
  41.4145390 105.9772120   3.3951280  40.7899570 105.9731990   4.1204590
  41.3275510 105.1103080   2.9987250  40.3362470 106.9008750  10.3735050
  40.6334800 107.8071580  10.2927070  40.8848030 106.4127530   9.7594620
  38.0900790 111.4794990   6.2426700  37.8641710 111.2632160   7.1473320
  37.3093320 111.9123450   5.8972670  45.3198550 111.4858360   4.8417350
  44.7207440 112.2094160   4.6580970  45.8678160 111.4235140   4.0593800
  40.5300000 112.3780570  16.9086970  40.4343600 111.4375300  16.7587370
  41.3731980 112.5995640  16.5135040  43.9263420 110.1221900   6.8720630
  44.3192990 110.4394100   6.0589320  44.2880270 109.2433780   6.9865150
  35.6610540 108.7894240  15.0620750  35.2673930 109.6369450  15.2693530
  34.9728940 108.1520610  15.2529390  42.2355590 108.8729210  18.1317490
  41.5453910 108.6801410  18.7663580  42.9787890 109.1563850  18.6641790
  32.9627590 106.7122700   9.0950830  32.6740640 107.2825560   9.8075810
  33.7073350 106.2327150   9.4582060  44.5118560 112.7127650  10.9671410
  43.7799680 113.2214460  11.3161510  44.1142900 111.8957630  10.6660190
  40.9495950 109.3881850   9.3723900  40.9532010 108.9471800   8.5228440
  41.8447070 109.7099180   9.4795720  36.7998330 109.2708340   8.3318110
  36.4598380 109.7483570   9.0885160  36.0375650 108.8173460   7.9719210
  41.0116100 110.3893930   2.3630660  41.1328920 110.3480410   3.3116480
  40.6264610 111.2518080   2.2077390  44.9744470 108.1661330  10.3794350
  44.9917210 108.6169980  11.2236200  44.7260050 107.2666970  10.5927790
  48.4015220 105.5793510  16.2180730  48.7260990 104.8483170  16.7438710
  48.4371730 105.2607150  15.3161720  34.1144410 108.1927320   7.2482780
  33.8291330 107.8282990   8.0861400  34.0523270 107.4607780   6.6345920
  39.0403290 112.4892270  13.4373520  38.7360360 113.3684250  13.6623880
  39.9949750 112.5492060  13.4730960  43.7883000 107.0856580   3.9696150
  42.9747610 106.5869750   3.8941460  43.5944950 107.9254830   3.5532500
  46.5031390 111.4576230   2.2658310  47.3911010 111.7693460   2.0909650
  46.4736480 110.5848480   1.8738890  36.6721660 105.0597130   5.8010280
  36.5436290 105.0515030   6.7495200  35.8483680 105.3980220   5.4501290
  33.6715590 106.8188250  15.2616980  32.9574110 107.0185170  15.8669590
  34.0910630 106.0427820  15.6331780  45.1654370 109.3110560  13.0118430
  45.5335190 108.4905770  13.3398000  44.3052570 109.3712450  13.4274080
  48.5316400 108.2667500   3.8205990  47.9029560 108.3713170   3.1064220
  48.0368320 108.4864280   4.6099870  40.5000430 110.5453450   5.2363870
  39.7916580 111.0139790   5.6777480  40.7844910 109.8875460   5.8709060
  42.1256360 111.9650150  13.2356400  42.6241610 112.4395970  13.9008250
  42.2679310 111.0413670  13.4426430  44.5315860 107.2704110   6.6759660
  44.4083640 107.2890240   5.7269170  45.4800420 107.3183050   6.7958060
  38.7035450 108.8538530   2.6114580  39.5525980 109.2908680   2.5454770
  38.3366720 109.1658790   3.4386640  49.3323220 108.1818110  14.0784790
  48.8296820 108.9223510  14.4178600  50.1479880 108.5702110  13.7621580
  47.6245230 113.4251290   7.5246150  46.6835370 113.4401520   7.6993840
  47.9389300 112.6387250   7.9706450  36.2973630 112.5395960   1.7683000
  36.3777220 111.5923470   1.8800400  37.1893380 112.8702840   1.8743660
  35.8567510 112.5040470  17.8989240  35.8972850 112.2054340  18.8074470
  36.7113010 112.9048080  17.7396760  37.7973320 111.0832570  15.8663730
  37.2669780 110.5923520  15.2387070  38.4661390 111.5116770  15.3321660
  47.1673550 112.8898190  17.6344070  47.7494320 112.1350510  17.5464550
  47.3435320 113.4205630  16.8575550  38.2845620 108.0494940  15.9461020
  38.1902490 107.4315690  15.2211890  37.7043010 108.7761230  15.7190930
  41.0507060 106.6068180  12.9788410  40.6024360 106.6292440  12.1333960
  40.4172260 106.2087200  13.5758710  43.7930510 113.2338690  14.9838690
  43.9126720 112.6379830  15.7233530  44.6524510 113.2708380  14.5639990
  40.5599280 109.7760040  16.2414510  41.1498970 109.4675890  16.9292330
  39.7419520 109.3039790  16.3974410  45.3792710 109.3925850  16.4747530
  44.6908230 108.7307390  16.4097520  46.0998730 108.9464120  16.9195990
  46.0093110 105.9877480   2.5337790  46.2895400 105.1445380   2.8897210
  45.2358840 106.2200590   3.0476540  33.8878170 113.7492140   7.3749360
  33.2327010 113.4803780   6.7309060  34.7256120 113.6396620   6.9251340
  50.3358340 113.4557570   5.2943650  49.9601940 112.6885500   4.8624940
  49.6061460 113.8380270   5.7818580  49.7257960 112.6029090  14.9283170
  49.4944050 112.3741840  14.0281120  49.9862510 113.5228640  14.8828060
  34.4770100 111.0453800  15.8211120  33.5826150 111.0120560  16.1604830
  35.0167650 111.2440590  16.5862370  48.1646030 107.8285520  17.7062870
  49.0416210 107.8368920  18.0896870  48.1766870 107.0916360  17.0955220
  33.1016250 110.9591070   3.3174690  32.1980330 111.2221270   3.1426350
  33.5856870 111.2302240   2.5374650  49.6109300 111.6815060   8.5950890
  50.1346780 111.1877710   7.9641060  50.1968720 111.8165420   9.3398460
  49.7899020 111.7654930  12.1170440  48.8401730 111.7318470  12.2315430
  49.9712030 112.6755040  11.8820210  49.1009270 110.9388410   4.5343300
  49.5968390 110.7059280   5.3192180  48.9025340 110.1000250   4.1180940
  34.9809810 105.3202130  10.1694340  35.6286000 104.7699510   9.7289500
  35.4011650 105.5745280  10.9910150  50.5296430 109.5749360   7.0680980
  50.4195710 109.4205400   8.0063250  51.2904020 109.0470300   6.8256390
  48.8762150 105.5143490  13.5263980  49.5134370 106.1277630  13.8923170
  49.0237040 105.5504150  12.5813210  51.4925190 108.1767940   2.9343830
  50.6976690 108.1113060   3.4636740  51.6968470 109.1118580   2.9229180
  34.7341810 105.4757800  12.9119660  34.3856630 105.9321620  13.6777840
  34.4029510 104.5814930  12.9942090  42.2466630 106.6669680  16.4339080
  42.1855520 107.2591510  17.1834490  43.1867010 106.5595640  16.2889340
  44.8841190 106.3239740  16.0731370  45.4981600 106.6419030  15.4112450
  45.4290750 105.8388330  16.6927230  35.4062450 105.0034000  16.1870430
  35.9545440 104.8222050  15.4236540  35.4717760 104.2128110  16.7226740
  45.6249230 104.8871880  12.4000660  44.7509070 105.2206990  12.1973590
  45.5159980 104.4145060  13.2252530  46.5321210 107.0942750  13.7842380
  46.2034570 106.2794510  13.4044110  47.4803510 107.0512560  13.6608070
  43.3724050 105.8041720  11.3393570  42.5895840 106.2787220  11.6190330
  43.0786980 104.8996550  11.2306750  47.9245120 106.5064820   9.3842660
  48.3653210 106.4509920   8.5364260  47.6552710 107.4222830   9.4552840
  49.7883690 106.1380060   7.3951480  49.7272090 105.1941280   7.2482500
  50.5675720 106.2460150   7.9404940  34.7164460 106.1089200   3.8607290
  35.4743820 106.2218080   3.2871320  34.2541630 106.9458400   3.8150720
  41.2578270 108.2228470   6.8509600  40.4452780 107.8485360   6.5105480
  41.7619910 107.4673550   7.1530790  45.7603250 104.8870920   8.0892670
  46.3632620 105.4591130   8.5641190  45.0196240 105.4510360   7.8666570
  48.9037850 105.2892480   3.3632950  49.0988480 106.1875930   3.6300380
  48.1167720 105.0579560   3.8565900  37.0889610 106.6353250   2.4009260
  37.6182370 105.8483050   2.2717210  37.7217930 107.3144440   2.6344790
  39.2827450 106.3728390   5.4554650  38.6530190 105.6715700   5.6224780
  38.7432590 107.1332520   5.2387810  39.4083010 105.6512370  17.8907140
  39.1267280 106.1545970  17.1267960  39.7902710 104.8534120  17.5249270
  46.0098470 105.0665950  18.4687610  45.8963920 105.3860560  19.3639130
  46.8268210 105.4678460  18.1724890  44.9156620  94.3114930 101.4783290
  44.8350670  93.3969540 101.2075000  44.5021040  94.8082000 100.7723000
  43.0474660  96.0893950 103.3592560  42.2716760  95.6094390 103.6491130
  43.6987590  95.4099600 103.1848720  37.0640490  96.4013760 104.2368320
  36.2325370  96.1462470 104.6364830  37.6721470  96.4724530 104.9726240
  47.0682090 100.4954140 102.1391690  46.6063620  99.7241380 102.4678860
  47.8807640 100.5220210 102.6444140  37.0441750 100.4353850 104.4326340
  37.3469790  99.5451590 104.2536560  37.7885340 100.9924070 104.2048590
  35.4732440  91.3615650  98.0210710  34.5849140  91.7031620  97.9190590
  35.7573630  91.1615970  97.1291540  33.4365450  93.9621300 103.9050410
  34.0081560  93.1943500 103.9054050  33.4366990  94.2610060 102.9957020
  43.2945400 102.7812150 101.7595680  42.6756840 103.2369650 101.1890120
  44.1497180 102.9363610 101.3585380  42.4883650  98.7651140 103.3662720
  42.4191930  97.8241080 103.2051850  43.2503510  98.8552550 103.9385290
  34.6790320  89.3705660 105.6919340  34.4993160  88.4731410 105.9722100
  34.2770400  89.9177530 106.3666290  43.5188820  91.5721520 103.5931650
  43.8953640  90.6993400 103.4805320  43.4208330  91.9080220 102.7022090
  37.6493830  89.9447150  99.0549090  37.7560580  90.8450880  99.3617850
  36.7386190  89.8965120  98.7643740  47.3012940  89.0671960 100.5259990
  48.1222560  88.5768530 100.5685470  47.3347020  89.6569620 101.2791830
  35.2976990  91.8666160 104.3001680  35.9787100  92.1304530 104.9189080
  34.9825040  91.0267030 104.6339690  39.4901560  92.9133520 103.3874270
  39.9979780  93.4114490 104.0279290  40.0214800  92.1368720 103.2113630
  51.5912490  91.0838710 107.0903620  50.8864660  91.4720420 106.5718730
  51.8570410  91.7789000 107.6924550  37.7737660  87.5532080 107.6537690
  37.7756100  88.0704470 106.8483590  36.9441970  87.0762260 107.6307620
  44.1608750  97.6651390  99.1527590  43.5426020  98.1300840  98.5890310
  44.6732000  98.3578870  99.5697100  39.0240510  97.1927260 105.8311190
  38.6909890  97.8196180 106.4732260  39.2007190  97.7189140 105.0512860
  47.5374420  91.0072340 103.2987530  46.8329990  91.2957230 103.8790640
  47.8986580  91.8172450 102.9387090  37.4552990  89.2642040 105.6608140
  37.7969800  90.1084090 105.3662010  36.5168800  89.4125780 105.7773480
  38.2359610  99.1608060 107.6460370  38.8533610  99.8359140 107.3644820
  37.3752730  99.5696040 107.5547870  33.5291950  98.3507920  96.5267220
  33.1519930  98.8395020  95.7952120  33.7865020  99.0233200  97.1573750
  49.1537200 100.6247470 105.5615010  48.4700720 101.2946580 105.5531680
  49.6931490 100.8228120 104.7959870  50.6061340  90.4527130 103.6896740
  49.6586250  90.4866110 103.8212170  50.9311330  91.2666080 104.0746100
  41.1380880  86.7524310 101.9852730  41.4455860  86.1971200 101.2688230
  40.2081580  86.8868770 101.8025720  46.6895940 102.4691600 104.2760190
  46.7023100 102.0653890 103.4082450  46.1371160 103.2438890 104.1721620
  47.9841360  99.1907820  99.3650360  47.8737690  98.2482150  99.4899780
  47.9809610  99.5523460 100.2513120  46.0881380  97.3721440 105.6042800
  46.5050170  97.1581550 104.7696260  46.8121200  97.6294230 106.1751420
  43.5261640  94.8173140  98.7212850  42.5990920  94.7510520  98.9501320
  43.6786460  95.7553270  98.6068090  43.5130720  91.0890140  95.7180010
  42.5734390  91.2504100  95.8032470  43.8313980  91.8075820  95.1716000
  50.0343480  95.7708660 105.6959040  49.2062110  95.8401750 105.2209170
  50.6293960  96.3562970 105.2274870  47.5558930  96.3793440  99.2248100
  46.9371350  96.0412990  98.5774400  47.5383380  95.7353200  99.9327290
  46.9985490  92.5577980 106.6413910  46.5856670  93.3831690 106.8953900
  46.2661440  91.9723020 106.4490270  39.1318280  95.3437880 101.5032580
  38.7275280  94.6315130 101.0078480  39.2181400  94.9991120 102.3920620
  39.5999980  99.0305440 103.6671790  39.3028270  98.4250910 102.9879570
  40.5499800  99.0682750 103.5561150  37.8446900  92.1181090 105.2831620
  38.3961490  92.2276430 104.5084870  38.3590410  92.4918690 105.9986850
  47.6885590 102.6037310 107.3294890  47.2116150 103.4109500 107.1367500
  47.0047380 101.9515640 107.4821100  38.6918410  98.7687130 110.3179590
  37.7946940  98.9927100 110.5652990  38.7171280  98.8922070 109.3690990
  45.7323630  95.6180250  96.2320850  46.1716910  94.7802680  96.0858670
  46.4452050  96.2509650  96.3184990  37.5189630  95.6400450 108.8936960
  37.3797400  96.5123250 109.2624360  36.6370990  95.2973260 108.7484900
  43.8419010 100.5576320 100.2002090  44.2814920 101.3000650  99.7857480
  43.7805900 100.8002890 101.1241050  49.3140770  86.8723060  94.5461890
  49.0013430  86.9649890  95.4460960  50.0753240  87.4504090  94.4959320
  35.8322910  94.2382860  99.0039230  35.7120510  94.9644950  98.3920500
  35.5223800  93.4685770  98.5267140  33.4708280  97.4098000 104.8107870
  33.5488700  97.5446770 103.8663590  34.0849960  96.7013890 105.0035990
  34.7155910  99.1098190 101.2214050  34.3083990  99.2512780 100.3667650
  35.6068920  98.8258350 101.0185260  50.6718050  99.5562100 109.5586290
  50.7981110  99.3173980 108.6403470  50.7139430  98.7246640 110.0308370
  44.5334790 103.2590100 108.1281100  45.0479460 103.1698110 108.9303530
  43.6903870 103.6049800 108.4209010  46.5089190 103.5445440  97.5565100
  46.3490330 103.2548380  98.4546930  46.3435900 102.7685570  97.0210330
  38.9877570 103.3243970  99.3336720  38.8120050 102.4079510  99.1204520
  38.1333310 103.6831260  99.5734520  46.2115320 101.0533000  96.1163100
  45.5180480 101.0510290  95.4565380  46.9538180 100.6292320  95.6857270
  45.7765250 102.6795710 100.1911590  46.2322200 101.8985090 100.5050210
  46.1157770 103.3902530 100.7352770  50.5242060  91.6094560 110.5236030
  49.9086330  92.1174230 109.9951490  50.2038480  90.7092890 110.4661970
  33.5267800  98.4512170 107.3502330  33.6898840  97.9817530 106.5321700
  33.9920250  97.9435730 108.0151170  38.2986570  87.5817930 102.3862900
  37.8554720  88.3627470 102.0547420  38.8571560  87.9047820 103.0933840
  42.5856380  90.4486450 107.9898220  42.1235750  90.6569470 108.8018160
  42.1834490  89.6345800 107.6868890  47.5860890  91.6695400 109.1194880
  46.7354480  91.3701150 109.4403950  47.4262680  91.9137410 108.2078700
  41.4145390  87.2028630  97.2668730  40.7899570  87.1988500  97.9922040
  41.3275510  86.3359590  96.8704700  40.3362470  88.1265260 104.2452500
  40.6334800  89.0328090 104.1644520  40.8848030  87.6384040 103.6312070
  38.0900790  92.7051500 100.1144150  37.8641710  92.4888670 101.0190770
  37.3093320  93.1379960  99.7690120  45.3198550  92.7114870  98.7134800
  44.7207440  93.4350670  98.5298420  45.8678160  92.6491650  97.9311250
  40.5300000  93.6037080 110.7804420  40.4343600  92.6631810 110.6304820
  41.3731980  93.8252150 110.3852490  43.9263420  91.3478410 100.7438080
  44.3192990  91.6650610  99.9306770  44.2880270  90.4690290 100.8582600
  35.6610540  90.0150750 108.9338200  35.2673930  90.8625960 109.1410980
  34.9728940  89.3777120 109.1246840  32.9627590  87.9379210 102.9668280
  32.6740640  88.5082070 103.6793260  33.7073350  87.4583660 103.3299510
  33.1497820  91.8799330  94.1771000  33.0672490  92.8230090  94.3185990
  32.7980880  91.7374240  93.2983350  44.5118560  93.9384160 104.8388860
  43.7799680  94.4470970 105.1878960  44.1142900  93.1214140 104.5377640
  40.9495950  90.6138360 103.2441350  40.9532010  90.1728310 102.3945890
  41.8447070  90.9355690 103.3513170  36.7998330  90.4964850 102.2035560
  36.4598380  90.9740080 102.9602610  36.0375650  90.0429970 101.8436660
  41.0116100  91.6150440  96.2348110  41.1328920  91.5736920  97.1833930
  40.6264610  92.4774590  96.0794840  44.9744470  89.3917840 104.2511800
  44.9917210  89.8426490 105.0953650  44.7260050  88.4923480 104.4645240
  40.0237600  93.9251580  95.6331410  39.4554500  93.4769830  95.0067320
  40.7326600  94.2844360  95.0996560  48.4015220  86.8050020 110.0898180
  48.7260990  86.0739680 110.6156160  48.4371730  86.4863660 109.1879170
  35.1006780  97.8263600 109.5098140  34.7161570  97.1857270 110.1081100
  35.4118970  98.5299720 110.0792870  41.2503920  94.6740140 104.9906760
  41.6174050  94.1998710 105.7368100  41.0608980  95.5481710 105.3315100
  34.1144410  89.4183830 101.1200230  33.8291330  89.0539500 101.9578850
  34.0523270  88.6864290 100.5063370  39.0403290  93.7148780 107.3090970
  38.7360360  94.5940760 107.5341330  39.9949750  93.7748570 107.3448410
  37.5685080  97.9209770  97.9057820  36.7947340  97.3807390  97.7456540
  38.2979710  97.4016380  97.5675580  48.3273060  96.9175130 103.6984210
  49.0472180  97.4130420 103.3080320  48.1254880  96.2393020 103.0538080
  43.7883000  88.3113090  97.8413600  42.9747610  87.8126260  97.7658910
  43.5944950  89.1511340  97.4249950  43.7091860  96.9884190 109.5853210
  43.6429170  96.0679860 109.3310800  43.0797000  97.0859630 110.2997850
  46.5031390  92.6832740  96.1375760  47.3911010  92.9949970  95.9627100
  46.4736480  91.8104990  95.7456340  37.6122480  97.5890150 101.5436630
  38.1301150  96.7858410 101.4893520  37.1606500  97.5269290 102.3853460
  42.4991980  98.8556430  96.8163930  42.8407680  99.5998660  96.3207250
  41.6704690  99.1687550  97.1788760  35.0967020  94.5551520 108.4562330
  34.7381960  95.2205370 109.0435670  34.8021580  93.7235070 108.8274950
  43.6408590  99.8104760 109.3357010  43.6553130  98.8785720 109.1175920
  42.9333690  99.8964520 109.9746780  48.7745660  93.9944580  95.6055620
  48.6909380  94.4258800  94.7552060  49.4939850  94.4542930  96.0382440
  49.8519800  96.4512100 108.6825590  49.1267990  97.0440880 108.4854980
  50.3795260  96.4435640 107.8838960  49.8032910 100.8486840  98.3337750
  49.1609070 100.1942460  98.6081470  49.4163570 101.2541930  97.5578420
  45.3819390  98.1772270 102.1809440  45.7343210  97.5800400 101.5210810
  44.4981720  97.8516500 102.3517690  41.4682670  98.9369960  99.5879850
  42.1553800  99.4839170  99.9687440  40.6815090  99.4810690  99.6229460
  33.6075070  94.5542780  95.0796930  34.4769920  94.8367580  95.3632850
  33.1165390  95.3678650  94.9645740  40.7709880  95.9415990  99.2005210
  41.2272660  96.7521240  99.4265400  40.4198090  95.6239130 100.0323700
  43.0742490 101.4522330 106.4297510  43.7184710 101.6581710 107.1070930
  43.4371930 100.6910730 105.9768360  36.6721660  86.2853640  99.6727730
  36.5436290  86.2771540 100.6212650  35.8483680  86.6236730  99.3218740
  44.3474570  99.4554680 105.1474960  44.9896800  98.7547840 105.2607130
  44.8723920 100.2353120 104.9671850  48.1930290  99.7403300  94.8714100
  47.9667870  99.0233740  95.4638740  47.8026490  99.4915740  94.0335850
  46.1212190 100.2549580 108.3511020  46.4568430 100.8416270 109.0288940
  45.2012530 100.1242290 108.5808810  33.9746320 103.7670160  95.6458560
  34.3343960 104.3659500  94.9915830  33.8338660 104.3130050  96.4193590
  33.6715590  88.0444760 109.1334430  32.9574110  88.2441680 109.7387040
  34.0910630  87.2684330 109.5049230  47.7746540  97.6575240  96.5328260
  47.4868240  98.1187930  97.3206140  48.5698710  97.1973010  96.8012480
  33.9588180 102.0325020 110.1200960  34.0679300 101.0919760 109.9796350
  33.3068740 102.2979770 109.4714690  39.9914940 101.1501360  96.4632230
  39.9825040 101.8831050  95.8476740  39.0713300 100.9032940  96.5559190
  35.5921580  96.3716250  97.2078990  34.9849530  97.1115150  97.2174290
  36.0670930  96.4615610  96.3817190  45.1654370  90.5367070 106.8835880
  45.5335190  89.7162280 107.2115450  44.3052570  90.5968960 107.2991530
  48.5316400  89.4924010  97.6923440  47.9029560  89.5969680  96.9781670
  48.0368320  89.7120790  98.4817320  42.9774540 101.2129600  95.1257420
  43.0786520 101.0093590  94.1959400  42.0776280 100.9587880  95.3305200
  40.5000430  91.7709960  99.1081320  39.7916580  92.2396300  99.5494930
  40.7844910  91.1131970  99.7426510  42.1256360  93.1906660 107.1073850
  42.6241610  93.6652480 107.7725700  42.2679310  92.2670180 107.3143880
  44.5315860  88.4960620 100.5477110  44.4083640  88.5146750  99.5986620
  45.4800420  88.5439560 100.6675510  41.6192650 103.7315920  99.8205090
  41.8734150 103.6937310  98.8984460  40.6705130 103.6049250  99.8133340
  38.7035450  90.0795040  96.4832030  39.5525980  90.5165190  96.4172220
  38.3366720  90.3915300  97.3104090  49.3323220  89.4074620 107.9502240
  48.8296820  90.1480020 108.2896050  50.1479880  89.7958620 107.6339030
  47.6245230  94.6507800 101.3963600  46.6835370  94.6658030 101.5711290
  47.9389300  93.8643760 101.8423900  37.6026870  96.3327400  94.9567560
  38.3690140  96.2208760  95.5192990  37.6801560  95.6365370  94.3044330
  36.2973630  93.7652470  95.6400450  36.3777220  92.8179980  95.7517850
  37.1893380  94.0959350  95.7461110  49.6270810 101.8216650 103.0717860
  49.7518230 102.6447820 103.5441670  50.4936370 101.6107380 102.7242010
  37.0988340 103.9147860 102.7434990  37.8350820 103.3663320 103.0143560
  37.4829260 104.7803870 102.6040980  33.9833820  99.9821430  98.6176500
  33.0573600 100.2242570  98.6081910  34.4490250 100.8095690  98.4961250
  40.2090650 103.0878170  94.5660560  41.0019260 103.3767000  94.1142350
  39.6895000 102.6570340  93.8873040  49.2620820 102.3148300  95.9897300
  48.9762330 101.9013440  95.1751480  49.0640370 103.2436010  95.8697820
  40.7268050  98.3081580  94.4302910  40.6218690  97.6933930  95.1564290
  40.5592270  97.7847470  93.6465920  40.8782370  96.9938380 110.4092140
  40.1128040  97.5623380 110.3246810  41.0598330  96.7014590 109.5160370
  43.9670780  97.3701610  95.0344900  43.4180880  97.8170910  95.6787640
  44.5890040  96.8650860  95.5582570  48.0205720  98.7243710 110.9667160
  48.7615190  99.0619470 110.4634620  47.2578400  98.8935770 110.4136930
  39.6345900  96.3292530  96.9310200  40.0562320  96.1632400  97.7741590
  39.7596740  95.5192760  96.4365340  37.7973320  92.3089080 109.7381180
  37.2669780  91.8180030 109.1104520  38.4661390  92.7373280 109.2039110
  42.1473540  95.3530140  94.1787300  42.6679200  94.6379160  93.8128450
  42.7941940  95.9916010  94.4787810  46.6951380  96.7758540 109.5022370
  47.1092400  96.9303620 110.3512790  45.7602380  96.9013760 109.6648150
  38.2845620  89.2751450 109.8178470  38.1902490  88.6572200 109.0929340
  37.7043010  90.0017740 109.5908380  41.0507060  87.8324690 106.8505860
  40.6024360  87.8548950 106.0051410  40.4172260  87.4343710 107.4476160
  41.4566610  96.7279020 107.4718300  41.8754720  97.5711750 107.2994540
  40.5375240  96.8651060 107.2425080  43.7930510  94.4595200 108.8556140
  43.9126720  93.8636340 109.5950980  44.6524510  94.4964890 108.4357440
  46.1318410  95.0132390 107.4318650  45.6053630  95.5375010 106.8283790
  46.4749750  95.6459780 108.0628380  38.5304800  92.4025760  93.8768360
  38.3293860  91.5393120  94.2381700  38.3596850  92.3159120  92.9389960
  39.3074030 103.0332030 108.5876030  38.7695120 103.7578090 108.2684730
  39.5607990 102.5562370 107.7973370  40.5599280  91.0016550 110.1131960
  41.1498970  90.6932400 110.8009780  39.7419520  90.5296300 110.2691860
  45.3792710  90.6182360 110.3464980  44.6908230  89.9563900 110.2814970
  46.0998730  90.1720630 110.7913440  46.0093110  87.2133990  96.4055240
  46.2895400  86.3701890  96.7614660  45.2358840  87.4457100  96.9193990
  37.3287600  89.5026380  93.8646240  37.6313500  89.5093810  92.9565390
  38.0682190  89.1524240  94.3613900  42.1636240 104.2683240 108.8462680
  42.0894940 105.1718380 109.1535050  41.2615080 103.9495140 108.8184750
  40.5472530  88.4461000  94.8502440  40.1994530  87.7684990  94.2704890
  40.7485300  87.9850510  95.6645830  42.7121570 103.4341750  96.4689040
  43.6072360 103.7726720  96.4907800  42.7439200 102.7121160  95.8413320
  36.3517730  98.8068800  94.6976040  36.7892600  99.3498470  95.3533620
  36.8365460  97.9815750  94.7072380  33.5663530 101.5957830 102.1496300
  33.8966540 100.7278890 101.9174940  33.9954530 101.8016350 102.9801260
  38.1625450  99.9266840  99.8098270  37.8620990  99.8031810 100.7102180
  38.0562940  99.0675430  99.4014000  34.0553740 102.4628420 104.8877930
  33.6184730 102.6429220 105.7202080  34.6231420 103.2203040 104.7459650
  49.6915920 101.9645420 109.1755240  49.0917910 102.0237980 108.4319160
  49.8209820 101.0250400 109.3052090  50.9317370  99.7063240  94.5124950
  50.1010330  99.7739890  94.9832180  51.1089200 100.5967360  94.2091810
  50.3873830  96.4510720  97.0159150  51.1492740  97.0207370  97.1218840
  50.4028200  95.8837920  97.7867460  33.8878170  94.9748650 101.2466810
  33.2327010  94.7060290 100.6026510  34.7256120  94.8653130 100.7968790
  51.3933800  97.3060820 101.8601080  51.7642630  96.5228140 101.4537050
  52.0335730  97.9949920 101.6818380  48.3767560  98.6897400 107.2731400
  47.5627400  99.1194560 107.5357190  48.7841760  99.3015810 106.6600450
  50.4393000  96.7445090  94.1731670  50.7141840  97.6523970  94.0450890
  50.2503740  96.6807620  95.1093660  46.8368610  89.7689940  95.4685300
  47.2553490  89.5820920  94.6281960  46.5304670  88.9168990  95.7788230
  50.3358340  94.6814080  99.1661100  49.9601940  93.9142010  98.7342390
  49.6061460  95.0636780  99.6536030  34.9254100  95.3601220 105.7870150
  35.2927140  95.2728620 106.6666170  34.3564920  94.5967770 105.6877010
  49.7257960  93.8285600 108.8000620  49.4944050  93.5998350 107.8998570
  49.9862510  94.7485150 108.7545510  34.4770100  92.2710310 109.6928570
  33.5826150  92.2377070 110.0322280  35.0167650  92.4697100 110.4579820
  33.1016250  92.1847580  97.1892140  32.1980330  92.4477780  97.0143800
  33.5856870  92.4558750  96.4092100  49.6109300  92.9071570 102.4668340
  50.1346780  92.4134220 101.8358510  50.1968720  93.0421930 103.2115910
  49.7899020  92.9911440 105.9887890  48.8401730  92.9574980 106.1032880
  49.9712030  93.9011550 105.7537660  35.6443460  91.2413120  95.0986520
  36.3535160  90.8196340  94.6133800  34.9283400  91.3088350  94.4669870
  35.2917620  87.2952450  94.1389170  36.0145750  87.8361390  94.4570390
  35.5642140  87.0215870  93.2630710  49.1009270  92.1644920  98.4060750
  49.5968390  91.9315790  99.1909630  48.9025340  91.3256760  97.9898390
  34.9809810  86.5458640 104.0411790  35.6286000  85.9956020 103.6006950
  35.4011650  86.8001790 104.8627600  50.5296430  90.8005870 100.9398430
  50.4195710  90.6461910 101.8780700  51.2904020  90.2726810 100.6973840
  48.8762150  86.7400000 107.3981430  49.5134370  87.3534140 107.7640620
  49.0237040  86.7760660 106.4530660  51.4186700  88.6313790  94.1804570
  52.3436010  88.4994970  93.9722860  51.3962490  88.7106610  95.1341020
  51.4925190  89.4024450  96.8061280  50.6976690  89.3369570  97.3354190
  51.6968470  90.3375090  96.7946630  48.4343610 103.4416000 100.7999670
  49.0302680 103.1200570 100.1234090  48.6921760 102.9687820 101.5912940
  34.7341810  86.7014310 106.7837110  34.3856630  87.1578130 107.5495290
  34.4029510  85.8071440 106.8659540  40.0412210 101.4293500 106.5500020
  39.8003570 101.6968060 105.6630540  40.9814850 101.5999230 106.6050880
  44.8841190  87.5496250 109.9448820  45.4981600  87.8675540 109.2829900
  45.4290750  87.0644840 110.5644680  51.3016370 103.4487880 107.3510660
  50.8074650 103.8456750 106.6337790  50.6929660 102.8237090 107.7447940
  35.4062450  86.2290510 110.0587880  35.9545440  86.0478560 109.2953990
  35.4717760  85.4384620 110.5944190  36.1794210 102.8196160 108.0688080
  35.5854530 102.6880860 108.8078120  36.1718050 101.9834300 107.6030180
  45.6249230  86.1128390 106.2718110  44.7509070  86.4463500 106.0691040
  45.5159980  85.6401570 107.0969980  46.5321210  88.3199260 107.6559830
  46.2034570  87.5051020 107.2761560  47.4803510  88.2769070 107.5325520
  48.9855820 104.0911300 104.6297400  48.5258790 104.8427110 104.2555420
  48.3568280 103.3717770 104.5712200  35.8106440 100.1854540 107.0196120
  35.0840500  99.5659830 106.9522070  35.8715590 100.5795150 106.1494200
  39.4151540 102.3999540 103.8045530  39.9316560 101.7886900 103.2793790
  40.0648920 102.9028320 104.2956540  42.1547040 103.2908030 104.6314510
  42.4424850 103.0362330 103.7547520  42.6670260 102.7385390 105.2220080
  43.3724050  87.0298230 105.2111020  42.5895840  87.5043730 105.4907780
  43.0786980  86.1253060 105.1024200  47.9245120  87.7321330 103.2560110
  48.3653210  87.6766430 102.4081710  47.6552710  88.6479340 103.3270290
  49.7883690  87.3636570 101.2668930  49.7272090  86.4197790 101.1199950
  50.5675720  87.4716660 101.8122390  34.0936440 103.5028930 100.2292880
  33.9258480 102.8699610 100.9274770  33.2270950 103.7088330  99.8787070
  34.7164460  87.3345710  97.7324740  35.4743820  87.4474590  97.1588770
  34.2541630  88.1714910  97.6868170  41.2578270  89.4484980 100.7227050
  40.4452780  89.0741870 100.3822930  41.7619910  88.6930060 101.0248240
  45.7603250  86.1127430 101.9610120  46.3632620  86.6847640 102.4358640
  45.0196240  86.6766870 101.7384020  48.9037850  86.5148990  97.2350400
  49.0988480  87.4132440  97.5017830  48.1167720  86.2836070  97.7283350
  35.6999140 102.1962160  97.6743020  35.1746760 102.5770190  96.9704980
  35.6243720 102.8212930  98.3952730  37.0889610  87.8609760  96.2726710
  37.6182370  87.0739560  96.1434660  37.7217930  88.5400950  96.5062240
  39.2827450  87.5984900  99.3272100  38.6530190  86.8972210  99.4942230
  38.7432590  88.3589030  99.1105260  50.4564460 103.7549700  98.9956960
  50.6316650 103.0687440  98.3517880  49.7586030 104.2796750  98.6033630
  38.2992110 104.1444540  96.5492270  39.0310930 103.8603820  96.0016160
  38.5585780 103.9057820  97.4391650  37.4606900 100.2609270  96.5538600
  36.8315780 100.7294370  97.1024430  37.5754730  99.4158490  96.9884790
  44.9156620  94.3114930  82.7039800  44.8350670  93.3969540  82.4331510
  44.5021040  94.8082000  81.9979510  43.0474660  96.0893950  84.5849070
  42.2716760  95.6094390  84.8747640  43.6987590  95.4099600  84.4105230
  37.0640490  96.4013760  85.4624830  36.2325370  96.1462470  85.8621340
  37.6721470  96.4724530  86.1982750  47.0682090 100.4954140  83.3648200
  46.6063620  99.7241380  83.6935370  47.8807640 100.5220210  83.8700650
  37.0441750 100.4353850  85.6582850  37.3469790  99.5451590  85.4793070
  37.7885340 100.9924070  85.4305100  35.4732440  91.3615650  79.2467220
  34.5849140  91.7031620  79.1447100  35.7573630  91.1615970  78.3548050
  33.4365450  93.9621300  85.1306920  34.0081560  93.1943500  85.1310560
  33.4366990  94.2610060  84.2213530  43.2945400 102.7812150  82.9852190
  42.6756840 103.2369650  82.4146630  44.1497180 102.9363610  82.5841890
  42.4883650  98.7651140  84.5919230  42.4191930  97.8241080  84.4308360
  43.2503510  98.8552550  85.1641800  34.6790320  89.3705660  86.9175850
  34.4993160  88.4731410  87.1978610  34.2770400  89.9177530  87.5922800
  43.5188820  91.5721520  84.8188160  43.8953640  90.6993400  84.7061830
  43.4208330  91.9080220  83.9278600  37.6493830  89.9447150  80.2805600
  37.7560580  90.8450880  80.5874360  36.7386190  89.8965120  79.9900250
  47.3012940  89.0671960  81.7516500  48.1222560  88.5768530  81.7941980
  47.3347020  89.6569620  82.5048340  35.2976990  91.8666160  85.5258190
  35.9787100  92.1304530  86.1445590  34.9825040  91.0267030  85.8596200
  39.4901560  92.9133520  84.6130780  39.9979780  93.4114490  85.2535800
  40.0214800  92.1368720  84.4370140  51.5912490  91.0838710  88.3160130
  50.8864660  91.4720420  87.7975240  51.8570410  91.7789000  88.9181060
  37.7737660  87.5532080  88.8794200  37.7756100  88.0704470  88.0740100
  36.9441970  87.0762260  88.8564130  44.1608750  97.6651390  80.3784100
  43.5426020  98.1300840  79.8146820  44.6732000  98.3578870  80.7953610
  39.0240510  97.1927260  87.0567700  38.6909890  97.8196180  87.6988770
  39.2007190  97.7189140  86.2769370  47.5374420  91.0072340  84.5244040
  46.8329990  91.2957230  85.1047150  47.8986580  91.8172450  84.1643600
  37.4552990  89.2642040  86.8864650  37.7969800  90.1084090  86.5918520
  36.5168800  89.4125780  87.0029990  38.2359610  99.1608060  88.8716880
  38.8533610  99.8359140  88.5901330  37.3752730  99.5696040  88.7804380
  33.5291950  98.3507920  77.7523730  33.1519930  98.8395020  77.0208630
  33.7865020  99.0233200  78.3830260  49.1537200 100.6247470  86.7871520
  48.4700720 101.2946580  86.7788190  49.6931490 100.8228120  86.0216380
  50.6061340  90.4527130  84.9153250  49.6586250  90.4866110  85.0468680
  50.9311330  91.2666080  85.3002610  41.1380880  86.7524310  83.2109240
  41.4455860  86.1971200  82.4944740  40.2081580  86.8868770  83.0282230
  46.6895940 102.4691600  85.5016700  46.7023100 102.0653890  84.6338960
  46.1371160 103.2438890  85.3978130  47.9841360  99.1907820  80.5906870
  47.8737690  98.2482150  80.7156290  47.9809610  99.5523460  81.4769630
  46.0881380  97.3721440  86.8299310  46.5050170  97.1581550  85.9952770
  46.8121200  97.6294230  87.4007930  43.5261640  94.8173140  79.9469360
  42.5990920  94.7510520  80.1757830  43.6786460  95.7553270  79.8324600
  43.5130720  91.0890140  76.9436520  42.5734390  91.2504100  77.0288980
  43.8313980  91.8075820  76.3972510  50.0343480  95.7708660  86.9215550
  49.2062110  95.8401750  86.4465680  50.6293960  96.3562970  86.4531380
  47.5558930  96.3793440  80.4504610  46.9371350  96.0412990  79.8030910
  47.5383380  95.7353200  81.1583800  46.9985490  92.5577980  87.8670420
  46.5856670  93.3831690  88.1210410  46.2661440  91.9723020  87.6746780
  39.1318280  95.3437880  82.7289090  38.7275280  94.6315130  82.2334990
  39.2181400  94.9991120  83.6177130  39.5999980  99.0305440  84.8928300
  39.3028270  98.4250910  84.2136080  40.5499800  99.0682750  84.7817660
  37.8446900  92.1181090  86.5088130  38.3961490  92.2276430  85.7341380
  38.3590410  92.4918690  87.2243360  47.6885590 102.6037310  88.5551400
  47.2116150 103.4109500  88.3624010  47.0047380 101.9515640  88.7077610
  38.6918410  98.7687130  91.5436100  37.7946940  98.9927100  91.7909500
  38.7171280  98.8922070  90.5947500  45.7323630  95.6180250  77.4577360
  46.1716910  94.7802680  77.3115180  46.4452050  96.2509650  77.5441500
  37.5189630  95.6400450  90.1193470  37.3797400  96.5123250  90.4880870
  36.6370990  95.2973260  89.9741410  43.8419010 100.5576320  81.4258600
  44.2814920 101.3000650  81.0113990  43.7805900 100.8002890  82.3497560
  39.3169980 101.5822150  92.3278620  39.2885410 101.9865100  91.4607050
  39.1534950 100.6532510  92.1650220  35.8322910  94.2382860  80.2295740
  35.7120510  94.9644950  79.6177010  35.5223800  93.4685770  79.7523650
  51.2684800 102.3649250  93.6242790  51.7444520 102.8432140  94.3031870
  51.8891960 102.2966740  92.8988290  33.4708280  97.4098000  86.0364380
  33.5488700  97.5446770  85.0920100  34.0849960  96.7013890  86.2292500
  34.7155910  99.1098190  82.4470560  34.3083990  99.2512780  81.5924160
  35.6068920  98.8258350  82.2441770  50.6718050  99.5562100  90.7842800
  50.7981110  99.3173980  89.8659980  50.7139430  98.7246640  91.2564880
  44.5334790 103.2590100  89.3537610  45.0479460 103.1698110  90.1560040
  43.6903870 103.6049800  89.6465520  46.5089190 103.5445440  78.7821610
  46.3490330 103.2548380  79.6803440  46.3435900 102.7685570  78.2466840
  38.9877570 103.3243970  80.5593230  38.8120050 102.4079510  80.3461030
  38.1333310 103.6831260  80.7991030  46.2115320 101.0533000  77.3419610
  45.5180480 101.0510290  76.6821890  46.9538180 100.6292320  76.9113780
  45.7765250 102.6795710  81.4168100  46.2322200 101.8985090  81.7306720
  46.1157770 103.3902530  81.9609280  50.5242060  91.6094560  91.7492540
  49.9086330  92.1174230  91.2208000  50.2038480  90.7092890  91.6918480
  33.5267800  98.4512170  88.5758840  33.6898840  97.9817530  87.7578210
  33.9920250  97.9435730  89.2407680  38.2986570  87.5817930  83.6119410
  37.8554720  88.3627470  83.2803930  38.8571560  87.9047820  84.3190350
  42.5856380  90.4486450  89.2154730  42.1235750  90.6569470  90.0274670
  42.1834490  89.6345800  88.9125400  47.5860890  91.6695400  90.3451390
  46.7354480  91.3701150  90.6660460  47.4262680  91.9137410  89.4335210
  44.6810600  93.1697150  92.4450180  45.0064010  92.3360900  92.1052410
  45.4690930  93.6925670  92.5928510  41.4145390  87.2028630  78.4925240
  40.7899570  87.1988500  79.2178550  41.3275510  86.3359590  78.0961210
  40.3362470  88.1265260  85.4709010  40.6334800  89.0328090  85.3901030
  40.8848030  87.6384040  84.8568580  38.0900790  92.7051500  81.3400660
  37.8641710  92.4888670  82.2447280  37.3093320  93.1379960  80.9946630
  45.3198550  92.7114870  79.9391310  44.7207440  93.4350670  79.7554930
  45.8678160  92.6491650  79.1567760  40.5300000  93.6037080  92.0060930
  40.4343600  92.6631810  91.8561330  41.3731980  93.8252150  91.6109000
  43.9263420  91.3478410  81.9694590  44.3192990  91.6650610  81.1563280
  44.2880270  90.4690290  82.0839110  35.6610540  90.0150750  90.1594710
  35.2673930  90.8625960  90.3667490  34.9728940  89.3777120  90.3503350
  42.2355590  90.0985720  93.2291450  41.5453910  89.9057920  93.8637540
  42.9787890  90.3820360  93.7615750  32.9627590  87.9379210  84.1924790
  32.6740640  88.5082070  84.9049770  33.7073350  87.4583660  84.5556020
  33.1497820  91.8799330  75.4027510  33.0672490  92.8230090  75.5442500
  32.7980880  91.7374240  74.5239860  44.5118560  93.9384160  86.0645370
  43.7799680  94.4470970  86.4135470  44.1142900  93.1214140  85.7634150
  40.9495950  90.6138360  84.4697860  40.9532010  90.1728310  83.6202400
  41.8447070  90.9355690  84.5769680  36.7998330  90.4964850  83.4292070
  36.4598380  90.9740080  84.1859120  36.0375650  90.0429970  83.0693170
  41.0116100  91.6150440  77.4604620  41.1328920  91.5736920  78.4090440
  40.6264610  92.4774590  77.3051350  44.9744470  89.3917840  85.4768310
  44.9917210  89.8426490  86.3210160  44.7260050  88.4923480  85.6901750
  40.0237600  93.9251580  76.8587920  39.4554500  93.4769830  76.2323830
  40.7326600  94.2844360  76.3253070  48.4015220  86.8050020  91.3154690
  48.7260990  86.0739680  91.8412670  48.4371730  86.4863660  90.4135680
  35.1006780  97.8263600  90.7354650  34.7161570  97.1857270  91.3337610
  35.4118970  98.5299720  91.3049380  41.2503920  94.6740140  86.2163270
  41.6174050  94.1998710  86.9624610  41.0608980  95.5481710  86.5571610
  34.1144410  89.4183830  82.3456740  33.8291330  89.0539500  83.1835360
  34.0523270  88.6864290  81.7319880  39.0403290  93.7148780  88.5347480
  38.7360360  94.5940760  88.7597840  39.9949750  93.7748570  88.5704920
  37.5685080  97.9209770  79.1314330  36.7947340  97.3807390  78.9713050
  38.2979710  97.4016380  78.7932090  48.3273060  96.9175130  84.9240720
  49.0472180  97.4130420  84.5336830  48.1254880  96.2393020  84.2794590
  43.7883000  88.3113090  79.0670110  42.9747610  87.8126260  78.9915420
  43.5944950  89.1511340  78.6506460  43.7091860  96.9884190  90.8109720
  43.6429170  96.0679860  90.5567310  43.0797000  97.0859630  91.5254360
  46.5031390  92.6832740  77.3632270  47.3911010  92.9949970  77.1883610
  46.4736480  91.8104990  76.9712850  37.6122480  97.5890150  82.7693140
  38.1301150  96.7858410  82.7150030  37.1606500  97.5269290  83.6109970
  42.4991980  98.8556430  78.0420440  42.8407680  99.5998660  77.5463760
  41.6704690  99.1687550  78.4045270  35.0967020  94.5551520  89.6818840
  34.7381960  95.2205370  90.2692180  34.8021580  93.7235070  90.0531460
  38.2980140  95.0135760  92.5658390  37.9980280  95.1592940  91.6686210
  39.0691380  94.4541050  92.4731780  43.6408590  99.8104760  90.5613520
  43.6553130  98.8785720  90.3432430  42.9333690  99.8964520  91.2003290
  48.7745660  93.9944580  76.8312130  48.6909380  94.4258800  75.9808570
  49.4939850  94.4542930  77.2638950  49.8519800  96.4512100  89.9082100
  49.1267990  97.0440880  89.7111490  50.3795260  96.4435640  89.1095470
  49.8032910 100.8486840  79.5594260  49.1609070 100.1942460  79.8337980
  49.4163570 101.2541930  78.7834930  45.3819390  98.1772270  83.4065950
  45.7343210  97.5800400  82.7467320  44.4981720  97.8516500  83.5774200
  41.4682670  98.9369960  80.8136360  42.1553800  99.4839170  81.1943950
  40.6815090  99.4810690  80.8485970  33.6075070  94.5542780  76.3053440
  34.4769920  94.8367580  76.5889360  33.1165390  95.3678650  76.1902250
  40.7709880  95.9415990  80.4261720  41.2272660  96.7521240  80.6521910
  40.4198090  95.6239130  81.2580210  43.0742490 101.4522330  87.6554020
  43.7184710 101.6581710  88.3327440  43.4371930 100.6910730  87.2024870
  36.6721660  86.2853640  80.8984240  36.5436290  86.2771540  81.8469160
  35.8483680  86.6236730  80.5475250  44.3474570  99.4554680  86.3731470
  44.9896800  98.7547840  86.4863640  44.8723920 100.2353120  86.1928360
  48.1930290  99.7403300  76.0970610  47.9667870  99.0233740  76.6895250
  47.8026490  99.4915740  75.2592360  46.1212190 100.2549580  89.5767530
  46.4568430 100.8416270  90.2545450  45.2012530 100.1242290  89.8065320
  33.9746320 103.7670160  76.8715070  34.3343960 104.3659500  76.2172340
  33.8338660 104.3130050  77.6450100  33.6715590  88.0444760  90.3590940
  32.9574110  88.2441680  90.9643550  34.0910630  87.2684330  90.7305740
  47.7746540  97.6575240  77.7584770  47.4868240  98.1187930  78.5462650
  48.5698710  97.1973010  78.0268990  33.9588180 102.0325020  91.3457470
  34.0679300 101.0919760  91.2052860  33.3068740 102.2979770  90.6971200
  41.9500770 100.3040910  92.7455590  41.6297640  99.5850150  93.2901280
  41.2759130 100.9795980  92.8191650  39.9914940 101.1501360  77.6888740
  39.9825040 101.8831050  77.0733250  39.0713300 100.9032940  77.7815700
  35.5921580  96.3716250  78.4335500  34.9849530  97.1115150  78.4430800
  36.0670930  96.4615610  77.6073700  45.1654370  90.5367070  88.1092390
  45.5335190  89.7162280  88.4371960  44.3052570  90.5968960  88.5248040
  48.5316400  89.4924010  78.9179950  47.9029560  89.5969680  78.2038180
  48.0368320  89.7120790  79.7073830  42.9774540 101.2129600  76.3513930
  43.0786520 101.0093590  75.4215910  42.0776280 100.9587880  76.5561710
  40.5000430  91.7709960  80.3337830  39.7916580  92.2396300  80.7751440
  40.7844910  91.1131970  80.9683020  42.1256360  93.1906660  88.3330360
  42.6241610  93.6652480  88.9982210  42.2679310  92.2670180  88.5400390
  44.5315860  88.4960620  81.7733620  44.4083640  88.5146750  80.8243130
  45.4800420  88.5439560  81.8932020  41.6192650 103.7315920  81.0461600
  41.8734150 103.6937310  80.1240970  40.6705130 103.6049250  81.0389850
  38.7035450  90.0795040  77.7088540  39.5525980  90.5165190  77.6428730
  38.3366720  90.3915300  78.5360600  49.3323220  89.4074620  89.1758750
  48.8296820  90.1480020  89.5152560  50.1479880  89.7958620  88.8595540
  47.6245230  94.6507800  82.6220110  46.6835370  94.6658030  82.7967800
  47.9389300  93.8643760  83.0680410  37.6026870  96.3327400  76.1824070
  38.3690140  96.2208760  76.7449500  37.6801560  95.6365370  75.5300840
  36.2973630  93.7652470  76.8656960  36.3777220  92.8179980  76.9774360
  37.1893380  94.0959350  76.9717620  49.6270810 101.8216650  84.2974370
  49.7518230 102.6447820  84.7698180  50.4936370 101.6107380  83.9498520
  37.0988340 103.9147860  83.9691500  37.8350820 103.3663320  84.2400070
  37.4829260 104.7803870  83.8297490  33.9833820  99.9821430  79.8433010
  33.0573600 100.2242570  79.8338420  34.4490250 100.8095690  79.7217760
  36.1046620 103.0993930  93.1577080  36.9059350 103.4205980  93.5712480
  35.5898440 102.7389510  93.8796990  40.2090650 103.0878170  75.7917070
  41.0019260 103.3767000  75.3398860  39.6895000 102.6570340  75.1129550
  44.9411250  99.2073800  93.1052490  44.3349410  99.2305400  92.3648240
  44.6365360  98.4756840  93.6419740  46.3711620 102.9354090  91.7161900
  47.3233370 102.8512110  91.6662140  46.2239840 103.5995800  92.3895690
  49.2620820 102.3148300  77.2153810  48.9762330 101.9013440  76.4007990
  49.0640370 103.2436010  77.0954330  33.8244430  95.5867390  92.1013130
  34.3283450  95.0074670  92.6729360  33.0851850  95.8707620  92.6389500
  40.7268050  98.3081580  75.6559420  40.6218690  97.6933930  76.3820800
  40.5592270  97.7847470  74.8722430  40.8782370  96.9938380  91.6348650
  40.1128040  97.5623380  91.5503320  41.0598330  96.7014590  90.7416880
  43.9670780  97.3701610  76.2601410  43.4180880  97.8170910  76.9044150
  44.5890040  96.8650860  76.7839080  48.0205720  98.7243710  92.1923670
  48.7615190  99.0619470  91.6891130  47.2578400  98.8935770  91.6393440
  35.8567510  93.7296980  92.9963200  35.8972850  93.4310850  93.9048430
  36.7113010  94.1304590  92.8370720  39.6345900  96.3292530  78.1566710
  40.0562320  96.1632400  78.9998100  39.7596740  95.5192760  77.6621850
  37.7973320  92.3089080  90.9637690  37.2669780  91.8180030  90.3361030
  38.4661390  92.7373280  90.4295620  42.1473540  95.3530140  75.4043810
  42.6679200  94.6379160  75.0384960  42.7941940  95.9916010  75.7044320
  46.6951380  96.7758540  90.7278880  47.1092400  96.9303620  91.5769300
  45.7602380  96.9013760  90.8904660  47.1673550  94.1154700  92.7318030
  47.7494320  93.3607020  92.6438510  47.3435320  94.6462140  91.9549510
  38.2845620  89.2751450  91.0434980  38.1902490  88.6572200  90.3185850
  37.7043010  90.0017740  90.8164890  41.0507060  87.8324690  88.0762370
  40.6024360  87.8548950  87.2307920  40.4172260  87.4343710  88.6732670
  41.4566610  96.7279020  88.6974810  41.8754720  97.5711750  88.5251050
  40.5375240  96.8651060  88.4681590  43.7930510  94.4595200  90.0812650
  43.9126720  93.8636340  90.8207490  44.6524510  94.4964890  89.6613950
  46.1318410  95.0132390  88.6575160  45.6053630  95.5375010  88.0540300
  46.4749750  95.6459780  89.2884890  38.5304800  92.4025760  75.1024870
  38.3293860  91.5393120  75.4638210  38.3596850  92.3159120  74.1646470
  39.3074030 103.0332030  89.8132540  38.7695120 103.7578090  89.4941240
  39.5607990 102.5562370  89.0229880  40.5599280  91.0016550  91.3388470
  41.1498970  90.6932400  92.0266290  39.7419520  90.5296300  91.4948370
  45.3792710  90.6182360  91.5721490  44.6908230  89.9563900  91.5071480
  46.0998730  90.1720630  92.0169950  46.0093110  87.2133990  77.6311750
  46.2895400  86.3701890  77.9871170  45.2358840  87.4457100  78.1450500
  37.3287600  89.5026380  75.0902750  37.6313500  89.5093810  74.1821900
  38.0682190  89.1524240  75.5870410  42.1636240 104.2683240  90.0719190
  42.0894940 105.1718380  90.3791560  41.2615080 103.9495140  90.0441260
  40.5472530  88.4461000  76.0758950  40.1994530  87.7684990  75.4961400
  40.7485300  87.9850510  76.8902340  42.7121570 103.4341750  77.6945550
  43.6072360 103.7726720  77.7164310  42.7439200 102.7121160  77.0669830
  36.3517730  98.8068800  75.9232550  36.7892600  99.3498470  76.5790130
  36.8365460  97.9815750  75.9328890  33.5663530 101.5957830  83.3752810
  33.8966540 100.7278890  83.1431450  33.9954530 101.8016350  84.2057770
  38.1625450  99.9266840  81.0354780  37.8620990  99.8031810  81.9358690
  38.0562940  99.0675430  80.6270510  34.0553740 102.4628420  86.1134440
  33.6184730 102.6429220  86.9458590  34.6231420 103.2203040  85.9716160
  49.6915920 101.9645420  90.4011750  49.0917910 102.0237980  89.6575670
  49.8209820 101.0250400  90.5308600  50.9317370  99.7063240  75.7381460
  50.1010330  99.7739890  76.2088690  51.1089200 100.5967360  75.4348320
  50.3873830  96.4510720  78.2415660  51.1492740  97.0207370  78.3475350
  50.4028200  95.8837920  79.0123970  33.8878170  94.9748650  82.4723320
  33.2327010  94.7060290  81.8283020  34.7256120  94.8653130  82.0225300
  51.3933800  97.3060820  83.0857590  51.7642630  96.5228140  82.6793560
  52.0335730  97.9949920  82.9074890  48.3767560  98.6897400  88.4987910
  47.5627400  99.1194560  88.7613700  48.7841760  99.3015810  87.8856960
  50.4393000  96.7445090  75.3988180  50.7141840  97.6523970  75.2707400
  50.2503740  96.6807620  76.3350170  46.8368610  89.7689940  76.6941810
  47.2553490  89.5820920  75.8538470  46.5304670  88.9168990  77.0044740
  50.3358340  94.6814080  80.3917610  49.9601940  93.9142010  79.9598900
  49.6061460  95.0636780  80.8792540  34.9254100  95.3601220  87.0126660
  35.2927140  95.2728620  87.8922680  34.3564920  94.5967770  86.9133520
  49.7257960  93.8285600  90.0257130  49.4944050  93.5998350  89.1255080
  49.9862510  94.7485150  89.9802020  34.4770100  92.2710310  90.9185080
  33.5826150  92.2377070  91.2578790  35.0167650  92.4697100  91.6836330
  48.1646030  89.0542030  92.8036830  49.0416210  89.0625430  93.1870830
  48.1766870  88.3172870  92.1929180  33.1016250  92.1847580  78.4148650
  32.1980330  92.4477780  78.2400310  33.5856870  92.4558750  77.6348610
  49.6109300  92.9071570  83.6924850  50.1346780  92.4134220  83.0615020
  50.1968720  93.0421930  84.4372420  49.7899020  92.9911440  87.2144400
  48.8401730  92.9574980  87.3289390  49.9712030  93.9011550  86.9794170
  35.6443460  91.2413120  76.3243030  36.3535160  90.8196340  75.8390310
  34.9283400  91.3088350  75.6926380  35.2917620  87.2952450  75.3645680
  36.0145750  87.8361390  75.6826900  35.5642140  87.0215870  74.4887220
  49.1009270  92.1644920  79.6317260  49.5968390  91.9315790  80.4166140
  48.9025340  91.3256760  79.2154900  34.9809810  86.5458640  85.2668300
  35.6286000  85.9956020  84.8263460  35.4011650  86.8001790  86.0884110
  50.5296430  90.8005870  82.1654940  50.4195710  90.6461910  83.1037210
  51.2904020  90.2726810  81.9230350  48.8762150  86.7400000  88.6237940
  49.5134370  87.3534140  88.9897130  49.0237040  86.7760660  87.6787170
  51.4186700  88.6313790  75.4061080  52.3436010  88.4994970  75.1979370
  51.3962490  88.7106610  76.3597530  51.4925190  89.4024450  78.0317790
  50.6976690  89.3369570  78.5610700  51.6968470  90.3375090  78.0203140
  48.4343610 103.4416000  82.0256180  49.0302680 103.1200570  81.3490600
  48.6921760 102.9687820  82.8169450  34.7341810  86.7014310  88.0093620
  34.3856630  87.1578130  88.7751800  34.4029510  85.8071440  88.0916050
  36.3406180  99.8733910  92.1746810  36.2975810  99.5026820  93.0561270
  36.4717190 100.8111480  92.3148630  40.0412210 101.4293500  87.7756530
  39.8003570 101.6968060  86.8887050  40.9814850 101.5999230  87.8307390
  42.2466630  87.8926190  91.5313040  42.1855520  88.4848020  92.2808450
  43.1867010  87.7852150  91.3863300  44.8841190  87.5496250  91.1705330
  45.4981600  87.8675540  90.5086410  45.4290750  87.0644840  91.7901190
  51.3016370 103.4487880  88.5767170  50.8074650 103.8456750  87.8594300
  50.6929660 102.8237090  88.9704450  35.4062450  86.2290510  91.2844390
  35.9545440  86.0478560  90.5210500  35.4717760  85.4384620  91.8200700
  36.1794210 102.8196160  89.2944590  35.5854530 102.6880860  90.0334630
  36.1718050 101.9834300  88.8286690  45.6249230  86.1128390  87.4974620
  44.7509070  86.4463500  87.2947550  45.5159980  85.6401570  88.3226490
  46.5321210  88.3199260  88.8816340  46.2034570  87.5051020  88.5018070
  47.4803510  88.2769070  88.7582030  48.9855820 104.0911300  85.8553910
  48.5258790 104.8427110  85.4811930  48.3568280 103.3717770  85.7968710
  35.8106440 100.1854540  88.2452630  35.0840500  99.5659830  88.1778580
  35.8715590 100.5795150  87.3750710  39.4151540 102.3999540  85.0302040
  39.9316560 101.7886900  84.5050300  40.0648920 102.9028320  85.5213050
  42.1547040 103.2908030  85.8571020  42.4424850 103.0362330  84.9804030
  42.6670260 102.7385390  86.4476590  43.3724050  87.0298230  86.4367530
  42.5895840  87.5043730  86.7164290  43.0786980  86.1253060  86.3280710
  47.9245120  87.7321330  84.4816620  48.3653210  87.6766430  83.6338220
  47.6552710  88.6479340  84.5526800  49.7883690  87.3636570  82.4925440
  49.7272090  86.4197790  82.3456460  50.5675720  87.4716660  83.0378900
  34.0936440 103.5028930  81.4549390  33.9258480 102.8699610  82.1531280
  33.2270950 103.7088330  81.1043580  34.7164460  87.3345710  78.9581250
  35.4743820  87.4474590  78.3845280  34.2541630  88.1714910  78.9124680
  41.2578270  89.4484980  81.9483560  40.4452780  89.0741870  81.6079440
  41.7619910  88.6930060  82.2504750  45.7603250  86.1127430  83.1866630
  46.3632620  86.6847640  83.6615150  45.0196240  86.6766870  82.9640530
  35.6999140 102.1962160  78.8999530  35.1746760 102.5770190  78.1961490
  35.6243720 102.8212930  79.6209240  37.0889610  87.8609760  77.4983220
  37.6182370  87.0739560  77.3691170  37.7217930  88.5400950  77.7318750
  39.2827450  87.5984900  80.5528610  38.6530190  86.8972210  80.7198740
  38.7432590  88.3589030  80.3361770  42.2219400 104.2124130  93.2239220
  43.1486710 103.9768400  93.2675180  42.2069830 105.0396130  92.7425250
  50.4564460 103.7549700  80.2213470  50.6316650 103.0687440  79.5774390
  49.7586030 104.2796750  79.8290140  39.4083010  86.8768880  92.9881100
  39.1267280  87.3802480  92.2241920  39.7902710  86.0790630  92.6223230
  38.2992110 104.1444540  77.7748780  39.0310930 103.8603820  77.2272670
  38.5585780 103.9057820  78.6648160  37.4606900 100.2609270  77.7795110
  36.8315780 100.7294370  78.3280940  37.5754730  99.4158490  78.2141300
  46.0098470  86.2922460  93.5661570  45.8963920  86.6117070  94.4613090
  46.8268210  86.6934970  93.2698850  48.7896960 103.4393990  93.0480260
  49.5822280 102.9443220  92.8406220  49.0830110 104.1184130  93.6555870
  44.9156620  94.3114930  63.9296310  44.8350670  93.3969540  63.6588020
  44.5021040  94.8082000  63.2236020  43.0474660  96.0893950  65.8105580
  42.2716760  95.6094390  66.1004150  43.6987590  95.4099600  65.6361740
  37.0640490  96.4013760  66.6881340  36.2325370  96.1462470  67.0877850
  37.6721470  96.4724530  67.4239260  47.0682090 100.4954140  64.5904710
  46.6063620  99.7241380  64.9191880  47.8807640 100.5220210  65.0957160
  37.0441750 100.4353850  66.8839360  37.3469790  99.5451590  66.7049580
  37.7885340 100.9924070  66.6561610  35.4732440  91.3615650  60.4723730
  34.5849140  91.7031620  60.3703610  35.7573630  91.1615970  59.5804560
  33.4365450  93.9621300  66.3563430  34.0081560  93.1943500  66.3567070
  33.4366990  94.2610060  65.4470040  43.2945400 102.7812150  64.2108700
  42.6756840 103.2369650  63.6403140  44.1497180 102.9363610  63.8098400
  42.4883650  98.7651140  65.8175740  42.4191930  97.8241080  65.6564870
  43.2503510  98.8552550  66.3898310  34.6790320  89.3705660  68.1432360
  34.4993160  88.4731410  68.4235120  34.2770400  89.9177530  68.8179310
  43.5188820  91.5721520  66.0444670  43.8953640  90.6993400  65.9318340
  43.4208330  91.9080220  65.1535110  37.6493830  89.9447150  61.5062110
  37.7560580  90.8450880  61.8130870  36.7386190  89.8965120  61.2156760
  35.2976990  91.8666160  66.7514700  35.9787100  92.1304530  67.3702100
  34.9825040  91.0267030  67.0852710  39.4901560  92.9133520  65.8387290
  39.9979780  93.4114490  66.4792310  40.0214800  92.1368720  65.6626650
  51.5912490  91.0838710  69.5416640  50.8864660  91.4720420  69.0231750
  51.8570410  91.7789000  70.1437570  37.7737660  87.5532080  70.1050710
  37.7756100  88.0704470  69.2996610  36.9441970  87.0762260  70.0820640
  44.1608750  97.6651390  61.6040610  43.5426020  98.1300840  61.0403330
  44.6732000  98.3578870  62.0210120  39.0240510  97.1927260  68.2824210
  38.6909890  97.8196180  68.9245280  39.2007190  97.7189140  67.5025880
  47.5374420  91.0072340  65.7500550  46.8329990  91.2957230  66.3303660
  47.8986580  91.8172450  65.3900110  37.4552990  89.2642040  68.1121160
  37.7969800  90.1084090  67.8175030  36.5168800  89.4125780  68.2286500
  38.2359610  99.1608060  70.0973390  38.8533610  99.8359140  69.8157840
  37.3752730  99.5696040  70.0060890  33.5291950  98.3507920  58.9780240
  33.1519930  98.8395020  58.2465140  33.7865020  99.0233200  59.6086770
  49.1537200 100.6247470  68.0128030  48.4700720 101.2946580  68.0044700
  49.6931490 100.8228120  67.2472890  50.6061340  90.4527130  66.1409760
  49.6586250  90.4866110  66.2725190  50.9311330  91.2666080  66.5259120
  41.1380880  86.7524310  64.4365750  41.4455860  86.1971200  63.7201250
  40.2081580  86.8868770  64.2538740  46.6895940 102.4691600  66.7273210
  46.7023100 102.0653890  65.8595470  46.1371160 103.2438890  66.6234640
  47.9841360  99.1907820  61.8163380  47.8737690  98.2482150  61.9412800
  47.9809610  99.5523460  62.7026140  46.0881380  97.3721440  68.0555820
  46.5050170  97.1581550  67.2209280  46.8121200  97.6294230  68.6264440
  43.5261640  94.8173140  61.1725870  42.5990920  94.7510520  61.4014340
  43.6786460  95.7553270  61.0581110  43.5130720  91.0890140  58.1693030
  42.5734390  91.2504100  58.2545490  43.8313980  91.8075820  57.6229020
  50.0343480  95.7708660  68.1472060  49.2062110  95.8401750  67.6722190
  50.6293960  96.3562970  67.6787890  47.5558930  96.3793440  61.6761120
  46.9371350  96.0412990  61.0287420  47.5383380  95.7353200  62.3840310
  46.9985490  92.5577980  69.0926930  46.5856670  93.3831690  69.3466920
  46.2661440  91.9723020  68.9003290  39.1318280  95.3437880  63.9545600
  38.7275280  94.6315130  63.4591500  39.2181400  94.9991120  64.8433640
  39.5999980  99.0305440  66.1184810  39.3028270  98.4250910  65.4392590
  40.5499800  99.0682750  66.0074170  37.8446900  92.1181090  67.7344640
  38.3961490  92.2276430  66.9597890  38.3590410  92.4918690  68.4499870
  47.6885590 102.6037310  69.7807910  47.2116150 103.4109500  69.5880520
  47.0047380 101.9515640  69.9334120  38.6918410  98.7687130  72.7692610
  37.7946940  98.9927100  73.0166010  38.7171280  98.8922070  71.8204010
  45.7323630  95.6180250  58.6833870  46.1716910  94.7802680  58.5371690
  46.4452050  96.2509650  58.7698010  37.5189630  95.6400450  71.3449980
  37.3797400  96.5123250  71.7137380  36.6370990  95.2973260  71.1997920
  43.8419010 100.5576320  62.6515110  44.2814920 101.3000650  62.2370500
  43.7805900 100.8002890  63.5754070  39.3169980 101.5822150  73.5535130
  39.2885410 101.9865100  72.6863560  39.1534950 100.6532510  73.3906730
  49.3140770  86.8723060  56.9974910  49.0013430  86.9649890  57.8973980
  50.0753240  87.4504090  56.9472340  35.8322910  94.2382860  61.4552250
  35.7120510  94.9644950  60.8433520  35.5223800  93.4685770  60.9780160
  51.2684800 102.3649250  74.8499300  51.7444520 102.8432140  75.5288380
  51.8891960 102.2966740  74.1244800  33.4708280  97.4098000  67.2620890
  33.5488700  97.5446770  66.3176610  34.0849960  96.7013890  67.4549010
  34.7155910  99.1098190  63.6727070  34.3083990  99.2512780  62.8180670
  35.6068920  98.8258350  63.4698280  50.6718050  99.5562100  72.0099310
  50.7981110  99.3173980  71.0916490  50.7139430  98.7246640  72.4821390
  44.5334790 103.2590100  70.5794120  45.0479460 103.1698110  71.3816550
  43.6903870 103.6049800  70.8722030  46.5089190 103.5445440  60.0078120
  46.3490330 103.2548380  60.9059950  46.3435900 102.7685570  59.4723350
  38.9877570 103.3243970  61.7849740  38.8120050 102.4079510  61.5717540
  38.1333310 103.6831260  62.0247540  46.2115320 101.0533000  58.5676120
  45.5180480 101.0510290  57.9078400  46.9538180 100.6292320  58.1370290
  45.7765250 102.6795710  62.6424610  46.2322200 101.8985090  62.9563230
  46.1157770 103.3902530  63.1865790  50.5242060  91.6094560  72.9749050
  49.9086330  92.1174230  72.4464510  50.2038480  90.7092890  72.9174990
  33.5267800  98.4512170  69.8015350  33.6898840  97.9817530  68.9834720
  33.9920250  97.9435730  70.4664190  38.2986570  87.5817930  64.8375920
  37.8554720  88.3627470  64.5060440  38.8571560  87.9047820  65.5446860
  42.5856380  90.4486450  70.4411240  42.1235750  90.6569470  71.2531180
  42.1834490  89.6345800  70.1381910  47.5860890  91.6695400  71.5707900
  46.7354480  91.3701150  71.8916970  47.4262680  91.9137410  70.6591720
  44.6810600  93.1697150  73.6706690  45.0064010  92.3360900  73.3308920
  45.4690930  93.6925670  73.8185020  41.4145390  87.2028630  59.7181750
  40.7899570  87.1988500  60.4435060  41.3275510  86.3359590  59.3217720
  40.3362470  88.1265260  66.6965520  40.6334800  89.0328090  66.6157540
  40.8848030  87.6384040  66.0825090  38.0900790  92.7051500  62.5657170
  37.8641710  92.4888670  63.4703790  37.3093320  93.1379960  62.2203140
  45.3198550  92.7114870  61.1647820  44.7207440  93.4350670  60.9811440
  45.8678160  92.6491650  60.3824270  40.5300000  93.6037080  73.2317440
  40.4343600  92.6631810  73.0817840  41.3731980  93.8252150  72.8365510
  43.9263420  91.3478410  63.1951100  44.3192990  91.6650610  62.3819790
  44.2880270  90.4690290  63.3095620  35.6610540  90.0150750  71.3851220
  35.2673930  90.8625960  71.5924000  34.9728940  89.3777120  71.5759860
  42.2355590  90.0985720  74.4547960  41.5453910  89.9057920  75.0894050
  42.9787890  90.3820360  74.9872260  32.9627590  87.9379210  65.4181300
  32.6740640  88.5082070  66.1306280  33.7073350  87.4583660  65.7812530
  33.1497820  91.8799330  56.6284020  33.0672490  92.8230090  56.7699010
  32.7980880  91.7374240  55.7496370  44.5118560  93.9384160  67.2901880
  43.7799680  94.4470970  67.6391980  44.1142900  93.1214140  66.9890660
  40.9495950  90.6138360  65.6954370  40.9532010  90.1728310  64.8458910
  41.8447070  90.9355690  65.8026190  36.7998330  90.4964850  64.6548580
  36.4598380  90.9740080  65.4115630  36.0375650  90.0429970  64.2949680
  41.0116100  91.6150440  58.6861130  41.1328920  91.5736920  59.6346950
  40.6264610  92.4774590  58.5307860  44.9744470  89.3917840  66.7024820
  44.9917210  89.8426490  67.5466670  44.7260050  88.4923480  66.9158260
  40.0237600  93.9251580  58.0844430  39.4554500  93.4769830  57.4580340
  40.7326600  94.2844360  57.5509580  35.1006780  97.8263600  71.9611160
  34.7161570  97.1857270  72.5594120  35.4118970  98.5299720  72.5305890
  41.2503920  94.6740140  67.4419780  41.6174050  94.1998710  68.1881120
  41.0608980  95.5481710  67.7828120  34.1144410  89.4183830  63.5713250
  33.8291330  89.0539500  64.4091870  34.0523270  88.6864290  62.9576390
  39.0403290  93.7148780  69.7603990  38.7360360  94.5940760  69.9854350
  39.9949750  93.7748570  69.7961430  37.5685080  97.9209770  60.3570840
  36.7947340  97.3807390  60.1969560  38.2979710  97.4016380  60.0188600
  48.3273060  96.9175130  66.1497230  49.0472180  97.4130420  65.7593340
  48.1254880  96.2393020  65.5051100  43.7883000  88.3113090  60.2926620
  42.9747610  87.8126260  60.2171930  43.5944950  89.1511340  59.8762970
  43.7091860  96.9884190  72.0366230  43.6429170  96.0679860  71.7823820
  43.0797000  97.0859630  72.7510870  46.5031390  92.6832740  58.5888780
  47.3911010  92.9949970  58.4140120  46.4736480  91.8104990  58.1969360
  37.6122480  97.5890150  63.9949650  38.1301150  96.7858410  63.9406540
  37.1606500  97.5269290  64.8366480  42.4991980  98.8556430  59.2676950
  42.8407680  99.5998660  58.7720270  41.6704690  99.1687550  59.6301780
  35.0967020  94.5551520  70.9075350  34.7381960  95.2205370  71.4948690
  34.8021580  93.7235070  71.2787970  38.2980140  95.0135760  73.7914900
  37.9980280  95.1592940  72.8942720  39.0691380  94.4541050  73.6988290
  43.6408590  99.8104760  71.7870030  43.6553130  98.8785720  71.5688940
  42.9333690  99.8964520  72.4259800  48.7745660  93.9944580  58.0568640
  48.6909380  94.4258800  57.2065080  49.4939850  94.4542930  58.4895460
  49.8519800  96.4512100  71.1338610  49.1267990  97.0440880  70.9368000
  50.3795260  96.4435640  70.3351980  49.8032910 100.8486840  60.7850770
  49.1609070 100.1942460  61.0594490  49.4163570 101.2541930  60.0091440
  45.3819390  98.1772270  64.6322460  45.7343210  97.5800400  63.9723830
  44.4981720  97.8516500  64.8030710  41.4682670  98.9369960  62.0392870
  42.1553800  99.4839170  62.4200460  40.6815090  99.4810690  62.0742480
  33.6075070  94.5542780  57.5309950  34.4769920  94.8367580  57.8145870
  33.1165390  95.3678650  57.4158760  40.7709880  95.9415990  61.6518230
  41.2272660  96.7521240  61.8778420  40.4198090  95.6239130  62.4836720
  43.0742490 101.4522330  68.8810530  43.7184710 101.6581710  69.5583950
  43.4371930 100.6910730  68.4281380  36.6721660  86.2853640  62.1240750
  36.5436290  86.2771540  63.0725670  35.8483680  86.6236730  61.7731760
  44.3474570  99.4554680  67.5987980  44.9896800  98.7547840  67.7120150
  44.8723920 100.2353120  67.4184870  48.1930290  99.7403300  57.3227120
  47.9667870  99.0233740  57.9151760  47.8026490  99.4915740  56.4848870
  46.1212190 100.2549580  70.8024040  46.4568430 100.8416270  71.4801960
  45.2012530 100.1242290  71.0321830  33.9746320 103.7670160  58.0971580
  34.3343960 104.3659500  57.4428850  33.8338660 104.3130050  58.8706610
  33.6715590  88.0444760  71.5847450  32.9574110  88.2441680  72.1900060
  34.0910630  87.2684330  71.9562250  47.7746540  97.6575240  58.9841280
  47.4868240  98.1187930  59.7719160  48.5698710  97.1973010  59.2525500
  33.9588180 102.0325020  72.5713980  34.0679300 101.0919760  72.4309370
  33.3068740 102.2979770  71.9227710  41.9500770 100.3040910  73.9712100
  41.6297640  99.5850150  74.5157790  41.2759130 100.9795980  74.0448160
  39.9914940 101.1501360  58.9145250  39.9825040 101.8831050  58.2989760
  39.0713300 100.9032940  59.0072210  35.5921580  96.3716250  59.6592010
  34.9849530  97.1115150  59.6687310  36.0670930  96.4615610  58.8330210
  45.1654370  90.5367070  69.3348900  45.5335190  89.7162280  69.6628470
  44.3052570  90.5968960  69.7504550  42.9774540 101.2129600  57.5770440
  43.0786520 101.0093590  56.6472420  42.0776280 100.9587880  57.7818220
  40.5000430  91.7709960  61.5594340  39.7916580  92.2396300  62.0007950
  40.7844910  91.1131970  62.1939530  42.1256360  93.1906660  69.5586870
  42.6241610  93.6652480  70.2238720  42.2679310  92.2670180  69.7656900
  44.5315860  88.4960620  62.9990130  44.4083640  88.5146750  62.0499640
  45.4800420  88.5439560  63.1188530  41.6192650 103.7315920  62.2718110
  41.8734150 103.6937310  61.3497480  40.6705130 103.6049250  62.2646360
  38.7035450  90.0795040  58.9345050  39.5525980  90.5165190  58.8685240
  38.3366720  90.3915300  59.7617110  49.3323220  89.4074620  70.4015260
  48.8296820  90.1480020  70.7409070  50.1479880  89.7958620  70.0852050
  47.6245230  94.6507800  63.8476620  46.6835370  94.6658030  64.0224310
  47.9389300  93.8643760  64.2936920  37.6026870  96.3327400  57.4080580
  38.3690140  96.2208760  57.9706010  37.6801560  95.6365370  56.7557350
  36.2973630  93.7652470  58.0913470  36.3777220  92.8179980  58.2030870
  37.1893380  94.0959350  58.1974130  49.6270810 101.8216650  65.5230880
  49.7518230 102.6447820  65.9954690  50.4936370 101.6107380  65.1755030
  37.0988340 103.9147860  65.1948010  37.8350820 103.3663320  65.4656580
  37.4829260 104.7803870  65.0554000  33.9833820  99.9821430  61.0689520
  33.0573600 100.2242570  61.0594930  34.4490250 100.8095690  60.9474270
  36.1046620 103.0993930  74.3833590  36.9059350 103.4205980  74.7968990
  35.5898440 102.7389510  75.1053500  40.2090650 103.0878170  57.0173580
  41.0019260 103.3767000  56.5655370  39.6895000 102.6570340  56.3386060
  44.9411250  99.2073800  74.3309000  44.3349410  99.2305400  73.5904750
  44.6365360  98.4756840  74.8676250  46.3711620 102.9354090  72.9418410
  47.3233370 102.8512110  72.8918650  46.2239840 103.5995800  73.6152200
  49.2620820 102.3148300  58.4410320  48.9762330 101.9013440  57.6264500
  49.0640370 103.2436010  58.3210840  33.8244430  95.5867390  73.3269640
  34.3283450  95.0074670  73.8985870  33.0851850  95.8707620  73.8646010
  40.7268050  98.3081580  56.8815930  40.6218690  97.6933930  57.6077310
  40.5592270  97.7847470  56.0978940  40.8782370  96.9938380  72.8605160
  40.1128040  97.5623380  72.7759830  41.0598330  96.7014590  71.9673390
  43.9670780  97.3701610  57.4857920  43.4180880  97.8170910  58.1300660
  44.5890040  96.8650860  58.0095590  48.0205720  98.7243710  73.4180180
  48.7615190  99.0619470  72.9147640  47.2578400  98.8935770  72.8649950
  35.8567510  93.7296980  74.2219710  35.8972850  93.4310850  75.1304940
  36.7113010  94.1304590  74.0627230  39.6345900  96.3292530  59.3823220
  40.0562320  96.1632400  60.2254610  39.7596740  95.5192760  58.8878360
  37.7973320  92.3089080  72.1894200  37.2669780  91.8180030  71.5617540
  38.4661390  92.7373280  71.6552130  42.1473540  95.3530140  56.6300320
  42.6679200  94.6379160  56.2641470  42.7941940  95.9916010  56.9300830
  46.6951380  96.7758540  71.9535390  47.1092400  96.9303620  72.8025810
  45.7602380  96.9013760  72.1161170  47.1673550  94.1154700  73.9574540
  47.7494320  93.3607020  73.8695020  47.3435320  94.6462140  73.1806020
  38.2845620  89.2751450  72.2691490  38.1902490  88.6572200  71.5442360
  37.7043010  90.0017740  72.0421400  41.0507060  87.8324690  69.3018880
  40.6024360  87.8548950  68.4564430  40.4172260  87.4343710  69.8989180
  41.4566610  96.7279020  69.9231320  41.8754720  97.5711750  69.7507560
  40.5375240  96.8651060  69.6938100  43.7930510  94.4595200  71.3069160
  43.9126720  93.8636340  72.0464000  44.6524510  94.4964890  70.8870460
  46.1318410  95.0132390  69.8831670  45.6053630  95.5375010  69.2796810
  46.4749750  95.6459780  70.5141400  38.5304800  92.4025760  56.3281380
  38.3293860  91.5393120  56.6894720  38.3596850  92.3159120  55.3902980
  39.3074030 103.0332030  71.0389050  38.7695120 103.7578090  70.7197750
  39.5607990 102.5562370  70.2486390  40.5599280  91.0016550  72.5644980
  41.1498970  90.6932400  73.2522800  39.7419520  90.5296300  72.7204880
  45.3792710  90.6182360  72.7978000  44.6908230  89.9563900  72.7327990
  46.0998730  90.1720630  73.2426460  46.0093110  87.2133990  58.8568260
  46.2895400  86.3701890  59.2127680  45.2358840  87.4457100  59.3707010
  37.3287600  89.5026380  56.3159260  37.6313500  89.5093810  55.4078410
  38.0682190  89.1524240  56.8126920  42.1636240 104.2683240  71.2975700
  42.0894940 105.1718380  71.6048070  41.2615080 103.9495140  71.2697770
  40.5472530  88.4461000  57.3015460  40.1994530  87.7684990  56.7217910
  40.7485300  87.9850510  58.1158850  42.7121570 103.4341750  58.9202060
  43.6072360 103.7726720  58.9420820  42.7439200 102.7121160  58.2926340
  36.3517730  98.8068800  57.1489060  36.7892600  99.3498470  57.8046640
  36.8365460  97.9815750  57.1585400  33.5663530 101.5957830  64.6009320
  33.8966540 100.7278890  64.3687960  33.9954530 101.8016350  65.4314280
  38.1625450  99.9266840  62.2611290  37.8620990  99.8031810  63.1615200
  38.0562940  99.0675430  61.8527020  34.0553740 102.4628420  67.3390950
  33.6184730 102.6429220  68.1715100  34.6231420 103.2203040  67.1972670
  49.6915920 101.9645420  71.6268260  49.0917910 102.0237980  70.8832180
  49.8209820 101.0250400  71.7565110  50.9317370  99.7063240  56.9637970
  50.1010330  99.7739890  57.4345200  51.1089200 100.5967360  56.6604830
  50.3873830  96.4510720  59.4672170  51.1492740  97.0207370  59.5731860
  50.4028200  95.8837920  60.2380480  33.8878170  94.9748650  63.6979830
  33.2327010  94.7060290  63.0539530  34.7256120  94.8653130  63.2481810
  51.3933800  97.3060820  64.3114100  51.7642630  96.5228140  63.9050070
  52.0335730  97.9949920  64.1331400  48.3767560  98.6897400  69.7244420
  47.5627400  99.1194560  69.9870210  48.7841760  99.3015810  69.1113470
  46.8368610  89.7689940  57.9198320  47.2553490  89.5820920  57.0794980
  46.5304670  88.9168990  58.2301250  50.3358340  94.6814080  61.6174120
  49.9601940  93.9142010  61.1855410  49.6061460  95.0636780  62.1049050
  34.9254100  95.3601220  68.2383170  35.2927140  95.2728620  69.1179190
  34.3564920  94.5967770  68.1390030  49.7257960  93.8285600  71.2513640
  49.4944050  93.5998350  70.3511590  49.9862510  94.7485150  71.2058530
  34.4770100  92.2710310  72.1441590  33.5826150  92.2377070  72.4835300
  35.0167650  92.4697100  72.9092840  48.1646030  89.0542030  74.0293340
  49.0416210  89.0625430  74.4127340  48.1766870  88.3172870  73.4185690
  33.1016250  92.1847580  59.6405160  32.1980330  92.4477780  59.4656820
  33.5856870  92.4558750  58.8605120  49.6109300  92.9071570  64.9181360
  50.1346780  92.4134220  64.2871530  50.1968720  93.0421930  65.6628930
  49.7899020  92.9911440  68.4400910  48.8401730  92.9574980  68.5545900
  49.9712030  93.9011550  68.2050680  35.6443460  91.2413120  57.5499540
  36.3535160  90.8196340  57.0646820  34.9283400  91.3088350  56.9182890
  35.2917620  87.2952450  56.5902190  36.0145750  87.8361390  56.9083410
  35.5642140  87.0215870  55.7143730  49.1009270  92.1644920  60.8573770
  49.5968390  91.9315790  61.6422650  48.9025340  91.3256760  60.4411410
  34.9809810  86.5458640  66.4924810  35.6286000  85.9956020  66.0519970
  35.4011650  86.8001790  67.3140620  50.5296430  90.8005870  63.3911450
  50.4195710  90.6461910  64.3293720  51.2904020  90.2726810  63.1486860
  48.4343610 103.4416000  63.2512690  49.0302680 103.1200570  62.5747110
  48.6921760 102.9687820  64.0425960  34.7341810  86.7014310  69.2350130
  34.3856630  87.1578130  70.0008310  34.4029510  85.8071440  69.3172560
  36.3406180  99.8733910  73.4003320  36.2975810  99.5026820  74.2817780
  36.4717190 100.8111480  73.5405140  40.0412210 101.4293500  69.0013040
  39.8003570 101.6968060  68.1143560  40.9814850 101.5999230  69.0563900
  42.2466630  87.8926190  72.7569550  42.1855520  88.4848020  73.5064960
  43.1867010  87.7852150  72.6119810  44.8841190  87.5496250  72.3961840
  45.4981600  87.8675540  71.7342920  45.4290750  87.0644840  73.0157700
  51.3016370 103.4487880  69.8023680  50.8074650 103.8456750  69.0850810
  50.6929660 102.8237090  70.1960960  35.4062450  86.2290510  72.5100900
  35.9545440  86.0478560  71.7467010  35.4717760  85.4384620  73.0457210
  36.1794210 102.8196160  70.5201100  35.5854530 102.6880860  71.2591140
  36.1718050 101.9834300  70.0543200  45.6249230  86.1128390  68.7231130
  44.7509070  86.4463500  68.5204060  45.5159980  85.6401570  69.5483000
  46.5321210  88.3199260  70.1072850  46.2034570  87.5051020  69.7274580
  47.4803510  88.2769070  69.9838540  48.9855820 104.0911300  67.0810420
  48.5258790 104.8427110  66.7068440  48.3568280 103.3717770  67.0225220
  35.8106440 100.1854540  69.4709140  35.0840500  99.5659830  69.4035090
  35.8715590 100.5795150  68.6007220  39.4151540 102.3999540  66.2558550
  39.9316560 101.7886900  65.7306810  40.0648920 102.9028320  66.7469560
  42.1547040 103.2908030  67.0827530  42.4424850 103.0362330  66.2060540
  42.6670260 102.7385390  67.6733100  43.3724050  87.0298230  67.6624040
  42.5895840  87.5043730  67.9420800  43.0786980  86.1253060  67.5537220
  34.0936440 103.5028930  62.6805900  33.9258480 102.8699610  63.3787790
  33.2270950 103.7088330  62.3300090  34.7164460  87.3345710  60.1837760
  35.4743820  87.4474590  59.6101790  34.2541630  88.1714910  60.1381190
  41.2578270  89.4484980  63.1740070  40.4452780  89.0741870  62.8335950
  41.7619910  88.6930060  63.4761260  35.6999140 102.1962160  60.1256040
  35.1746760 102.5770190  59.4218000  35.6243720 102.8212930  60.8465750
  37.0889610  87.8609760  58.7239730  37.6182370  87.0739560  58.5947680
  37.7217930  88.5400950  58.9575260  39.2827450  87.5984900  61.7785120
  38.6530190  86.8972210  61.9455250  38.7432590  88.3589030  61.5618280
  42.2219400 104.2124130  74.4495730  43.1486710 103.9768400  74.4931690
  42.2069830 105.0396130  73.9681760  50.4564460 103.7549700  61.4469980
  50.6316650 103.0687440  60.8030900  49.7586030 104.2796750  61.0546650
  39.4083010  86.8768880  74.2137610  39.1267280  87.3802480  73.4498430
  39.7902710  86.0790630  73.8479740  38.2992110 104.1444540  59.0005290
  39.0310930 103.8603820  58.4529180  38.5585780 103.9057820  59.8904670
  37.4606900 100.2609270  59.0051620  36.8315780 100.7294370  59.5537450
  37.5754730  99.4158490  59.4397810  46.0098470  86.2922460  74.7918080
  45.8963920  86.6117070  75.6869600  46.8268210  86.6934970  74.4955360
  48.7896960 103.4393990  74.2736770  49.5822280 102.9443220  74.0662730
  49.0830110 104.1184130  74.8812380  44.9156620  94.3114930  45.1552820
  44.8350670  93.3969540  44.8844530  44.5021040  94.8082000  44.4492530
  43.0474660  96.0893950  47.0362090  42.2716760  95.6094390  47.3260660
  43.6987590  95.4099600  46.8618250  37.0640490  96.4013760  47.9137850
  36.2325370  96.1462470  48.3134360  37.6721470  96.4724530  48.6495770
  47.0682090 100.4954140  45.8161220  46.6063620  99.7241380  46.1448390
  47.8807640 100.5220210  46.3213670  37.0441750 100.4353850  48.1095870
  37.3469790  99.5451590  47.9306090  37.7885340 100.9924070  47.8818120
  35.4732440  91.3615650  41.6980240  34.5849140  91.7031620  41.5960120
  35.7573630  91.1615970  40.8061070  33.4365450  93.9621300  47.5819940
  34.0081560  93.1943500  47.5823580  33.4366990  94.2610060  46.6726550
  43.2945400 102.7812150  45.4365210  42.6756840 103.2369650  44.8659650
  44.1497180 102.9363610  45.0354910  42.4883650  98.7651140  47.0432250
  42.4191930  97.8241080  46.8821380  43.2503510  98.8552550  47.6154820
  34.6790320  89.3705660  49.3688870  34.4993160  88.4731410  49.6491630
  34.2770400  89.9177530  50.0435820  43.5188820  91.5721520  47.2701180
  43.8953640  90.6993400  47.1574850  43.4208330  91.9080220  46.3791620
  37.6493830  89.9447150  42.7318620  37.7560580  90.8450880  43.0387380
  36.7386190  89.8965120  42.4413270  47.3012940  89.0671960  44.2029520
  48.1222560  88.5768530  44.2455000  47.3347020  89.6569620  44.9561360
  35.2976990  91.8666160  47.9771210  35.9787100  92.1304530  48.5958610
  34.9825040  91.0267030  48.3109220  39.4901560  92.9133520  47.0643800
  39.9979780  93.4114490  47.7048820  40.0214800  92.1368720  46.8883160
  37.7737660  87.5532080  51.3307220  37.7756100  88.0704470  50.5253120
  36.9441970  87.0762260  51.3077150  44.1608750  97.6651390  42.8297120
  43.5426020  98.1300840  42.2659840  44.6732000  98.3578870  43.2466630
  39.0240510  97.1927260  49.5080720  38.6909890  97.8196180  50.1501790
  39.2007190  97.7189140  48.7282390  37.4552990  89.2642040  49.3377670
  37.7969800  90.1084090  49.0431540  36.5168800  89.4125780  49.4543010
  38.2359610  99.1608060  51.3229900  38.8533610  99.8359140  51.0414350
  37.3752730  99.5696040  51.2317400  33.5291950  98.3507920  40.2036750
  33.1519930  98.8395020  39.4721650  33.7865020  99.0233200  40.8343280
  49.1537200 100.6247470  49.2384540  48.4700720 101.2946580  49.2301210
  49.6931490 100.8228120  48.4729400  41.1380880  86.7524310  45.6622260
  41.4455860  86.1971200  44.9457760  40.2081580  86.8868770  45.4795250
  46.6895940 102.4691600  47.9529720  46.7023100 102.0653890  47.0851980
  46.1371160 103.2438890  47.8491150  47.9841360  99.1907820  43.0419890
  47.8737690  98.2482150  43.1669310  47.9809610  99.5523460  43.9282650
  46.0881380  97.3721440  49.2812330  46.5050170  97.1581550  48.4465790
  46.8121200  97.6294230  49.8520950  43.5261640  94.8173140  42.3982380
  42.5990920  94.7510520  42.6270850  43.6786460  95.7553270  42.2837620
  43.5130720  91.0890140  39.3949540  42.5734390  91.2504100  39.4802000
  43.8313980  91.8075820  38.8485530  50.0343480  95.7708660  49.3728570
  49.2062110  95.8401750  48.8978700  50.6293960  96.3562970  48.9044400
  47.5558930  96.3793440  42.9017630  46.9371350  96.0412990  42.2543930
  47.5383380  95.7353200  43.6096820  46.9985490  92.5577980  50.3183440
  46.5856670  93.3831690  50.5723430  46.2661440  91.9723020  50.1259800
  39.1318280  95.3437880  45.1802110  38.7275280  94.6315130  44.6848010
  39.2181400  94.9991120  46.0690150  39.5999980  99.0305440  47.3441320
  39.3028270  98.4250910  46.6649100  40.5499800  99.0682750  47.2330680
  37.8446900  92.1181090  48.9601150  38.3961490  92.2276430  48.1854400
  38.3590410  92.4918690  49.6756380  47.6885590 102.6037310  51.0064420
  47.2116150 103.4109500  50.8137030  47.0047380 101.9515640  51.1590630
  38.6918410  98.7687130  53.9949120  37.7946940  98.9927100  54.2422520
  38.7171280  98.8922070  53.0460520  45.7323630  95.6180250  39.9090380
  46.1716910  94.7802680  39.7628200  46.4452050  96.2509650  39.9954520
  37.5189630  95.6400450  52.5706490  37.3797400  96.5123250  52.9393890
  36.6370990  95.2973260  52.4254430  43.8419010 100.5576320  43.8771620
  44.2814920 101.3000650  43.4627010  43.7805900 100.8002890  44.8010580
  39.3169980 101.5822150  54.7791640  39.2885410 101.9865100  53.9120070
  39.1534950 100.6532510  54.6163240  49.3140770  86.8723060  38.2231420
  49.0013430  86.9649890  39.1230490  50.0753240  87.4504090  38.1728850
  35.8322910  94.2382860  42.6808760  35.7120510  94.9644950  42.0690030
  35.5223800  93.4685770  42.2036670  51.2684800 102.3649250  56.0755810
  51.7444520 102.8432140  56.7544890  51.8891960 102.2966740  55.3501310
  33.4708280  97.4098000  48.4877400  33.5488700  97.5446770  47.5433120
  34.0849960  96.7013890  48.6805520  34.7155910  99.1098190  44.8983580
  34.3083990  99.2512780  44.0437180  35.6068920  98.8258350  44.6954790
  50.6718050  99.5562100  53.2355820  50.7981110  99.3173980  52.3173000
  50.7139430  98.7246640  53.7077900  44.5334790 103.2590100  51.8050630
  45.0479460 103.1698110  52.6073060  43.6903870 103.6049800  52.0978540
  46.5089190 103.5445440  41.2334630  46.3490330 103.2548380  42.1316460
  46.3435900 102.7685570  40.6979860  38.9877570 103.3243970  43.0106250
  38.8120050 102.4079510  42.7974050  38.1333310 103.6831260  43.2504050
  46.2115320 101.0533000  39.7932630  45.5180480 101.0510290  39.1334910
  46.9538180 100.6292320  39.3626800  45.7765250 102.6795710  43.8681120
  46.2322200 101.8985090  44.1819740  46.1157770 103.3902530  44.4122300
  50.5242060  91.6094560  54.2005560  49.9086330  92.1174230  53.6721020
  50.2038480  90.7092890  54.1431500  33.5267800  98.4512170  51.0271860
  33.6898840  97.9817530  50.2091230  33.9920250  97.9435730  51.6920700
  38.2986570  87.5817930  46.0632430  37.8554720  88.3627470  45.7316950
  38.8571560  87.9047820  46.7703370  42.5856380  90.4486450  51.6667750
  42.1235750  90.6569470  52.4787690  42.1834490  89.6345800  51.3638420
  47.5860890  91.6695400  52.7964410  46.7354480  91.3701150  53.1173480
  47.4262680  91.9137410  51.8848230  44.6810600  93.1697150  54.8963200
  45.0064010  92.3360900  54.5565430  45.4690930  93.6925670  55.0441530
  41.4145390  87.2028630  40.9438260  40.7899570  87.1988500  41.6691570
  41.3275510  86.3359590  40.5474230  40.3362470  88.1265260  47.9222030
  40.6334800  89.0328090  47.8414050  40.8848030  87.6384040  47.3081600
  38.0900790  92.7051500  43.7913680  37.8641710  92.4888670  44.6960300
  37.3093320  93.1379960  43.4459650  45.3198550  92.7114870  42.3904330
  44.7207440  93.4350670  42.2067950  45.8678160  92.6491650  41.6080780
  40.5300000  93.6037080  54.4573950  40.4343600  92.6631810  54.3074350
  41.3731980  93.8252150  54.0622020  43.9263420  91.3478410  44.4207610
  44.3192990  91.6650610  43.6076300  44.2880270  90.4690290  44.5352130
  35.6610540  90.0150750  52.6107730  35.2673930  90.8625960  52.8180510
  34.9728940  89.3777120  52.8016370  42.2355590  90.0985720  55.6804470
  41.5453910  89.9057920  56.3150560  42.9787890  90.3820360  56.2128770
  32.9627590  87.9379210  46.6437810  32.6740640  88.5082070  47.3562790
  33.7073350  87.4583660  47.0069040  33.1497820  91.8799330  37.8540530
  33.0672490  92.8230090  37.9955520  32.7980880  91.7374240  36.9752880
  44.5118560  93.9384160  48.5158390  43.7799680  94.4470970  48.8648490
  44.1142900  93.1214140  48.2147170  40.9495950  90.6138360  46.9210880
  40.9532010  90.1728310  46.0715420  41.8447070  90.9355690  47.0282700
  36.7998330  90.4964850  45.8805090  36.4598380  90.9740080  46.6372140
  36.0375650  90.0429970  45.5206190  41.0116100  91.6150440  39.9117640
  41.1328920  91.5736920  40.8603460  40.6264610  92.4774590  39.7564370
  44.9744470  89.3917840  47.9281330  44.9917210  89.8426490  48.7723180
  44.7260050  88.4923480  48.1414770  40.0237600  93.9251580  39.3100940
  39.4554500  93.4769830  38.6836850  40.7326600  94.2844360  38.7766090
  48.4015220  86.8050020  53.7667710  48.7260990  86.0739680  54.2925690
  48.4371730  86.4863660  52.8648700  35.1006780  97.8263600  53.1867670
  34.7161570  97.1857270  53.7850630  35.4118970  98.5299720  53.7562400
  41.2503920  94.6740140  48.6676290  41.6174050  94.1998710  49.4137630
  41.0608980  95.5481710  49.0084630  34.1144410  89.4183830  44.7969760
  33.8291330  89.0539500  45.6348380  34.0523270  88.6864290  44.1832900
  39.0403290  93.7148780  50.9860500  38.7360360  94.5940760  51.2110860
  39.9949750  93.7748570  51.0217940  37.5685080  97.9209770  41.5827350
  36.7947340  97.3807390  41.4226070  38.2979710  97.4016380  41.2445110
  48.3273060  96.9175130  47.3753740  49.0472180  97.4130420  46.9849850
  48.1254880  96.2393020  46.7307610  43.7883000  88.3113090  41.5183130
  42.9747610  87.8126260  41.4428440  43.5944950  89.1511340  41.1019480
  43.7091860  96.9884190  53.2622740  43.6429170  96.0679860  53.0080330
  43.0797000  97.0859630  53.9767380  46.5031390  92.6832740  39.8145290
  47.3911010  92.9949970  39.6396630  46.4736480  91.8104990  39.4225870
  37.6122480  97.5890150  45.2206160  38.1301150  96.7858410  45.1663050
  37.1606500  97.5269290  46.0622990  42.4991980  98.8556430  40.4933460
  42.8407680  99.5998660  39.9976780  41.6704690  99.1687550  40.8558290
  35.0967020  94.5551520  52.1331860  34.7381960  95.2205370  52.7205200
  34.8021580  93.7235070  52.5044480  38.2980140  95.0135760  55.0171410
  37.9980280  95.1592940  54.1199230  39.0691380  94.4541050  54.9244800
  43.6408590  99.8104760  53.0126540  43.6553130  98.8785720  52.7945450
  42.9333690  99.8964520  53.6516310  48.7745660  93.9944580  39.2825150
  48.6909380  94.4258800  38.4321590  49.4939850  94.4542930  39.7151970
  49.8519800  96.4512100  52.3595120  49.1267990  97.0440880  52.1624510
  50.3795260  96.4435640  51.5608490  49.8032910 100.8486840  42.0107280
  49.1609070 100.1942460  42.2851000  49.4163570 101.2541930  41.2347950
  45.3819390  98.1772270  45.8578970  45.7343210  97.5800400  45.1980340
  44.4981720  97.8516500  46.0287220  41.4682670  98.9369960  43.2649380
  42.1553800  99.4839170  43.6456970  40.6815090  99.4810690  43.2998990
  33.6075070  94.5542780  38.7566460  34.4769920  94.8367580  39.0402380
  33.1165390  95.3678650  38.6415270  40.7709880  95.9415990  42.8774740
  41.2272660  96.7521240  43.1034930  40.4198090  95.6239130  43.7093230
  43.0742490 101.4522330  50.1067040  43.7184710 101.6581710  50.7840460
  43.4371930 100.6910730  49.6537890  36.6721660  86.2853640  43.3497260
  36.5436290  86.2771540  44.2982180  35.8483680  86.6236730  42.9988270
  44.3474570  99.4554680  48.8244490  44.9896800  98.7547840  48.9376660
  44.8723920 100.2353120  48.6441380  48.1930290  99.7403300  38.5483630
  47.9667870  99.0233740  39.1408270  47.8026490  99.4915740  37.7105380
  46.1212190 100.2549580  52.0280550  46.4568430 100.8416270  52.7058470
  45.2012530 100.1242290  52.2578340  33.9746320 103.7670160  39.3228090
  34.3343960 104.3659500  38.6685360  33.8338660 104.3130050  40.0963120
  33.6715590  88.0444760  52.8103960  32.9574110  88.2441680  53.4156570
  34.0910630  87.2684330  53.1818760  47.7746540  97.6575240  40.2097790
  47.4868240  98.1187930  40.9975670  48.5698710  97.1973010  40.4782010
  33.9588180 102.0325020  53.7970490  34.0679300 101.0919760  53.6565880
  33.3068740 102.2979770  53.1484220  41.9500770 100.3040910  55.1968610
  41.6297640  99.5850150  55.7414300  41.2759130 100.9795980  55.2704670
  39.9914940 101.1501360  40.1401760  39.9825040 101.8831050  39.5246270
  39.0713300 100.9032940  40.2328720  35.5921580  96.3716250  40.8848520
  34.9849530  97.1115150  40.8943820  36.0670930  96.4615610  40.0586720
  45.1654370  90.5367070  50.5605410  45.5335190  89.7162280  50.8884980
  44.3052570  90.5968960  50.9761060  48.5316400  89.4924010  41.3692970
  47.9029560  89.5969680  40.6551200  48.0368320  89.7120790  42.1586850
  42.9774540 101.2129600  38.8026950  43.0786520 101.0093590  37.8728930
  42.0776280 100.9587880  39.0074730  40.5000430  91.7709960  42.7850850
  39.7916580  92.2396300  43.2264460  40.7844910  91.1131970  43.4196040
  42.1256360  93.1906660  50.7843380  42.6241610  93.6652480  51.4495230
  42.2679310  92.2670180  50.9913410  44.5315860  88.4960620  44.2246640
  44.4083640  88.5146750  43.2756150  45.4800420  88.5439560  44.3445040
  41.6192650 103.7315920  43.4974620  41.8734150 103.6937310  42.5753990
  40.6705130 103.6049250  43.4902870  38.7035450  90.0795040  40.1601560
  39.5525980  90.5165190  40.0941750  38.3366720  90.3915300  40.9873620
  49.3323220  89.4074620  51.6271770  48.8296820  90.1480020  51.9665580
  50.1479880  89.7958620  51.3108560  47.6245230  94.6507800  45.0733130
  46.6835370  94.6658030  45.2480820  47.9389300  93.8643760  45.5193430
  37.6026870  96.3327400  38.6337090  38.3690140  96.2208760  39.1962520
  37.6801560  95.6365370  37.9813860  36.2973630  93.7652470  39.3169980
  36.3777220  92.8179980  39.4287380  37.1893380  94.0959350  39.4230640
  49.6270810 101.8216650  46.7487390  49.7518230 102.6447820  47.2211200
  50.4936370 101.6107380  46.4011540  37.0988340 103.9147860  46.4204520
  37.8350820 103.3663320  46.6913090  37.4829260 104.7803870  46.2810510
  33.9833820  99.9821430  42.2946030  33.0573600 100.2242570  42.2851440
  34.4490250 100.8095690  42.1730780  36.1046620 103.0993930  55.6090100
  36.9059350 103.4205980  56.0225500  35.5898440 102.7389510  56.3310010
  40.2090650 103.0878170  38.2430090  41.0019260 103.3767000  37.7911880
  39.6895000 102.6570340  37.5642570  44.9411250  99.2073800  55.5565510
  44.3349410  99.2305400  54.8161260  44.6365360  98.4756840  56.0932760
  46.3711620 102.9354090  54.1674920  47.3233370 102.8512110  54.1175160
  46.2239840 103.5995800  54.8408710  49.2620820 102.3148300  39.6666830
  48.9762330 101.9013440  38.8521010  49.0640370 103.2436010  39.5467350
  33.8244430  95.5867390  54.5526150  34.3283450  95.0074670  55.1242380
  33.0851850  95.8707620  55.0902520  40.7268050  98.3081580  38.1072440
  40.6218690  97.6933930  38.8333820  40.5592270  97.7847470  37.3235450
  40.8782370  96.9938380  54.0861670  40.1128040  97.5623380  54.0016340
  41.0598330  96.7014590  53.1929900  43.9670780  97.3701610  38.7114430
  43.4180880  97.8170910  39.3557170  44.5890040  96.8650860  39.2352100
  48.0205720  98.7243710  54.6436690  48.7615190  99.0619470  54.1404150
  47.2578400  98.8935770  54.0906460  35.8567510  93.7296980  55.4476220
  35.8972850  93.4310850  56.3561450  36.7113010  94.1304590  55.2883740
  39.6345900  96.3292530  40.6079730  40.0562320  96.1632400  41.4511120
  39.7596740  95.5192760  40.1134870  37.7973320  92.3089080  53.4150710
  37.2669780  91.8180030  52.7874050  38.4661390  92.7373280  52.8808640
  42.1473540  95.3530140  37.8556830  42.6679200  94.6379160  37.4897980
  42.7941940  95.9916010  38.1557340  46.6951380  96.7758540  53.1791900
  47.1092400  96.9303620  54.0282320  45.7602380  96.9013760  53.3417680
  47.1673550  94.1154700  55.1831050  47.7494320  93.3607020  55.0951530
  47.3435320  94.6462140  54.4062530  38.2845620  89.2751450  53.4948000
  38.1902490  88.6572200  52.7698870  37.7043010  90.0017740  53.2677910
  41.0507060  87.8324690  50.5275390  40.6024360  87.8548950  49.6820940
  40.4172260  87.4343710  51.1245690  41.4566610  96.7279020  51.1487830
  41.8754720  97.5711750  50.9764070  40.5375240  96.8651060  50.9194610
  43.7930510  94.4595200  52.5325670  43.9126720  93.8636340  53.2720510
  44.6524510  94.4964890  52.1126970  46.1318410  95.0132390  51.1088180
  45.6053630  95.5375010  50.5053320  46.4749750  95.6459780  51.7397910
  38.5304800  92.4025760  37.5537890  38.3293860  91.5393120  37.9151230
  38.3596850  92.3159120  36.6159490  39.3074030 103.0332030  52.2645560
  38.7695120 103.7578090  51.9454260  39.5607990 102.5562370  51.4742900
  40.5599280  91.0016550  53.7901490  41.1498970  90.6932400  54.4779310
  39.7419520  90.5296300  53.9461390  45.3792710  90.6182360  54.0234510
  44.6908230  89.9563900  53.9584500  46.0998730  90.1720630  54.4682970
  46.0093110  87.2133990  40.0824770  46.2895400  86.3701890  40.4384190
  45.2358840  87.4457100  40.5963520  37.3287600  89.5026380  37.5415770
  37.6313500  89.5093810  36.6334920  38.0682190  89.1524240  38.0383430
  42.1636240 104.2683240  52.5232210  42.0894940 105.1718380  52.8304580
  41.2615080 103.9495140  52.4954280  40.5472530  88.4461000  38.5271970
  40.1994530  87.7684990  37.9474420  40.7485300  87.9850510  39.3415360
  42.7121570 103.4341750  40.1458570  43.6072360 103.7726720  40.1677330
  42.7439200 102.7121160  39.5182850  36.3517730  98.8068800  38.3745570
  36.7892600  99.3498470  39.0303150  36.8365460  97.9815750  38.3841910
  33.5663530 101.5957830  45.8265830  33.8966540 100.7278890  45.5944470
  33.9954530 101.8016350  46.6570790  38.1625450  99.9266840  43.4867800
  37.8620990  99.8031810  44.3871710  38.0562940  99.0675430  43.0783530
  34.0553740 102.4628420  48.5647460  33.6184730 102.6429220  49.3971610
  34.6231420 103.2203040  48.4229180  49.6915920 101.9645420  52.8524770
  49.0917910 102.0237980  52.1088690  49.8209820 101.0250400  52.9821620
  50.9317370  99.7063240  38.1894480  50.1010330  99.7739890  38.6601710
  51.1089200 100.5967360  37.8861340  50.3873830  96.4510720  40.6928680
  51.1492740  97.0207370  40.7988370  50.4028200  95.8837920  41.4636990
  33.8878170  94.9748650  44.9236340  33.2327010  94.7060290  44.2796040
  34.7256120  94.8653130  44.4738320  51.3933800  97.3060820  45.5370610
  51.7642630  96.5228140  45.1306580  52.0335730  97.9949920  45.3587910
  48.3767560  98.6897400  50.9500930  47.5627400  99.1194560  51.2126720
  48.7841760  99.3015810  50.3369980  50.4393000  96.7445090  37.8501200
  50.7141840  97.6523970  37.7220420  50.2503740  96.6807620  38.7863190
  46.8368610  89.7689940  39.1454830  47.2553490  89.5820920  38.3051490
  46.5304670  88.9168990  39.4557760  50.3358340  94.6814080  42.8430630
  49.9601940  93.9142010  42.4111920  49.6061460  95.0636780  43.3305560
  34.9254100  95.3601220  49.4639680  35.2927140  95.2728620  50.3435700
  34.3564920  94.5967770  49.3646540  49.7257960  93.8285600  52.4770150
  49.4944050  93.5998350  51.5768100  49.9862510  94.7485150  52.4315040
  34.4770100  92.2710310  53.3698100  33.5826150  92.2377070  53.7091810
  35.0167650  92.4697100  54.1349350  48.1646030  89.0542030  55.2549850
  49.0416210  89.0625430  55.6383850  48.1766870  88.3172870  54.6442200
  33.1016250  92.1847580  40.8661670  32.1980330  92.4477780  40.6913330
  33.5856870  92.4558750  40.0861630  35.6443460  91.2413120  38.7756050
  36.3535160  90.8196340  38.2903330  34.9283400  91.3088350  38.1439400
  35.2917620  87.2952450  37.8158700  36.0145750  87.8361390  38.1339920
  35.5642140  87.0215870  36.9400240  49.1009270  92.1644920  42.0830280
  49.5968390  91.9315790  42.8679160  48.9025340  91.3256760  41.6667920
  34.9809810  86.5458640  47.7181320  35.6286000  85.9956020  47.2776480
  35.4011650  86.8001790  48.5397130  48.8762150  86.7400000  51.0750960
  49.5134370  87.3534140  51.4410150  49.0237040  86.7760660  50.1300190
  51.4186700  88.6313790  37.8574100  52.3436010  88.4994970  37.6492390
  51.3962490  88.7106610  38.8110550  51.4925190  89.4024450  40.4830810
  50.6976690  89.3369570  41.0123720  51.6968470  90.3375090  40.4716160
  48.4343610 103.4416000  44.4769200  49.0302680 103.1200570  43.8003620
  48.6921760 102.9687820  45.2682470  34.7341810  86.7014310  50.4606640
  34.3856630  87.1578130  51.2264820  34.4029510  85.8071440  50.5429070
  36.3406180  99.8733910  54.6259830  36.2975810  99.5026820  55.5074290
  36.4717190 100.8111480  54.7661650  40.0412210 101.4293500  50.2269550
  39.8003570 101.6968060  49.3400070  40.9814850 101.5999230  50.2820410
  42.2466630  87.8926190  53.9826060  42.1855520  88.4848020  54.7321470
  43.1867010  87.7852150  53.8376320  44.8841190  87.5496250  53.6218350
  45.4981600  87.8675540  52.9599430  45.4290750  87.0644840  54.2414210
  51.3016370 103.4487880  51.0280190  50.8074650 103.8456750  50.3107320
  50.6929660 102.8237090  51.4217470  35.4062450  86.2290510  53.7357410
  35.9545440  86.0478560  52.9723520  35.4717760  85.4384620  54.2713720
  36.1794210 102.8196160  51.7457610  35.5854530 102.6880860  52.4847650
  36.1718050 101.9834300  51.2799710  45.6249230  86.1128390  49.9487640
  44.7509070  86.4463500  49.7460570  45.5159980  85.6401570  50.7739510
  46.5321210  88.3199260  51.3329360  46.2034570  87.5051020  50.9531090
  47.4803510  88.2769070  51.2095050  48.9855820 104.0911300  48.3066930
  48.5258790 104.8427110  47.9324950  48.3568280 103.3717770  48.2481730
  35.8106440 100.1854540  50.6965650  35.0840500  99.5659830  50.6291600
  35.8715590 100.5795150  49.8263730  39.4151540 102.3999540  47.4815060
  39.9316560 101.7886900  46.9563320  40.0648920 102.9028320  47.9726070
  42.1547040 103.2908030  48.3084040  42.4424850 103.0362330  47.4317050
  42.6670260 102.7385390  48.8989610  43.3724050  87.0298230  48.8880550
  42.5895840  87.5043730  49.1677310  43.0786980  86.1253060  48.7793730
  34.0936440 103.5028930  43.9062410  33.9258480 102.8699610  44.6044300
  33.2270950 103.7088330  43.5556600  34.7164460  87.3345710  41.4094270
  35.4743820  87.4474590  40.8358300  34.2541630  88.1714910  41.3637700
  41.2578270  89.4484980  44.3996580  40.4452780  89.0741870  44.0592460
  41.7619910  88.6930060  44.7017770  45.7603250  86.1127430  45.6379650
  46.3632620  86.6847640  46.1128170  45.0196240  86.6766870  45.4153550
  48.9037850  86.5148990  40.9119930  49.0988480  87.4132440  41.1787360
  48.1167720  86.2836070  41.4052880  35.6999140 102.1962160  41.3512550
  35.1746760 102.5770190  40.6474510  35.6243720 102.8212930  42.0722260
  37.0889610  87.8609760  39.9496240  37.6182370  87.0739560  39.8204190
  37.7217930  88.5400950  40.1831770  39.2827450  87.5984900  43.0041630
  38.6530190  86.8972210  43.1711760  38.7432590  88.3589030  42.7874790
  42.2219400 104.2124130  55.6752240  43.1486710 103.9768400  55.7188200
  42.2069830 105.0396130  55.1938270  50.4564460 103.7549700  42.6726490
  50.6316650 103.0687440  42.0287410  49.7586030 104.2796750  42.2803160
  39.4083010  86.8768880  55.4394120  39.1267280  87.3802480  54.6754940
  39.7902710  86.0790630  55.0736250  38.2992110 104.1444540  40.2261800
  39.0310930 103.8603820  39.6785690  38.5585780 103.9057820  41.1161180
  37.4606900 100.2609270  40.2308130  36.8315780 100.7294370  40.7793960
  37.5754730  99.4158490  40.6654320  46.0098470  86.2922460  56.0174590
  45.8963920  86.6117070  56.9126110  46.8268210  86.6934970  55.7211870
  48.7896960 103.4393990  55.4993280  49.5822280 102.9443220  55.2919240
  49.0830110 104.1184130  56.1068890  44.9156620  94.3114930  26.3809330
  44.8350670  93.3969540  26.1101040  44.5021040  94.8082000  25.6749040
  43.0474660  96.0893950  28.2618600  42.2716760  95.6094390  28.5517170
  43.6987590  95.4099600  28.0874760  37.0640490  96.4013760  29.1394360
  36.2325370  96.1462470  29.5390870  37.6721470  96.4724530  29.8752280
  47.0682090 100.4954140  27.0417730  46.6063620  99.7241380  27.3704900
  47.8807640 100.5220210  27.5470180  37.0441750 100.4353850  29.3352380
  37.3469790  99.5451590  29.1562600  37.7885340 100.9924070  29.1074630
  35.4732440  91.3615650  22.9236750  34.5849140  91.7031620  22.8216630
  35.7573630  91.1615970  22.0317580  33.4365450  93.9621300  28.8076450
  34.0081560  93.1943500  28.8080090  33.4366990  94.2610060  27.8983060
  43.2945400 102.7812150  26.6621720  42.6756840 103.2369650  26.0916160
  44.1497180 102.9363610  26.2611420  42.4883650  98.7651140  28.2688760
  42.4191930  97.8241080  28.1077890  43.2503510  98.8552550  28.8411330
  34.6790320  89.3705660  30.5945380  34.4993160  88.4731410  30.8748140
  34.2770400  89.9177530  31.2692330  43.5188820  91.5721520  28.4957690
  43.8953640  90.6993400  28.3831360  43.4208330  91.9080220  27.6048130
  37.6493830  89.9447150  23.9575130  37.7560580  90.8450880  24.2643890
  36.7386190  89.8965120  23.6669780  47.3012940  89.0671960  25.4286030
  48.1222560  88.5768530  25.4711510  47.3347020  89.6569620  26.1817870
  35.2976990  91.8666160  29.2027720  35.9787100  92.1304530  29.8215120
  34.9825040  91.0267030  29.5365730  39.4901560  92.9133520  28.2900310
  39.9979780  93.4114490  28.9305330  40.0214800  92.1368720  28.1139670
  51.5912490  91.0838710  31.9929660  50.8864660  91.4720420  31.4744770
  51.8570410  91.7789000  32.5950590  37.7737660  87.5532080  32.5563730
  37.7756100  88.0704470  31.7509630  36.9441970  87.0762260  32.5333660
  44.1608750  97.6651390  24.0553630  43.5426020  98.1300840  23.4916350
  44.6732000  98.3578870  24.4723140  39.0240510  97.1927260  30.7337230
  38.6909890  97.8196180  31.3758300  39.2007190  97.7189140  29.9538900
  47.5374420  91.0072340  28.2013570  46.8329990  91.2957230  28.7816680
  47.8986580  91.8172450  27.8413130  37.4552990  89.2642040  30.5634180
  37.7969800  90.1084090  30.2688050  36.5168800  89.4125780  30.6799520
  38.2359610  99.1608060  32.5486410  38.8533610  99.8359140  32.2670860
  37.3752730  99.5696040  32.4573910  33.5291950  98.3507920  21.4293260
  33.1519930  98.8395020  20.6978160  33.7865020  99.0233200  22.0599790
  49.1537200 100.6247470  30.4641050  48.4700720 101.2946580  30.4557720
  49.6931490 100.8228120  29.6985910  50.6061340  90.4527130  28.5922780
  49.6586250  90.4866110  28.7238210  50.9311330  91.2666080  28.9772140
  41.1380880  86.7524310  26.8878770  41.4455860  86.1971200  26.1714270
  40.2081580  86.8868770  26.7051760  46.6895940 102.4691600  29.1786230
  46.7023100 102.0653890  28.3108490  46.1371160 103.2438890  29.0747660
  47.9841360  99.1907820  24.2676400  47.8737690  98.2482150  24.3925820
  47.9809610  99.5523460  25.1539160  46.0881380  97.3721440  30.5068840
  46.5050170  97.1581550  29.6722300  46.8121200  97.6294230  31.0777460
  43.5261640  94.8173140  23.6238890  42.5990920  94.7510520  23.8527360
  43.6786460  95.7553270  23.5094130  43.5130720  91.0890140  20.6206050
  42.5734390  91.2504100  20.7058510  43.8313980  91.8075820  20.0742040
  50.0343480  95.7708660  30.5985080  49.2062110  95.8401750  30.1235210
  50.6293960  96.3562970  30.1300910  47.5558930  96.3793440  24.1274140
  46.9371350  96.0412990  23.4800440  47.5383380  95.7353200  24.8353330
  46.9985490  92.5577980  31.5439950  46.5856670  93.3831690  31.7979940
  46.2661440  91.9723020  31.3516310  39.1318280  95.3437880  26.4058620
  38.7275280  94.6315130  25.9104520  39.2181400  94.9991120  27.2946660
  39.5999980  99.0305440  28.5697830  39.3028270  98.4250910  27.8905610
  40.5499800  99.0682750  28.4587190  37.8446900  92.1181090  30.1857660
  38.3961490  92.2276430  29.4110910  38.3590410  92.4918690  30.9012890
  47.6885590 102.6037310  32.2320930  47.2116150 103.4109500  32.0393540
  47.0047380 101.9515640  32.3847140  38.6918410  98.7687130  35.2205630
  37.7946940  98.9927100  35.4679030  38.7171280  98.8922070  34.2717030
  45.7323630  95.6180250  21.1346890  46.1716910  94.7802680  20.9884710
  46.4452050  96.2509650  21.2211030  37.5189630  95.6400450  33.7963000
  37.3797400  96.5123250  34.1650400  36.6370990  95.2973260  33.6510940
  43.8419010 100.5576320  25.1028130  44.2814920 101.3000650  24.6883520
  43.7805900 100.8002890  26.0267090  39.3169980 101.5822150  36.0048150
  39.2885410 101.9865100  35.1376580  39.1534950 100.6532510  35.8419750
  49.3140770  86.8723060  19.4487930  49.0013430  86.9649890  20.3487000
  50.0753240  87.4504090  19.3985360  35.8322910  94.2382860  23.9065270
  35.7120510  94.9644950  23.2946540  35.5223800  93.4685770  23.4293180
  51.2684800 102.3649250  37.3012320  51.7444520 102.8432140  37.9801400
  51.8891960 102.2966740  36.5757820  33.4708280  97.4098000  29.7133910
  33.5488700  97.5446770  28.7689630  34.0849960  96.7013890  29.9062030
  34.7155910  99.1098190  26.1240090  34.3083990  99.2512780  25.2693690
  35.6068920  98.8258350  25.9211300  50.6718050  99.5562100  34.4612330
  50.7981110  99.3173980  33.5429510  50.7139430  98.7246640  34.9334410
  44.5334790 103.2590100  33.0307140  45.0479460 103.1698110  33.8329570
  43.6903870 103.6049800  33.3235050  46.5089190 103.5445440  22.4591140
  46.3490330 103.2548380  23.3572970  46.3435900 102.7685570  21.9236370
  38.9877570 103.3243970  24.2362760  38.8120050 102.4079510  24.0230560
  38.1333310 103.6831260  24.4760560  46.2115320 101.0533000  21.0189140
  45.5180480 101.0510290  20.3591420  46.9538180 100.6292320  20.5883310
  45.7765250 102.6795710  25.0937630  46.2322200 101.8985090  25.4076250
  46.1157770 103.3902530  25.6378810  50.5242060  91.6094560  35.4262070
  49.9086330  92.1174230  34.8977530  50.2038480  90.7092890  35.3688010
  33.5267800  98.4512170  32.2528370  33.6898840  97.9817530  31.4347740
  33.9920250  97.9435730  32.9177210  38.2986570  87.5817930  27.2888940
  37.8554720  88.3627470  26.9573460  38.8571560  87.9047820  27.9959880
  42.5856380  90.4486450  32.8924260  42.1235750  90.6569470  33.7044200
  42.1834490  89.6345800  32.5894930  47.5860890  91.6695400  34.0220920
  46.7354480  91.3701150  34.3429990  47.4262680  91.9137410  33.1104740
  44.6810600  93.1697150  36.1219710  45.0064010  92.3360900  35.7821940
  45.4690930  93.6925670  36.2698040  41.4145390  87.2028630  22.1694770
  40.7899570  87.1988500  22.8948080  41.3275510  86.3359590  21.7730740
  40.3362470  88.1265260  29.1478540  40.6334800  89.0328090  29.0670560
  40.8848030  87.6384040  28.5338110  38.0900790  92.7051500  25.0170190
  37.8641710  92.4888670  25.9216810  37.3093320  93.1379960  24.6716160
  45.3198550  92.7114870  23.6160840  44.7207440  93.4350670  23.4324460
  45.8678160  92.6491650  22.8337290  40.5300000  93.6037080  35.6830460
  40.4343600  92.6631810  35.5330860  41.3731980  93.8252150  35.2878530
  43.9263420  91.3478410  25.6464120  44.3192990  91.6650610  24.8332810
  44.2880270  90.4690290  25.7608640  35.6610540  90.0150750  33.8364240
  35.2673930  90.8625960  34.0437020  34.9728940  89.3777120  34.0272880
  42.2355590  90.0985720  36.9060980  41.5453910  89.9057920  37.5407070
  42.9787890  90.3820360  37.4385280  32.9627590  87.9379210  27.8694320
  32.6740640  88.5082070  28.5819300  33.7073350  87.4583660  28.2325550
  33.1497820  91.8799330  19.0797040  33.0672490  92.8230090  19.2212030
  32.7980880  91.7374240  18.2009390  44.5118560  93.9384160  29.7414900
  43.7799680  94.4470970  30.0905000  44.1142900  93.1214140  29.4403680
  40.9495950  90.6138360  28.1467390  40.9532010  90.1728310  27.2971930
  41.8447070  90.9355690  28.2539210  36.7998330  90.4964850  27.1061600
  36.4598380  90.9740080  27.8628650  36.0375650  90.0429970  26.7462700
  41.0116100  91.6150440  21.1374150  41.1328920  91.5736920  22.0859970
  40.6264610  92.4774590  20.9820880  44.9744470  89.3917840  29.1537840
  44.9917210  89.8426490  29.9979690  44.7260050  88.4923480  29.3671280
  40.0237600  93.9251580  20.5357450  39.4554500  93.4769830  19.9093360
  40.7326600  94.2844360  20.0022600  48.4015220  86.8050020  34.9924220
  48.7260990  86.0739680  35.5182200  48.4371730  86.4863660  34.0905210
  35.1006780  97.8263600  34.4124180  34.7161570  97.1857270  35.0107140
  35.4118970  98.5299720  34.9818910  41.2503920  94.6740140  29.8932800
  41.6174050  94.1998710  30.6394140  41.0608980  95.5481710  30.2341140
  34.1144410  89.4183830  26.0226270  33.8291330  89.0539500  26.8604890
  34.0523270  88.6864290  25.4089410  39.0403290  93.7148780  32.2117010
  38.7360360  94.5940760  32.4367370  39.9949750  93.7748570  32.2474450
  37.5685080  97.9209770  22.8083860  36.7947340  97.3807390  22.6482580
  38.2979710  97.4016380  22.4701620  48.3273060  96.9175130  28.6010250
  49.0472180  97.4130420  28.2106360  48.1254880  96.2393020  27.9564120
  43.7883000  88.3113090  22.7439640  42.9747610  87.8126260  22.6684950
  43.5944950  89.1511340  22.3275990  43.7091860  96.9884190  34.4879250
  43.6429170  96.0679860  34.2336840  43.0797000  97.0859630  35.2023890
  46.5031390  92.6832740  21.0401800  47.3911010  92.9949970  20.8653140
  46.4736480  91.8104990  20.6482380  37.6122480  97.5890150  26.4462670
  38.1301150  96.7858410  26.3919560  37.1606500  97.5269290  27.2879500
  42.4991980  98.8556430  21.7189970  42.8407680  99.5998660  21.2233290
  41.6704690  99.1687550  22.0814800  35.0967020  94.5551520  33.3588370
  34.7381960  95.2205370  33.9461710  34.8021580  93.7235070  33.7300990
  38.2980140  95.0135760  36.2427920  37.9980280  95.1592940  35.3455740
  39.0691380  94.4541050  36.1501310  43.6408590  99.8104760  34.2383050
  43.6553130  98.8785720  34.0201960  42.9333690  99.8964520  34.8772820
  48.7745660  93.9944580  20.5081660  48.6909380  94.4258800  19.6578100
  49.4939850  94.4542930  20.9408480  49.8519800  96.4512100  33.5851630
  49.1267990  97.0440880  33.3881020  50.3795260  96.4435640  32.7865000
  49.8032910 100.8486840  23.2363790  49.1609070 100.1942460  23.5107510
  49.4163570 101.2541930  22.4604460  45.3819390  98.1772270  27.0835480
  45.7343210  97.5800400  26.4236850  44.4981720  97.8516500  27.2543730
  41.4682670  98.9369960  24.4905890  42.1553800  99.4839170  24.8713480
  40.6815090  99.4810690  24.5255500  33.6075070  94.5542780  19.9822970
  34.4769920  94.8367580  20.2658890  33.1165390  95.3678650  19.8671780
  40.7709880  95.9415990  24.1031250  41.2272660  96.7521240  24.3291440
  40.4198090  95.6239130  24.9349740  43.0742490 101.4522330  31.3323550
  43.7184710 101.6581710  32.0096970  43.4371930 100.6910730  30.8794400
  36.6721660  86.2853640  24.5753770  36.5436290  86.2771540  25.5238690
  35.8483680  86.6236730  24.2244780  44.3474570  99.4554680  30.0501000
  44.9896800  98.7547840  30.1633170  44.8723920 100.2353120  29.8697890
  48.1930290  99.7403300  19.7740140  47.9667870  99.0233740  20.3664780
  47.8026490  99.4915740  18.9361890  46.1212190 100.2549580  33.2537060
  46.4568430 100.8416270  33.9314980  45.2012530 100.1242290  33.4834850
  33.9746320 103.7670160  20.5484600  34.3343960 104.3659500  19.8941870
  33.8338660 104.3130050  21.3219630  33.6715590  88.0444760  34.0360470
  32.9574110  88.2441680  34.6413080  34.0910630  87.2684330  34.4075270
  47.7746540  97.6575240  21.4354300  47.4868240  98.1187930  22.2232180
  48.5698710  97.1973010  21.7038520  33.9588180 102.0325020  35.0227000
  34.0679300 101.0919760  34.8822390  33.3068740 102.2979770  34.3740730
  41.9500770 100.3040910  36.4225120  41.6297640  99.5850150  36.9670810
  41.2759130 100.9795980  36.4961180  39.9914940 101.1501360  21.3658270
  39.9825040 101.8831050  20.7502780  39.0713300 100.9032940  21.4585230
  35.5921580  96.3716250  22.1105030  34.9849530  97.1115150  22.1200330
  36.0670930  96.4615610  21.2843230  45.1654370  90.5367070  31.7861920
  45.5335190  89.7162280  32.1141490  44.3052570  90.5968960  32.2017570
  48.5316400  89.4924010  22.5949480  47.9029560  89.5969680  21.8807710
  48.0368320  89.7120790  23.3843360  42.9774540 101.2129600  20.0283460
  43.0786520 101.0093590  19.0985440  42.0776280 100.9587880  20.2331240
  40.5000430  91.7709960  24.0107360  39.7916580  92.2396300  24.4520970
  40.7844910  91.1131970  24.6452550  42.1256360  93.1906660  32.0099890
  42.6241610  93.6652480  32.6751740  42.2679310  92.2670180  32.2169920
  44.5315860  88.4960620  25.4503150  44.4083640  88.5146750  24.5012660
  45.4800420  88.5439560  25.5701550  41.6192650 103.7315920  24.7231130
  41.8734150 103.6937310  23.8010500  40.6705130 103.6049250  24.7159380
  38.7035450  90.0795040  21.3858070  39.5525980  90.5165190  21.3198260
  38.3366720  90.3915300  22.2130130  49.3323220  89.4074620  32.8528280
  48.8296820  90.1480020  33.1922090  50.1479880  89.7958620  32.5365070
  47.6245230  94.6507800  26.2989640  46.6835370  94.6658030  26.4737330
  47.9389300  93.8643760  26.7449940  37.6026870  96.3327400  19.8593600
  38.3690140  96.2208760  20.4219030  37.6801560  95.6365370  19.2070370
  36.2973630  93.7652470  20.5426490  36.3777220  92.8179980  20.6543890
  37.1893380  94.0959350  20.6487150  49.6270810 101.8216650  27.9743900
  49.7518230 102.6447820  28.4467710  50.4936370 101.6107380  27.6268050
  37.0988340 103.9147860  27.6461030  37.8350820 103.3663320  27.9169600
  37.4829260 104.7803870  27.5067020  33.9833820  99.9821430  23.5202540
  33.0573600 100.2242570  23.5107950  34.4490250 100.8095690  23.3987290
  36.1046620 103.0993930  36.8346610  36.9059350 103.4205980  37.2482010
  35.5898440 102.7389510  37.5566520  40.2090650 103.0878170  19.4686600
  41.0019260 103.3767000  19.0168390  39.6895000 102.6570340  18.7899080
  44.9411250  99.2073800  36.7822020  44.3349410  99.2305400  36.0417770
  44.6365360  98.4756840  37.3189270  46.3711620 102.9354090  35.3931430
  47.3233370 102.8512110  35.3431670  46.2239840 103.5995800  36.0665220
  49.2620820 102.3148300  20.8923340  48.9762330 101.9013440  20.0777520
  49.0640370 103.2436010  20.7723860  33.8244430  95.5867390  35.7782660
  34.3283450  95.0074670  36.3498890  33.0851850  95.8707620  36.3159030
  40.7268050  98.3081580  19.3328950  40.6218690  97.6933930  20.0590330
  40.5592270  97.7847470  18.5491960  40.8782370  96.9938380  35.3118180
  40.1128040  97.5623380  35.2272850  41.0598330  96.7014590  34.4186410
  43.9670780  97.3701610  19.9370940  43.4180880  97.8170910  20.5813680
  44.5890040  96.8650860  20.4608610  48.0205720  98.7243710  35.8693200
  48.7615190  99.0619470  35.3660660  47.2578400  98.8935770  35.3162970
  35.8567510  93.7296980  36.6732730  35.8972850  93.4310850  37.5817960
  36.7113010  94.1304590  36.5140250  39.6345900  96.3292530  21.8336240
  40.0562320  96.1632400  22.6767630  39.7596740  95.5192760  21.3391380
  37.7973320  92.3089080  34.6407220  37.2669780  91.8180030  34.0130560
  38.4661390  92.7373280  34.1065150  42.1473540  95.3530140  19.0813340
  42.6679200  94.6379160  18.7154490  42.7941940  95.9916010  19.3813850
  46.6951380  96.7758540  34.4048410  47.1092400  96.9303620  35.2538830
  45.7602380  96.9013760  34.5674190  47.1673550  94.1154700  36.4087560
  47.7494320  93.3607020  36.3208040  47.3435320  94.6462140  35.6319040
  38.2845620  89.2751450  34.7204510  38.1902490  88.6572200  33.9955380
  37.7043010  90.0017740  34.4934420  41.0507060  87.8324690  31.7531900
  40.6024360  87.8548950  30.9077450  40.4172260  87.4343710  32.3502200
  41.4566610  96.7279020  32.3744340  41.8754720  97.5711750  32.2020580
  40.5375240  96.8651060  32.1451120  43.7930510  94.4595200  33.7582180
  43.9126720  93.8636340  34.4977020  44.6524510  94.4964890  33.3383480
  46.1318410  95.0132390  32.3344690  45.6053630  95.5375010  31.7309830
  46.4749750  95.6459780  32.9654420  38.5304800  92.4025760  18.7794400
  38.3293860  91.5393120  19.1407740  38.3596850  92.3159120  17.8416000
  39.3074030 103.0332030  33.4902070  38.7695120 103.7578090  33.1710770
  39.5607990 102.5562370  32.6999410  40.5599280  91.0016550  35.0158000
  41.1498970  90.6932400  35.7035820  39.7419520  90.5296300  35.1717900
  45.3792710  90.6182360  35.2491020  44.6908230  89.9563900  35.1841010
  46.0998730  90.1720630  35.6939480  46.0093110  87.2133990  21.3081280
  46.2895400  86.3701890  21.6640700  45.2358840  87.4457100  21.8220030
  37.3287600  89.5026380  18.7672280  37.6313500  89.5093810  17.8591430
  38.0682190  89.1524240  19.2639940  42.1636240 104.2683240  33.7488720
  42.0894940 105.1718380  34.0561090  41.2615080 103.9495140  33.7210790
  40.5472530  88.4461000  19.7528480  40.1994530  87.7684990  19.1730930
  40.7485300  87.9850510  20.5671870  42.7121570 103.4341750  21.3715080
  43.6072360 103.7726720  21.3933840  42.7439200 102.7121160  20.7439360
  36.3517730  98.8068800  19.6002080  36.7892600  99.3498470  20.2559660
  36.8365460  97.9815750  19.6098420  33.5663530 101.5957830  27.0522340
  33.8966540 100.7278890  26.8200980  33.9954530 101.8016350  27.8827300
  38.1625450  99.9266840  24.7124310  37.8620990  99.8031810  25.6128220
  38.0562940  99.0675430  24.3040040  34.0553740 102.4628420  29.7903970
  33.6184730 102.6429220  30.6228120  34.6231420 103.2203040  29.6485690
  49.6915920 101.9645420  34.0781280  49.0917910 102.0237980  33.3345200
  49.8209820 101.0250400  34.2078130  50.9317370  99.7063240  19.4150990
  50.1010330  99.7739890  19.8858220  51.1089200 100.5967360  19.1117850
  50.3873830  96.4510720  21.9185190  51.1492740  97.0207370  22.0244880
  50.4028200  95.8837920  22.6893500  33.8878170  94.9748650  26.1492850
  33.2327010  94.7060290  25.5052550  34.7256120  94.8653130  25.6994830
  51.3933800  97.3060820  26.7627120  51.7642630  96.5228140  26.3563090
  52.0335730  97.9949920  26.5844420  48.3767560  98.6897400  32.1757440
  47.5627400  99.1194560  32.4383230  48.7841760  99.3015810  31.5626490
  50.4393000  96.7445090  19.0757710  50.7141840  97.6523970  18.9476930
  50.2503740  96.6807620  20.0119700  46.8368610  89.7689940  20.3711340
  47.2553490  89.5820920  19.5308000  46.5304670  88.9168990  20.6814270
  50.3358340  94.6814080  24.0687140  49.9601940  93.9142010  23.6368430
  49.6061460  95.0636780  24.5562070  34.9254100  95.3601220  30.6896190
  35.2927140  95.2728620  31.5692210  34.3564920  94.5967770  30.5903050
  49.7257960  93.8285600  33.7026660  49.4944050  93.5998350  32.8024610
  49.9862510  94.7485150  33.6571550  34.4770100  92.2710310  34.5954610
  33.5826150  92.2377070  34.9348320  35.0167650  92.4697100  35.3605860
  48.1646030  89.0542030  36.4806360  49.0416210  89.0625430  36.8640360
  48.1766870  88.3172870  35.8698710  33.1016250  92.1847580  22.0918180
  32.1980330  92.4477780  21.9169840  33.5856870  92.4558750  21.3118140
  49.6109300  92.9071570  27.3694380  50.1346780  92.4134220  26.7384550
  50.1968720  93.0421930  28.1141950  49.7899020  92.9911440  30.8913930
  48.8401730  92.9574980  31.0058920  49.9712030  93.9011550  30.6563700
  35.6443460  91.2413120  20.0012560  36.3535160  90.8196340  19.5159840
  34.9283400  91.3088350  19.3695910  35.2917620  87.2952450  19.0415210
  36.0145750  87.8361390  19.3596430  35.5642140  87.0215870  18.1656750
  49.1009270  92.1644920  23.3086790  49.5968390  91.9315790  24.0935670
  48.9025340  91.3256760  22.8924430  34.9809810  86.5458640  28.9437830
  35.6286000  85.9956020  28.5032990  35.4011650  86.8001790  29.7653640
  50.5296430  90.8005870  25.8424470  50.4195710  90.6461910  26.7806740
  51.2904020  90.2726810  25.5999880  48.8762150  86.7400000  32.3007470
  49.5134370  87.3534140  32.6666660  49.0237040  86.7760660  31.3556700
  51.4186700  88.6313790  19.0830610  52.3436010  88.4994970  18.8748900
  51.3962490  88.7106610  20.0367060  51.4925190  89.4024450  21.7087320
  50.6976690  89.3369570  22.2380230  51.6968470  90.3375090  21.6972670
  48.4343610 103.4416000  25.7025710  49.0302680 103.1200570  25.0260130
  48.6921760 102.9687820  26.4938980  34.7341810  86.7014310  31.6863150
  34.3856630  87.1578130  32.4521330  34.4029510  85.8071440  31.7685580
  36.3406180  99.8733910  35.8516340  36.2975810  99.5026820  36.7330800
  36.4717190 100.8111480  35.9918160  40.0412210 101.4293500  31.4526060
  39.8003570 101.6968060  30.5656580  40.9814850 101.5999230  31.5076920
  42.2466630  87.8926190  35.2082570  42.1855520  88.4848020  35.9577980
  43.1867010  87.7852150  35.0632830  44.8841190  87.5496250  34.8474860
  45.4981600  87.8675540  34.1855940  45.4290750  87.0644840  35.4670720
  51.3016370 103.4487880  32.2536700  50.8074650 103.8456750  31.5363830
  50.6929660 102.8237090  32.6473980  35.4062450  86.2290510  34.9613920
  35.9545440  86.0478560  34.1980030  35.4717760  85.4384620  35.4970230
  36.1794210 102.8196160  32.9714120  35.5854530 102.6880860  33.7104160
  36.1718050 101.9834300  32.5056220  45.6249230  86.1128390  31.1744150
  44.7509070  86.4463500  30.9717080  45.5159980  85.6401570  31.9996020
  46.5321210  88.3199260  32.5585870  46.2034570  87.5051020  32.1787600
  47.4803510  88.2769070  32.4351560  48.9855820 104.0911300  29.5323440
  48.5258790 104.8427110  29.1581460  48.3568280 103.3717770  29.4738240
  35.8106440 100.1854540  31.9222160  35.0840500  99.5659830  31.8548110
  35.8715590 100.5795150  31.0520240  39.4151540 102.3999540  28.7071570
  39.9316560 101.7886900  28.1819830  40.0648920 102.9028320  29.1982580
  42.1547040 103.2908030  29.5340550  42.4424850 103.0362330  28.6573560
  42.6670260 102.7385390  30.1246120  43.3724050  87.0298230  30.1137060
  42.5895840  87.5043730  30.3933820  43.0786980  86.1253060  30.0050240
  47.9245120  87.7321330  28.1586150  48.3653210  87.6766430  27.3107750
  47.6552710  88.6479340  28.2296330  49.7883690  87.3636570  26.1694970
  49.7272090  86.4197790  26.0225990  50.5675720  87.4716660  26.7148430
  34.0936440 103.5028930  25.1318920  33.9258480 102.8699610  25.8300810
  33.2270950 103.7088330  24.7813110  34.7164460  87.3345710  22.6350780
  35.4743820  87.4474590  22.0614810  34.2541630  88.1714910  22.5894210
  41.2578270  89.4484980  25.6253090  40.4452780  89.0741870  25.2848970
  41.7619910  88.6930060  25.9274280  45.7603250  86.1127430  26.8636160
  46.3632620  86.6847640  27.3384680  45.0196240  86.6766870  26.6410060
  48.9037850  86.5148990  22.1376440  49.0988480  87.4132440  22.4043870
  48.1167720  86.2836070  22.6309390  35.6999140 102.1962160  22.5769060
  35.1746760 102.5770190  21.8731020  35.6243720 102.8212930  23.2978770
  37.0889610  87.8609760  21.1752750  37.6182370  87.0739560  21.0460700
  37.7217930  88.5400950  21.4088280  39.2827450  87.5984900  24.2298140
  38.6530190  86.8972210  24.3968270  38.7432590  88.3589030  24.0131300
  42.2219400 104.2124130  36.9008750  43.1486710 103.9768400  36.9444710
  42.2069830 105.0396130  36.4194780  50.4564460 103.7549700  23.8983000
  50.6316650 103.0687440  23.2543920  49.7586030 104.2796750  23.5059670
  39.4083010  86.8768880  36.6650630  39.1267280  87.3802480  35.9011450
  39.7902710  86.0790630  36.2992760  38.2992110 104.1444540  21.4518310
  39.0310930 103.8603820  20.9042200  38.5585780 103.9057820  22.3417690
  37.4606900 100.2609270  21.4564640  36.8315780 100.7294370  22.0050470
  37.5754730  99.4158490  21.8910830  46.0098470  86.2922460  37.2431100
  45.8963920  86.6117070  38.1382620  46.8268210  86.6934970  36.9468380
  48.7896960 103.4393990  36.7249790  49.5822280 102.9443220  36.5175750
  49.0830110 104.1184130  37.3325400  44.9156620  94.3114930   7.6065840
  44.8350670  93.3969540   7.3357550  44.5021040  94.8082000   6.9005550
  43.0474660  96.0893950   9.4875110  42.2716760  95.6094390   9.7773680
  43.6987590  95.4099600   9.3131270  37.0640490  96.4013760  10.3650870
  36.2325370  96.1462470  10.7647380  37.6721470  96.4724530  11.1008790
  47.0682090 100.4954140   8.2674240  46.6063620  99.7241380   8.5961410
  47.8807640 100.5220210   8.7726690  37.0441750 100.4353850  10.5608890
  37.3469790  99.5451590  10.3819110  37.7885340 100.9924070  10.3331140
  35.4732440  91.3615650   4.1493260  34.5849140  91.7031620   4.0473140
  35.7573630  91.1615970   3.2574090  33.4365450  93.9621300  10.0332960
  34.0081560  93.1943500  10.0336600  33.4366990  94.2610060   9.1239570
  43.2945400 102.7812150   7.8878230  42.6756840 103.2369650   7.3172670
  44.1497180 102.9363610   7.4867930  42.4883650  98.7651140   9.4945270
  42.4191930  97.8241080   9.3334400  43.2503510  98.8552550  10.0667840
  34.6790320  89.3705660  11.8201890  34.4993160  88.4731410  12.1004650
  34.2770400  89.9177530  12.4948840  43.5188820  91.5721520   9.7214200
  43.8953640  90.6993400   9.6087870  43.4208330  91.9080220   8.8304640
  37.6493830  89.9447150   5.1831640  37.7560580  90.8450880   5.4900400
  36.7386190  89.8965120   4.8926290  47.3012940  89.0671960   6.6542540
  48.1222560  88.5768530   6.6968020  47.3347020  89.6569620   7.4074380
  35.2976990  91.8666160  10.4284230  35.9787100  92.1304530  11.0471630
  34.9825040  91.0267030  10.7622240  39.4901560  92.9133520   9.5156820
  39.9979780  93.4114490  10.1561840  40.0214800  92.1368720   9.3396180
  51.5912490  91.0838710  13.2186170  50.8864660  91.4720420  12.7001280
  51.8570410  91.7789000  13.8207100  37.7737660  87.5532080  13.7820240
  37.7756100  88.0704470  12.9766140  36.9441970  87.0762260  13.7590170
  44.1608750  97.6651390   5.2810140  43.5426020  98.1300840   4.7172860
  44.6732000  98.3578870   5.6979650  39.0240510  97.1927260  11.9593740
  38.6909890  97.8196180  12.6014810  39.2007190  97.7189140  11.1795410
  47.5374420  91.0072340   9.4270080  46.8329990  91.2957230  10.0073190
  47.8986580  91.8172450   9.0669640  37.4552990  89.2642040  11.7890690
  37.7969800  90.1084090  11.4944560  36.5168800  89.4125780  11.9056030
  38.2359610  99.1608060  13.7742920  38.8533610  99.8359140  13.4927370
  37.3752730  99.5696040  13.6830420  33.5291950  98.3507920   2.6549770
  33.1519930  98.8395020   1.9234670  33.7865020  99.0233200   3.2856300
  49.1537200 100.6247470  11.6897560  48.4700720 101.2946580  11.6814230
  49.6931490 100.8228120  10.9242420  50.6061340  90.4527130   9.8179290
  49.6586250  90.4866110   9.9494720  50.9311330  91.2666080  10.2028650
  41.1380880  86.7524310   8.1135280  41.4455860  86.1971200   7.3970780
  40.2081580  86.8868770   7.9308270  46.6895940 102.4691600  10.4042740
  46.7023100 102.0653890   9.5365000  46.1371160 103.2438890  10.3004170
  47.9841360  99.1907820   5.4932910  47.8737690  98.2482150   5.6182330
  47.9809610  99.5523460   6.3795670  46.0881380  97.3721440  11.7325350
  46.5050170  97.1581550  10.8978810  46.8121200  97.6294230  12.3033970
  43.5261640  94.8173140   4.8495400  42.5990920  94.7510520   5.0783870
  43.6786460  95.7553270   4.7350640  43.5130720  91.0890140   1.8462560
  42.5734390  91.2504100   1.9315020  43.8313980  91.8075820   1.2998550
  50.0343480  95.7708660  11.8241590  49.2062110  95.8401750  11.3491720
  50.6293960  96.3562970  11.3557420  47.5558930  96.3793440   5.3530650
  46.9371350  96.0412990   4.7056950  47.5383380  95.7353200   6.0609840
  46.9985490  92.5577980  12.7696460  46.5856670  93.3831690  13.0236450
  46.2661440  91.9723020  12.5772820  39.1318280  95.3437880   7.6315130
  38.7275280  94.6315130   7.1361030  39.2181400  94.9991120   8.5203170
  39.5999980  99.0305440   9.7954340  39.3028270  98.4250910   9.1162120
  40.5499800  99.0682750   9.6843700  37.8446900  92.1181090  11.4114170
  38.3961490  92.2276430  10.6367420  38.3590410  92.4918690  12.1269400
  47.6885590 102.6037310  13.4577440  47.2116150 103.4109500  13.2650050
  47.0047380 101.9515640  13.6103650  38.6918410  98.7687130  16.4462140
  37.7946940  98.9927100  16.6935540  38.7171280  98.8922070  15.4973540
  45.7323630  95.6180250   2.3603400  46.1716910  94.7802680   2.2141220
  46.4452050  96.2509650   2.4467540  37.5189630  95.6400450  15.0219510
  37.3797400  96.5123250  15.3906910  36.6370990  95.2973260  14.8767450
  43.8419010 100.5576320   6.3284640  44.2814920 101.3000650   5.9140030
  43.7805900 100.8002890   7.2523600  39.3169980 101.5822150  17.2304660
  39.2885410 101.9865100  16.3633090  39.1534950 100.6532510  17.0676260
  35.8322910  94.2382860   5.1321780  35.7120510  94.9644950   4.5203050
  35.5223800  93.4685770   4.6549690  51.2684800 102.3649250  18.5268830
  51.7444520 102.8432140  19.2057910  51.8891960 102.2966740  17.8014330
  33.4708280  97.4098000  10.9390420  33.5488700  97.5446770   9.9946140
  34.0849960  96.7013890  11.1318540  34.7155910  99.1098190   7.3496600
  34.3083990  99.2512780   6.4950200  35.6068920  98.8258350   7.1467810
  50.6718050  99.5562100  15.6868840  50.7981110  99.3173980  14.7686020
  50.7139430  98.7246640  16.1590920  44.5334790 103.2590100  14.2563650
  45.0479460 103.1698110  15.0586080  43.6903870 103.6049800  14.5491560
  46.5089190 103.5445440   3.6847650  46.3490330 103.2548380   4.5829480
  46.3435900 102.7685570   3.1492880  38.9877570 103.3243970   5.4619270
  38.8120050 102.4079510   5.2487070  38.1333310 103.6831260   5.7017070
  46.2115320 101.0533000   2.2445650  45.5180480 101.0510290   1.5847930
  46.9538180 100.6292320   1.8139820  45.7765250 102.6795710   6.3194140
  46.2322200 101.8985090   6.6332760  46.1157770 103.3902530   6.8635320
  50.5242060  91.6094560  16.6518580  49.9086330  92.1174230  16.1234040
  50.2038480  90.7092890  16.5944520  33.5267800  98.4512170  13.4784880
  33.6898840  97.9817530  12.6604250  33.9920250  97.9435730  14.1433720
  38.2986570  87.5817930   8.5145450  37.8554720  88.3627470   8.1829970
  38.8571560  87.9047820   9.2216390  42.5856380  90.4486450  14.1180770
  42.1235750  90.6569470  14.9300710  42.1834490  89.6345800  13.8151440
  47.5860890  91.6695400  15.2477430  46.7354480  91.3701150  15.5686500
  47.4262680  91.9137410  14.3361250  44.6810600  93.1697150  17.3476220
  45.0064010  92.3360900  17.0078450  45.4690930  93.6925670  17.4954550
  41.4145390  87.2028630   3.3951280  40.7899570  87.1988500   4.1204590
  41.3275510  86.3359590   2.9987250  40.3362470  88.1265260  10.3735050
  40.6334800  89.0328090  10.2927070  40.8848030  87.6384040   9.7594620
  38.0900790  92.7051500   6.2426700  37.8641710  92.4888670   7.1473320
  37.3093320  93.1379960   5.8972670  45.3198550  92.7114870   4.8417350
  44.7207440  93.4350670   4.6580970  45.8678160  92.6491650   4.0593800
  40.5300000  93.6037080  16.9086970  40.4343600  92.6631810  16.7587370
  41.3731980  93.8252150  16.5135040  43.9263420  91.3478410   6.8720630
  44.3192990  91.6650610   6.0589320  44.2880270  90.4690290   6.9865150
  35.6610540  90.0150750  15.0620750  35.2673930  90.8625960  15.2693530
  34.9728940  89.3777120  15.2529390  42.2355590  90.0985720  18.1317490
  41.5453910  89.9057920  18.7663580  42.9787890  90.3820360  18.6641790
  32.9627590  87.9379210   9.0950830  32.6740640  88.5082070   9.8075810
  33.7073350  87.4583660   9.4582060  44.5118560  93.9384160  10.9671410
  43.7799680  94.4470970  11.3161510  44.1142900  93.1214140  10.6660190
  40.9495950  90.6138360   9.3723900  40.9532010  90.1728310   8.5228440
  41.8447070  90.9355690   9.4795720  36.7998330  90.4964850   8.3318110
  36.4598380  90.9740080   9.0885160  36.0375650  90.0429970   7.9719210
  41.0116100  91.6150440   2.3630660  41.1328920  91.5736920   3.3116480
  40.6264610  92.4774590   2.2077390  44.9744470  89.3917840  10.3794350
  44.9917210  89.8426490  11.2236200  44.7260050  88.4923480  10.5927790
  48.4015220  86.8050020  16.2180730  48.7260990  86.0739680  16.7438710
  48.4371730  86.4863660  15.3161720  35.1006780  97.8263600  15.6380690
  34.7161570  97.1857270  16.2363650  35.4118970  98.5299720  16.2075420
  41.2503920  94.6740140  11.1189310  41.6174050  94.1998710  11.8650650
  41.0608980  95.5481710  11.4597650  34.1144410  89.4183830   7.2482780
  33.8291330  89.0539500   8.0861400  34.0523270  88.6864290   6.6345920
  39.0403290  93.7148780  13.4373520  38.7360360  94.5940760  13.6623880
  39.9949750  93.7748570  13.4730960  37.5685080  97.9209770   4.0340370
  36.7947340  97.3807390   3.8739090  38.2979710  97.4016380   3.6958130
  48.3273060  96.9175130   9.8266760  49.0472180  97.4130420   9.4362870
  48.1254880  96.2393020   9.1820630  43.7883000  88.3113090   3.9696150
  42.9747610  87.8126260   3.8941460  43.5944950  89.1511340   3.5532500
  43.7091860  96.9884190  15.7135760  43.6429170  96.0679860  15.4593350
  43.0797000  97.0859630  16.4280400  46.5031390  92.6832740   2.2658310
  47.3911010  92.9949970   2.0909650  46.4736480  91.8104990   1.8738890
  37.6122480  97.5890150   7.6719180  38.1301150  96.7858410   7.6176070
  37.1606500  97.5269290   8.5136010  42.4991980  98.8556430   2.9446480
  42.8407680  99.5998660   2.4489800  41.6704690  99.1687550   3.3071310
  35.0967020  94.5551520  14.5844880  34.7381960  95.2205370  15.1718220
  34.8021580  93.7235070  14.9557500  38.2980140  95.0135760  17.4684430
  37.9980280  95.1592940  16.5712250  39.0691380  94.4541050  17.3757820
  43.6408590  99.8104760  15.4639560  43.6553130  98.8785720  15.2458470
  42.9333690  99.8964520  16.1029330  49.8519800  96.4512100  14.8108140
  49.1267990  97.0440880  14.6137530  50.3795260  96.4435640  14.0121510
  49.8032910 100.8486840   4.4620300  49.1609070 100.1942460   4.7364020
  49.4163570 101.2541930   3.6860970  45.3819390  98.1772270   8.3091990
  45.7343210  97.5800400   7.6493360  44.4981720  97.8516500   8.4800240
  41.4682670  98.9369960   5.7162400  42.1553800  99.4839170   6.0969990
  40.6815090  99.4810690   5.7512010  40.7709880  95.9415990   5.3287760
  41.2272660  96.7521240   5.5547950  40.4198090  95.6239130   6.1606250
  43.0742490 101.4522330  12.5580060  43.7184710 101.6581710  13.2353480
  43.4371930 100.6910730  12.1050910  36.6721660  86.2853640   5.8010280
  36.5436290  86.2771540   6.7495200  35.8483680  86.6236730   5.4501290
  44.3474570  99.4554680  11.2757510  44.9896800  98.7547840  11.3889680
  44.8723920 100.2353120  11.0954400  46.1212190 100.2549580  14.4793570
  46.4568430 100.8416270  15.1571490  45.2012530 100.1242290  14.7091360
  33.6715590  88.0444760  15.2616980  32.9574110  88.2441680  15.8669590
  34.0910630  87.2684330  15.6331780  47.7746540  97.6575240   2.6610810
  47.4868240  98.1187930   3.4488690  48.5698710  97.1973010   2.9295030
  33.9588180 102.0325020  16.2483510  34.0679300 101.0919760  16.1078900
  33.3068740 102.2979770  15.5997240  41.9500770 100.3040910  17.6481630
  41.6297640  99.5850150  18.1927320  41.2759130 100.9795980  17.7217690
  39.9914940 101.1501360   2.5914780  39.9825040 101.8831050   1.9759290
  39.0713300 100.9032940   2.6841740  35.5921580  96.3716250   3.3361540
  34.9849530  97.1115150   3.3456840  36.0670930  96.4615610   2.5099740
  45.1654370  90.5367070  13.0118430  45.5335190  89.7162280  13.3398000
  44.3052570  90.5968960  13.4274080  48.5316400  89.4924010   3.8205990
  47.9029560  89.5969680   3.1064220  48.0368320  89.7120790   4.6099870
  40.5000430  91.7709960   5.2363870  39.7916580  92.2396300   5.6777480
  40.7844910  91.1131970   5.8709060  42.1256360  93.1906660  13.2356400
  42.6241610  93.6652480  13.9008250  42.2679310  92.2670180  13.4426430
  44.5315860  88.4960620   6.6759660  44.4083640  88.5146750   5.7269170
  45.4800420  88.5439560   6.7958060  41.6192650 103.7315920   5.9487640
  41.8734150 103.6937310   5.0267010  40.6705130 103.6049250   5.9415890
  38.7035450  90.0795040   2.6114580  39.5525980  90.5165190   2.5454770
  38.3366720  90.3915300   3.4386640  49.3323220  89.4074620  14.0784790
  48.8296820  90.1480020  14.4178600  50.1479880  89.7958620  13.7621580
  47.6245230  94.6507800   7.5246150  46.6835370  94.6658030   7.6993840
  47.9389300  93.8643760   7.9706450  36.2973630  93.7652470   1.7683000
  36.3777220  92.8179980   1.8800400  37.1893380  94.0959350   1.8743660
  49.6270810 101.8216650   9.2000410  49.7518230 102.6447820   9.6724220
  50.4936370 101.6107380   8.8524560  37.0988340 103.9147860   8.8717540
  37.8350820 103.3663320   9.1426110  37.4829260 104.7803870   8.7323530
  33.9833820  99.9821430   4.7459050  33.0573600 100.2242570   4.7364460
  34.4490250 100.8095690   4.6243800  36.1046620 103.0993930  18.0603120
  36.9059350 103.4205980  18.4738520  35.5898440 102.7389510  18.7823030
  44.9411250  99.2073800  18.0078530  44.3349410  99.2305400  17.2674280
  44.6365360  98.4756840  18.5445780  46.3711620 102.9354090  16.6187940
  47.3233370 102.8512110  16.5688180  46.2239840 103.5995800  17.2921730
  49.2620820 102.3148300   2.1179850  48.9762330 101.9013440   1.3034030
  49.0640370 103.2436010   1.9980370  33.8244430  95.5867390  17.0039170
  34.3283450  95.0074670  17.5755400  33.0851850  95.8707620  17.5415540
  40.8782370  96.9938380  16.5374690  40.1128040  97.5623380  16.4529360
  41.0598330  96.7014590  15.6442920  48.0205720  98.7243710  17.0949710
  48.7615190  99.0619470  16.5917170  47.2578400  98.8935770  16.5419480
  35.8567510  93.7296980  17.8989240  35.8972850  93.4310850  18.8074470
  36.7113010  94.1304590  17.7396760  39.6345900  96.3292530   3.0592750
  40.0562320  96.1632400   3.9024140  39.7596740  95.5192760   2.5647890
  37.7973320  92.3089080  15.8663730  37.2669780  91.8180030  15.2387070
  38.4661390  92.7373280  15.3321660  46.6951380  96.7758540  15.6304920
  47.1092400  96.9303620  16.4795340  45.7602380  96.9013760  15.7930700
  47.1673550  94.1154700  17.6344070  47.7494320  93.3607020  17.5464550
  47.3435320  94.6462140  16.8575550  38.2845620  89.2751450  15.9461020
  38.1902490  88.6572200  15.2211890  37.7043010  90.0017740  15.7190930
  41.0507060  87.8324690  12.9788410  40.6024360  87.8548950  12.1333960
  40.4172260  87.4343710  13.5758710  41.4566610  96.7279020  13.6000850
  41.8754720  97.5711750  13.4277090  40.5375240  96.8651060  13.3707630
  43.7930510  94.4595200  14.9838690  43.9126720  93.8636340  15.7233530
  44.6524510  94.4964890  14.5639990  46.1318410  95.0132390  13.5601200
  45.6053630  95.5375010  12.9566340  46.4749750  95.6459780  14.1910930
  39.3074030 103.0332030  14.7158580  38.7695120 103.7578090  14.3967280
  39.5607990 102.5562370  13.9255920  40.5599280  91.0016550  16.2414510
  41.1498970  90.6932400  16.9292330  39.7419520  90.5296300  16.3974410
  45.3792710  90.6182360  16.4747530  44.6908230  89.9563900  16.4097520
  46.0998730  90.1720630  16.9195990  46.0093110  87.2133990   2.5337790
  46.2895400  86.3701890   2.8897210  45.2358840  87.4457100   3.0476540
  42.1636240 104.2683240  14.9745230  42.0894940 105.1718380  15.2817600
  41.2615080 103.9495140  14.9467300  42.7121570 103.4341750   2.5971590
  43.6072360 103.7726720   2.6190350  42.7439200 102.7121160   1.9695870
  33.5663530 101.5957830   8.2778850  33.8966540 100.7278890   8.0457490
  33.9954530 101.8016350   9.1083810  38.1625450  99.9266840   5.9380820
  37.8620990  99.8031810   6.8384730  38.0562940  99.0675430   5.5296550
  34.0553740 102.4628420  11.0160480  33.6184730 102.6429220  11.8484630
  34.6231420 103.2203040  10.8742200  49.6915920 101.9645420  15.3037790
  49.0917910 102.0237980  14.5601710  49.8209820 101.0250400  15.4334640
  50.3873830  96.4510720   3.1441700  51.1492740  97.0207370   3.2501390
  50.4028200  95.8837920   3.9150010  33.8878170  94.9748650   7.3749360
  33.2327010  94.7060290   6.7309060  34.7256120  94.8653130   6.9251340
  51.3933800  97.3060820   7.9883630  51.7642630  96.5228140   7.5819600
  52.0335730  97.9949920   7.8100930  48.3767560  98.6897400  13.4013950
  47.5627400  99.1194560  13.6639740  48.7841760  99.3015810  12.7883000
  50.3358340  94.6814080   5.2943650  49.9601940  93.9142010   4.8624940
  49.6061460  95.0636780   5.7818580  34.9254100  95.3601220  11.9152700
  35.2927140  95.2728620  12.7948720  34.3564920  94.5967770  11.8159560
  49.7257960  93.8285600  14.9283170  49.4944050  93.5998350  14.0281120
  49.9862510  94.7485150  14.8828060  34.4770100  92.2710310  15.8211120
  33.5826150  92.2377070  16.1604830  35.0167650  92.4697100  16.5862370
  48.1646030  89.0542030  17.7062870  49.0416210  89.0625430  18.0896870
  48.1766870  88.3172870  17.0955220  33.1016250  92.1847580   3.3174690
  32.1980330  92.4477780   3.1426350  33.5856870  92.4558750   2.5374650
  49.6109300  92.9071570   8.5950890  50.1346780  92.4134220   7.9641060
  50.1968720  93.0421930   9.3398460  49.7899020  92.9911440  12.1170440
  48.8401730  92.9574980  12.2315430  49.9712030  93.9011550  11.8820210
  49.1009270  92.1644920   4.5343300  49.5968390  91.9315790   5.3192180
  48.9025340  91.3256760   4.1180940  34.9809810  86.5458640  10.1694340
  35.6286000  85.9956020   9.7289500  35.4011650  86.8001790  10.9910150
  50.5296430  90.8005870   7.0680980  50.4195710  90.6461910   8.0063250
  51.2904020  90.2726810   6.8256390  48.8762150  86.7400000  13.5263980
  49.5134370  87.3534140  13.8923170  49.0237040  86.7760660  12.5813210
  51.4925190  89.4024450   2.9343830  50.6976690  89.3369570   3.4636740
  51.6968470  90.3375090   2.9229180  48.4343610 103.4416000   6.9282220
  49.0302680 103.1200570   6.2516640  48.6921760 102.9687820   7.7195490
  34.7341810  86.7014310  12.9119660  34.3856630  87.1578130  13.6777840
  34.4029510  85.8071440  12.9942090  36.3406180  99.8733910  17.0772850
  36.2975810  99.5026820  17.9587310  36.4717190 100.8111480  17.2174670
  40.0412210 101.4293500  12.6782570  39.8003570 101.6968060  11.7913090
  40.9814850 101.5999230  12.7333430  42.2466630  87.8926190  16.4339080
  42.1855520  88.4848020  17.1834490  43.1867010  87.7852150  16.2889340
  44.8841190  87.5496250  16.0731370  45.4981600  87.8675540  15.4112450
  45.4290750  87.0644840  16.6927230  51.3016370 103.4487880  13.4793210
  50.8074650 103.8456750  12.7620340  50.6929660 102.8237090  13.8730490
  35.4062450  86.2290510  16.1870430  35.9545440  86.0478560  15.4236540
  35.4717760  85.4384620  16.7226740  36.1794210 102.8196160  14.1970630
  35.5854530 102.6880860  14.9360670  36.1718050 101.9834300  13.7312730
  45.6249230  86.1128390  12.4000660  44.7509070  86.4463500  12.1973590
  45.5159980  85.6401570  13.2252530  46.5321210  88.3199260  13.7842380
  46.2034570  87.5051020  13.4044110  47.4803510  88.2769070  13.6608070
  48.9855820 104.0911300  10.7579950  48.5258790 104.8427110  10.3837970
  48.3568280 103.3717770  10.6994750  35.8106440 100.1854540  13.1478670
  35.0840500  99.5659830  13.0804620  35.8715590 100.5795150  12.2776750
  39.4151540 102.3999540   9.9328080  39.9316560 101.7886900   9.4076340
  40.0648920 102.9028320  10.4239090  42.1547040 103.2908030  10.7597060
  42.4424850 103.0362330   9.8830070  42.6670260 102.7385390  11.3502630
  43.3724050  87.0298230  11.3393570  42.5895840  87.5043730  11.6190330
  43.0786980  86.1253060  11.2306750  47.9245120  87.7321330   9.3842660
  48.3653210  87.6766430   8.5364260  47.6552710  88.6479340   9.4552840
  49.7883690  87.3636570   7.3951480  49.7272090  86.4197790   7.2482500
  50.5675720  87.4716660   7.9404940  34.0936440 103.5028930   6.3575430
  33.9258480 102.8699610   7.0557320  33.2270950 103.7088330   6.0069620
  34.7164460  87.3345710   3.8607290  35.4743820  87.4474590   3.2871320
  34.2541630  88.1714910   3.8150720  41.2578270  89.4484980   6.8509600
  40.4452780  89.0741870   6.5105480  41.7619910  88.6930060   7.1530790
  45.7603250  86.1127430   8.0892670  46.3632620  86.6847640   8.5641190
  45.0196240  86.6766870   7.8666570  48.9037850  86.5148990   3.3632950
  49.0988480  87.4132440   3.6300380  48.1167720  86.2836070   3.8565900
  35.6999140 102.1962160   3.8025570  35.1746760 102.5770190   3.0987530
  35.6243720 102.8212930   4.5235280  37.0889610  87.8609760   2.4009260
  37.6182370  87.0739560   2.2717210  37.7217930  88.5400950   2.6344790
  39.2827450  87.5984900   5.4554650  38.6530190  86.8972210   5.6224780
  38.7432590  88.3589030   5.2387810  42.2219400 104.2124130  18.1265260
  43.1486710 103.9768400  18.1701220  42.2069830 105.0396130  17.6451290
  50.4564460 103.7549700   5.1239510  50.6316650 103.0687440   4.4800430
  49.7586030 104.2796750   4.7316180  39.4083010  86.8768880  17.8907140
  39.1267280  87.3802480  17.1267960  39.7902710  86.0790630  17.5249270
  38.2992110 104.1444540   2.6774820  39.0310930 103.8603820   2.1298710
  38.5585780 103.9057820   3.5674200  37.4606900 100.2609270   2.6821150
  36.8315780 100.7294370   3.2306980  37.5754730  99.4158490   3.1167340
  46.0098470  86.2922460  18.4687610  45.8963920  86.6117070  19.3639130
  46.8268210  86.6934970  18.1724890  48.7896960 103.4393990  17.9506300
  49.5822280 102.9443220  17.7432260  49.0830110 104.1184130  18.5581910
  44.9156620  75.5371440 101.4783290  44.8350670  74.6226050 101.2075000
  44.5021040  76.0338510 100.7723000  43.0474660  77.3150460 103.3592560
  42.2716760  76.8350900 103.6491130  43.6987590  76.6356110 103.1848720
  37.0640490  77.6270270 104.2368320  36.2325370  77.3718980 104.6364830
  37.6721470  77.6981040 104.9726240  47.0682090  81.7210650 102.1391690
  46.6063620  80.9497890 102.4678860  47.8807640  81.7476720 102.6444140
  37.0441750  81.6610360 104.4326340  37.3469790  80.7708100 104.2536560
  37.7885340  82.2180580 104.2048590  35.4732440  72.5872160  98.0210710
  34.5849140  72.9288130  97.9190590  35.7573630  72.3872480  97.1291540
  33.4365450  75.1877810 103.9050410  34.0081560  74.4200010 103.9054050
  33.4366990  75.4866570 102.9957020  43.2945400  84.0068660 101.7595680
  42.6756840  84.4626160 101.1890120  44.1497180  84.1620120 101.3585380
  42.4883650  79.9907650 103.3662720  42.4191930  79.0497590 103.2051850
  43.2503510  80.0809060 103.9385290  34.6790320  70.5962170 105.6919340
  34.4993160  69.6987920 105.9722100  34.2770400  71.1434040 106.3666290
  43.5188820  72.7978030 103.5931650  43.8953640  71.9249910 103.4805320
  43.4208330  73.1336730 102.7022090  37.6493830  71.1703660  99.0549090
  37.7560580  72.0707390  99.3617850  36.7386190  71.1221630  98.7643740
  47.3012940  70.2928470 100.5259990  48.1222560  69.8025040 100.5685470
  47.3347020  70.8826130 101.2791830  35.2976990  73.0922670 104.3001680
  35.9787100  73.3561040 104.9189080  34.9825040  72.2523540 104.6339690
  39.4901560  74.1390030 103.3874270  39.9979780  74.6371000 104.0279290
  40.0214800  73.3625230 103.2113630  51.5912490  72.3095220 107.0903620
  50.8864660  72.6976930 106.5718730  51.8570410  73.0045510 107.6924550
  37.7737660  68.7788590 107.6537690  37.7756100  69.2960980 106.8483590
  36.9441970  68.3018770 107.6307620  44.1608750  78.8907900  99.1527590
  43.5426020  79.3557350  98.5890310  44.6732000  79.5835380  99.5697100
  39.0240510  78.4183770 105.8311190  38.6909890  79.0452690 106.4732260
  39.2007190  78.9445650 105.0512860  47.5374420  72.2328850 103.2987530
  46.8329990  72.5213740 103.8790640  47.8986580  73.0428960 102.9387090
  37.4552990  70.4898550 105.6608140  37.7969800  71.3340600 105.3662010
  36.5168800  70.6382290 105.7773480  38.2359610  80.3864570 107.6460370
  38.8533610  81.0615650 107.3644820  37.3752730  80.7952550 107.5547870
  33.5291950  79.5764430  96.5267220  33.1519930  80.0651530  95.7952120
  33.7865020  80.2489710  97.1573750  49.1537200  81.8503980 105.5615010
  48.4700720  82.5203090 105.5531680  49.6931490  82.0484630 104.7959870
  50.6061340  71.6783640 103.6896740  49.6586250  71.7122620 103.8212170
  50.9311330  72.4922590 104.0746100  41.1380880  67.9780820 101.9852730
  41.4455860  67.4227710 101.2688230  40.2081580  68.1125280 101.8025720
  46.6895940  83.6948110 104.2760190  46.7023100  83.2910400 103.4082450
  46.1371160  84.4695400 104.1721620  47.9841360  80.4164330  99.3650360
  47.8737690  79.4738660  99.4899780  47.9809610  80.7779970 100.2513120
  46.0881380  78.5977950 105.6042800  46.5050170  78.3838060 104.7696260
  46.8121200  78.8550740 106.1751420  43.5261640  76.0429650  98.7212850
  42.5990920  75.9767030  98.9501320  43.6786460  76.9809780  98.6068090
  43.5130720  72.3146650  95.7180010  42.5734390  72.4760610  95.8032470
  43.8313980  73.0332330  95.1716000  50.0343480  76.9965170 105.6959040
  49.2062110  77.0658260 105.2209170  50.6293960  77.5819480 105.2274870
  47.5558930  77.6049950  99.2248100  46.9371350  77.2669500  98.5774400
  47.5383380  76.9609710  99.9327290  46.9985490  73.7834490 106.6413910
  46.5856670  74.6088200 106.8953900  46.2661440  73.1979530 106.4490270
  39.1318280  76.5694390 101.5032580  38.7275280  75.8571640 101.0078480
  39.2181400  76.2247630 102.3920620  39.5999980  80.2561950 103.6671790
  39.3028270  79.6507420 102.9879570  40.5499800  80.2939260 103.5561150
  37.8446900  73.3437600 105.2831620  38.3961490  73.4532940 104.5084870
  38.3590410  73.7175200 105.9986850  47.6885590  83.8293820 107.3294890
  47.2116150  84.6366010 107.1367500  47.0047380  83.1772150 107.4821100
  38.6918410  79.9943640 110.3179590  37.7946940  80.2183610 110.5652990
  38.7171280  80.1178580 109.3690990  45.7323630  76.8436760  96.2320850
  46.1716910  76.0059190  96.0858670  46.4452050  77.4766160  96.3184990
  37.5189630  76.8656960 108.8936960  37.3797400  77.7379760 109.2624360
  36.6370990  76.5229770 108.7484900  43.8419010  81.7832830 100.2002090
  44.2814920  82.5257160  99.7857480  43.7805900  82.0259400 101.1241050
  49.3140770  68.0979570  94.5461890  49.0013430  68.1906400  95.4460960
  50.0753240  68.6760600  94.4959320  35.8322910  75.4639370  99.0039230
  35.7120510  76.1901460  98.3920500  35.5223800  74.6942280  98.5267140
  33.4708280  78.6354510 104.8107870  33.5488700  78.7703280 103.8663590
  34.0849960  77.9270400 105.0035990  34.7155910  80.3354700 101.2214050
  34.3083990  80.4769290 100.3667650  35.6068920  80.0514860 101.0185260
  50.6718050  80.7818610 109.5586290  50.7981110  80.5430490 108.6403470
  50.7139430  79.9503150 110.0308370  44.5334790  84.4846610 108.1281100
  45.0479460  84.3954620 108.9303530  43.6903870  84.8306310 108.4209010
  46.5089190  84.7701950  97.5565100  46.3490330  84.4804890  98.4546930
  46.3435900  83.9942080  97.0210330  38.9877570  84.5500480  99.3336720
  38.8120050  83.6336020  99.1204520  38.1333310  84.9087770  99.5734520
  46.2115320  82.2789510  96.1163100  45.5180480  82.2766800  95.4565380
  46.9538180  81.8548830  95.6857270  45.7765250  83.9052220 100.1911590
  46.2322200  83.1241600 100.5050210  46.1157770  84.6159040 100.7352770
  50.5242060  72.8351070 110.5236030  49.9086330  73.3430740 109.9951490
  50.2038480  71.9349400 110.4661970  33.5267800  79.6768680 107.3502330
  33.6898840  79.2074040 106.5321700  33.9920250  79.1692240 108.0151170
  38.2986570  68.8074440 102.3862900  37.8554720  69.5883980 102.0547420
  38.8571560  69.1304330 103.0933840  42.5856380  71.6742960 107.9898220
  42.1235750  71.8825980 108.8018160  42.1834490  70.8602310 107.6868890
  47.5860890  72.8951910 109.1194880  46.7354480  72.5957660 109.4403950
  47.4262680  73.1393920 108.2078700  41.4145390  68.4285140  97.2668730
  40.7899570  68.4245010  97.9922040  41.3275510  67.5616100  96.8704700
  40.3362470  69.3521770 104.2452500  40.6334800  70.2584600 104.1644520
  40.8848030  68.8640550 103.6312070  38.0900790  73.9308010 100.1144150
  37.8641710  73.7145180 101.0190770  37.3093320  74.3636470  99.7690120
  45.3198550  73.9371380  98.7134800  44.7207440  74.6607180  98.5298420
  45.8678160  73.8748160  97.9311250  40.5300000  74.8293590 110.7804420
  40.4343600  73.8888320 110.6304820  41.3731980  75.0508660 110.3852490
  43.9263420  72.5734920 100.7438080  44.3192990  72.8907120  99.9306770
  44.2880270  71.6946800 100.8582600  35.6610540  71.2407260 108.9338200
  35.2673930  72.0882470 109.1410980  34.9728940  70.6033630 109.1246840
  32.9627590  69.1635720 102.9668280  32.6740640  69.7338580 103.6793260
  33.7073350  68.6840170 103.3299510  33.1497820  73.1055840  94.1771000
  33.0672490  74.0486600  94.3185990  32.7980880  72.9630750  93.2983350
  44.5118560  75.1640670 104.8388860  43.7799680  75.6727480 105.1878960
  44.1142900  74.3470650 104.5377640  40.9495950  71.8394870 103.2441350
  40.9532010  71.3984820 102.3945890  41.8447070  72.1612200 103.3513170
  36.7998330  71.7221360 102.2035560  36.4598380  72.1996590 102.9602610
  36.0375650  71.2686480 101.8436660  41.0116100  72.8406950  96.2348110
  41.1328920  72.7993430  97.1833930  40.6264610  73.7031100  96.0794840
  44.9744470  70.6174350 104.2511800  44.9917210  71.0683000 105.0953650
  44.7260050  69.7179990 104.4645240  40.0237600  75.1508090  95.6331410
  39.4554500  74.7026340  95.0067320  40.7326600  75.5100870  95.0996560
  48.4015220  68.0306530 110.0898180  48.7260990  67.2996190 110.6156160
  48.4371730  67.7120170 109.1879170  35.1006780  79.0520110 109.5098140
  34.7161570  78.4113780 110.1081100  35.4118970  79.7556230 110.0792870
  41.2503920  75.8996650 104.9906760  41.6174050  75.4255220 105.7368100
  41.0608980  76.7738220 105.3315100  34.1144410  70.6440340 101.1200230
  33.8291330  70.2796010 101.9578850  34.0523270  69.9120800 100.5063370
  39.0403290  74.9405290 107.3090970  38.7360360  75.8197270 107.5341330
  39.9949750  75.0005080 107.3448410  37.5685080  79.1466280  97.9057820
  36.7947340  78.6063900  97.7456540  38.2979710  78.6272890  97.5675580
  48.3273060  78.1431640 103.6984210  49.0472180  78.6386930 103.3080320
  48.1254880  77.4649530 103.0538080  43.7883000  69.5369600  97.8413600
  42.9747610  69.0382770  97.7658910  43.5944950  70.3767850  97.4249950
  43.7091860  78.2140700 109.5853210  43.6429170  77.2936370 109.3310800
  43.0797000  78.3116140 110.2997850  46.5031390  73.9089250  96.1375760
  47.3911010  74.2206480  95.9627100  46.4736480  73.0361500  95.7456340
  37.6122480  78.8146660 101.5436630  38.1301150  78.0114920 101.4893520
  37.1606500  78.7525800 102.3853460  42.4991980  80.0812940  96.8163930
  42.8407680  80.8255170  96.3207250  41.6704690  80.3944060  97.1788760
  35.0967020  75.7808030 108.4562330  34.7381960  76.4461880 109.0435670
  34.8021580  74.9491580 108.8274950  43.6408590  81.0361270 109.3357010
  43.6553130  80.1042230 109.1175920  42.9333690  81.1221030 109.9746780
  48.7745660  75.2201090  95.6055620  48.6909380  75.6515310  94.7552060
  49.4939850  75.6799440  96.0382440  49.8519800  77.6768610 108.6825590
  49.1267990  78.2697390 108.4854980  50.3795260  77.6692150 107.8838960
  49.8032910  82.0743350  98.3337750  49.1609070  81.4198970  98.6081470
  49.4163570  82.4798440  97.5578420  45.3819390  79.4028780 102.1809440
  45.7343210  78.8056910 101.5210810  44.4981720  79.0773010 102.3517690
  41.4682670  80.1626470  99.5879850  42.1553800  80.7095680  99.9687440
  40.6815090  80.7067200  99.6229460  33.6075070  75.7799290  95.0796930
  34.4769920  76.0624090  95.3632850  33.1165390  76.5935160  94.9645740
  40.7709880  77.1672500  99.2005210  41.2272660  77.9777750  99.4265400
  40.4198090  76.8495640 100.0323700  43.0742490  82.6778840 106.4297510
  43.7184710  82.8838220 107.1070930  43.4371930  81.9167240 105.9768360
  36.6721660  67.5110150  99.6727730  36.5436290  67.5028050 100.6212650
  35.8483680  67.8493240  99.3218740  44.3474570  80.6811190 105.1474960
  44.9896800  79.9804350 105.2607130  44.8723920  81.4609630 104.9671850
  48.1930290  80.9659810  94.8714100  47.9667870  80.2490250  95.4638740
  47.8026490  80.7172250  94.0335850  46.1212190  81.4806090 108.3511020
  46.4568430  82.0672780 109.0288940  45.2012530  81.3498800 108.5808810
  33.9746320  84.9926670  95.6458560  34.3343960  85.5916010  94.9915830
  33.8338660  85.5386560  96.4193590  33.6715590  69.2701270 109.1334430
  32.9574110  69.4698190 109.7387040  34.0910630  68.4940840 109.5049230
  47.7746540  78.8831750  96.5328260  47.4868240  79.3444440  97.3206140
  48.5698710  78.4229520  96.8012480  33.9588180  83.2581530 110.1200960
  34.0679300  82.3176270 109.9796350  33.3068740  83.5236280 109.4714690
  39.9914940  82.3757870  96.4632230  39.9825040  83.1087560  95.8476740
  39.0713300  82.1289450  96.5559190  35.5921580  77.5972760  97.2078990
  34.9849530  78.3371660  97.2174290  36.0670930  77.6872120  96.3817190
  45.1654370  71.7623580 106.8835880  45.5335190  70.9418790 107.2115450
  44.3052570  71.8225470 107.2991530  48.5316400  70.7180520  97.6923440
  47.9029560  70.8226190  96.9781670  48.0368320  70.9377300  98.4817320
  42.9774540  82.4386110  95.1257420  43.0786520  82.2350100  94.1959400
  42.0776280  82.1844390  95.3305200  40.5000430  72.9966470  99.1081320
  39.7916580  73.4652810  99.5494930  40.7844910  72.3388480  99.7426510
  42.1256360  74.4163170 107.1073850  42.6241610  74.8908990 107.7725700
  42.2679310  73.4926690 107.3143880  44.5315860  69.7217130 100.5477110
  44.4083640  69.7403260  99.5986620  45.4800420  69.7696070 100.6675510
  41.6192650  84.9572430  99.8205090  41.8734150  84.9193820  98.8984460
  40.6705130  84.8305760  99.8133340  38.7035450  71.3051550  96.4832030
  39.5525980  71.7421700  96.4172220  38.3366720  71.6171810  97.3104090
  49.3323220  70.6331130 107.9502240  48.8296820  71.3736530 108.2896050
  50.1479880  71.0215130 107.6339030  47.6245230  75.8764310 101.3963600
  46.6835370  75.8914540 101.5711290  47.9389300  75.0900270 101.8423900
  37.6026870  77.5583910  94.9567560  38.3690140  77.4465270  95.5192990
  37.6801560  76.8621880  94.3044330  36.2973630  74.9908980  95.6400450
  36.3777220  74.0436490  95.7517850  37.1893380  75.3215860  95.7461110
  49.6270810  83.0473160 103.0717860  49.7518230  83.8704330 103.5441670
  50.4936370  82.8363890 102.7242010  37.0988340  85.1404370 102.7434990
  37.8350820  84.5919830 103.0143560  37.4829260  86.0060380 102.6040980
  33.9833820  81.2077940  98.6176500  33.0573600  81.4499080  98.6081910
  34.4490250  82.0352200  98.4961250  40.2090650  84.3134680  94.5660560
  41.0019260  84.6023510  94.1142350  39.6895000  83.8826850  93.8873040
  49.2620820  83.5404810  95.9897300  48.9762330  83.1269950  95.1751480
  49.0640370  84.4692520  95.8697820  40.7268050  79.5338090  94.4302910
  40.6218690  78.9190440  95.1564290  40.5592270  79.0103980  93.6465920
  40.8782370  78.2194890 110.4092140  40.1128040  78.7879890 110.3246810
  41.0598330  77.9271100 109.5160370  43.9670780  78.5958120  95.0344900
  43.4180880  79.0427420  95.6787640  44.5890040  78.0907370  95.5582570
  48.0205720  79.9500220 110.9667160  48.7615190  80.2875980 110.4634620
  47.2578400  80.1192280 110.4136930  39.6345900  77.5549040  96.9310200
  40.0562320  77.3888910  97.7741590  39.7596740  76.7449270  96.4365340
  37.7973320  73.5345590 109.7381180  37.2669780  73.0436540 109.1104520
  38.4661390  73.9629790 109.2039110  42.1473540  76.5786650  94.1787300
  42.6679200  75.8635670  93.8128450  42.7941940  77.2172520  94.4787810
  46.6951380  78.0015050 109.5022370  47.1092400  78.1560130 110.3512790
  45.7602380  78.1270270 109.6648150  38.2845620  70.5007960 109.8178470
  38.1902490  69.8828710 109.0929340  37.7043010  71.2274250 109.5908380
  41.0507060  69.0581200 106.8505860  40.6024360  69.0805460 106.0051410
  40.4172260  68.6600220 107.4476160  41.4566610  77.9535530 107.4718300
  41.8754720  78.7968260 107.2994540  40.5375240  78.0907570 107.2425080
  43.7930510  75.6851710 108.8556140  43.9126720  75.0892850 109.5950980
  44.6524510  75.7221400 108.4357440  46.1318410  76.2388900 107.4318650
  45.6053630  76.7631520 106.8283790  46.4749750  76.8716290 108.0628380
  38.5304800  73.6282270  93.8768360  38.3293860  72.7649630  94.2381700
  38.3596850  73.5415630  92.9389960  39.3074030  84.2588540 108.5876030
  38.7695120  84.9834600 108.2684730  39.5607990  83.7818880 107.7973370
  40.5599280  72.2273060 110.1131960  41.1498970  71.9188910 110.8009780
  39.7419520  71.7552810 110.2691860  45.3792710  71.8438870 110.3464980
  44.6908230  71.1820410 110.2814970  46.0998730  71.3977140 110.7913440
  46.0093110  68.4390500  96.4055240  46.2895400  67.5958400  96.7614660
  45.2358840  68.6713610  96.9193990  37.3287600  70.7282890  93.8646240
  37.6313500  70.7350320  92.9565390  38.0682190  70.3780750  94.3613900
  42.1636240  85.4939750 108.8462680  42.0894940  86.3974890 109.1535050
  41.2615080  85.1751650 108.8184750  40.5472530  69.6717510  94.8502440
  40.1994530  68.9941500  94.2704890  40.7485300  69.2107020  95.6645830
  42.7121570  84.6598260  96.4689040  43.6072360  84.9983230  96.4907800
  42.7439200  83.9377670  95.8413320  36.3517730  80.0325310  94.6976040
  36.7892600  80.5754980  95.3533620  36.8365460  79.2072260  94.7072380
  33.5663530  82.8214340 102.1496300  33.8966540  81.9535400 101.9174940
  33.9954530  83.0272860 102.9801260  38.1625450  81.1523350  99.8098270
  37.8620990  81.0288320 100.7102180  38.0562940  80.2931940  99.4014000
  34.0553740  83.6884930 104.8877930  33.6184730  83.8685730 105.7202080
  34.6231420  84.4459550 104.7459650  49.6915920  83.1901930 109.1755240
  49.0917910  83.2494490 108.4319160  49.8209820  82.2506910 109.3052090
  50.9317370  80.9319750  94.5124950  50.1010330  80.9996400  94.9832180
  51.1089200  81.8223870  94.2091810  50.3873830  77.6767230  97.0159150
  51.1492740  78.2463880  97.1218840  50.4028200  77.1094430  97.7867460
  33.8878170  76.2005160 101.2466810  33.2327010  75.9316800 100.6026510
  34.7256120  76.0909640 100.7968790  51.3933800  78.5317330 101.8601080
  51.7642630  77.7484650 101.4537050  52.0335730  79.2206430 101.6818380
  48.3767560  79.9153910 107.2731400  47.5627400  80.3451070 107.5357190
  48.7841760  80.5272320 106.6600450  50.4393000  77.9701600  94.1731670
  50.7141840  78.8780480  94.0450890  50.2503740  77.9064130  95.1093660
  46.8368610  70.9946450  95.4685300  47.2553490  70.8077430  94.6281960
  46.5304670  70.1425500  95.7788230  50.3358340  75.9070590  99.1661100
  49.9601940  75.1398520  98.7342390  49.6061460  76.2893290  99.6536030
  34.9254100  76.5857730 105.7870150  35.2927140  76.4985130 106.6666170
  34.3564920  75.8224280 105.6877010  49.7257960  75.0542110 108.8000620
  49.4944050  74.8254860 107.8998570  49.9862510  75.9741660 108.7545510
  34.4770100  73.4966820 109.6928570  33.5826150  73.4633580 110.0322280
  35.0167650  73.6953610 110.4579820  33.1016250  73.4104090  97.1892140
  32.1980330  73.6734290  97.0143800  33.5856870  73.6815260  96.4092100
  49.6109300  74.1328080 102.4668340  50.1346780  73.6390730 101.8358510
  50.1968720  74.2678440 103.2115910  49.7899020  74.2167950 105.9887890
  48.8401730  74.1831490 106.1032880  49.9712030  75.1268060 105.7537660
  35.6443460  72.4669630  95.0986520  36.3535160  72.0452850  94.6133800
  34.9283400  72.5344860  94.4669870  35.2917620  68.5208960  94.1389170
  36.0145750  69.0617900  94.4570390  35.5642140  68.2472380  93.2630710
  49.1009270  73.3901430  98.4060750  49.5968390  73.1572300  99.1909630
  48.9025340  72.5513270  97.9898390  34.9809810  67.7715150 104.0411790
  35.6286000  67.2212530 103.6006950  35.4011650  68.0258300 104.8627600
  50.5296430  72.0262380 100.9398430  50.4195710  71.8718420 101.8780700
  51.2904020  71.4983320 100.6973840  48.8762150  67.9656510 107.3981430
  49.5134370  68.5790650 107.7640620  49.0237040  68.0017170 106.4530660
  51.4186700  69.8570300  94.1804570  52.3436010  69.7251480  93.9722860
  51.3962490  69.9363120  95.1341020  51.4925190  70.6280960  96.8061280
  50.6976690  70.5626080  97.3354190  51.6968470  71.5631600  96.7946630
  48.4343610  84.6672510 100.7999670  49.0302680  84.3457080 100.1234090
  48.6921760  84.1944330 101.5912940  34.7341810  67.9270820 106.7837110
  34.3856630  68.3834640 107.5495290  34.4029510  67.0327950 106.8659540
  40.0412210  82.6550010 106.5500020  39.8003570  82.9224570 105.6630540
  40.9814850  82.8255740 106.6050880  44.8841190  68.7752760 109.9448820
  45.4981600  69.0932050 109.2829900  45.4290750  68.2901350 110.5644680
  51.3016370  84.6744390 107.3510660  50.8074650  85.0713260 106.6337790
  50.6929660  84.0493600 107.7447940  35.4062450  67.4547020 110.0587880
  35.9545440  67.2735070 109.2953990  35.4717760  66.6641130 110.5944190
  36.1794210  84.0452670 108.0688080  35.5854530  83.9137370 108.8078120
  36.1718050  83.2090810 107.6030180  45.6249230  67.3384900 106.2718110
  44.7509070  67.6720010 106.0691040  45.5159980  66.8658080 107.0969980
  46.5321210  69.5455770 107.6559830  46.2034570  68.7307530 107.2761560
  47.4803510  69.5025580 107.5325520  48.9855820  85.3167810 104.6297400
  48.5258790  86.0683620 104.2555420  48.3568280  84.5974280 104.5712200
  35.8106440  81.4111050 107.0196120  35.0840500  80.7916340 106.9522070
  35.8715590  81.8051660 106.1494200  39.4151540  83.6256050 103.8045530
  39.9316560  83.0143410 103.2793790  40.0648920  84.1284830 104.2956540
  42.1547040  84.5164540 104.6314510  42.4424850  84.2618840 103.7547520
  42.6670260  83.9641900 105.2220080  43.3724050  68.2554740 105.2111020
  42.5895840  68.7300240 105.4907780  43.0786980  67.3509570 105.1024200
  47.9245120  68.9577840 103.2560110  48.3653210  68.9022940 102.4081710
  47.6552710  69.8735850 103.3270290  49.7883690  68.5893080 101.2668930
  49.7272090  67.6454300 101.1199950  50.5675720  68.6973170 101.8122390
  34.0936440  84.7285440 100.2292880  33.9258480  84.0956120 100.9274770
  33.2270950  84.9344840  99.8787070  34.7164460  68.5602220  97.7324740
  35.4743820  68.6731100  97.1588770  34.2541630  69.3971420  97.6868170
  41.2578270  70.6741490 100.7227050  40.4452780  70.2998380 100.3822930
  41.7619910  69.9186570 101.0248240  45.7603250  67.3383940 101.9610120
  46.3632620  67.9104150 102.4358640  45.0196240  67.9023380 101.7384020
  48.9037850  67.7405500  97.2350400  49.0988480  68.6388950  97.5017830
  48.1167720  67.5092580  97.7283350  35.6999140  83.4218670  97.6743020
  35.1746760  83.8026700  96.9704980  35.6243720  84.0469440  98.3952730
  37.0889610  69.0866270  96.2726710  37.6182370  68.2996070  96.1434660
  37.7217930  69.7657460  96.5062240  39.2827450  68.8241410  99.3272100
  38.6530190  68.1228720  99.4942230  38.7432590  69.5845540  99.1105260
  50.4564460  84.9806210  98.9956960  50.6316650  84.2943950  98.3517880
  49.7586030  85.5053260  98.6033630  38.2992110  85.3701050  96.5492270
  39.0310930  85.0860330  96.0016160  38.5585780  85.1314330  97.4391650
  37.4606900  81.4865780  96.5538600  36.8315780  81.9550880  97.1024430
  37.5754730  80.6415000  96.9884790  44.9156620  75.5371440  82.7039800
  44.8350670  74.6226050  82.4331510  44.5021040  76.0338510  81.9979510
  43.0474660  77.3150460  84.5849070  42.2716760  76.8350900  84.8747640
  43.6987590  76.6356110  84.4105230  37.0640490  77.6270270  85.4624830
  36.2325370  77.3718980  85.8621340  37.6721470  77.6981040  86.1982750
  47.0682090  81.7210650  83.3648200  46.6063620  80.9497890  83.6935370
  47.8807640  81.7476720  83.8700650  37.0441750  81.6610360  85.6582850
  37.3469790  80.7708100  85.4793070  37.7885340  82.2180580  85.4305100
  35.4732440  72.5872160  79.2467220  34.5849140  72.9288130  79.1447100
  35.7573630  72.3872480  78.3548050  33.4365450  75.1877810  85.1306920
  34.0081560  74.4200010  85.1310560  33.4366990  75.4866570  84.2213530
  43.2945400  84.0068660  82.9852190  42.6756840  84.4626160  82.4146630
  44.1497180  84.1620120  82.5841890  42.4883650  79.9907650  84.5919230
  42.4191930  79.0497590  84.4308360  43.2503510  80.0809060  85.1641800
  34.6790320  70.5962170  86.9175850  34.4993160  69.6987920  87.1978610
  34.2770400  71.1434040  87.5922800  43.5188820  72.7978030  84.8188160
  43.8953640  71.9249910  84.7061830  43.4208330  73.1336730  83.9278600
  37.6493830  71.1703660  80.2805600  37.7560580  72.0707390  80.5874360
  36.7386190  71.1221630  79.9900250  47.3012940  70.2928470  81.7516500
  48.1222560  69.8025040  81.7941980  47.3347020  70.8826130  82.5048340
  35.2976990  73.0922670  85.5258190  35.9787100  73.3561040  86.1445590
  34.9825040  72.2523540  85.8596200  39.4901560  74.1390030  84.6130780
  39.9979780  74.6371000  85.2535800  40.0214800  73.3625230  84.4370140
  51.5912490  72.3095220  88.3160130  50.8864660  72.6976930  87.7975240
  51.8570410  73.0045510  88.9181060  37.7737660  68.7788590  88.8794200
  37.7756100  69.2960980  88.0740100  36.9441970  68.3018770  88.8564130
  44.1608750  78.8907900  80.3784100  43.5426020  79.3557350  79.8146820
  44.6732000  79.5835380  80.7953610  39.0240510  78.4183770  87.0567700
  38.6909890  79.0452690  87.6988770  39.2007190  78.9445650  86.2769370
  47.5374420  72.2328850  84.5244040  46.8329990  72.5213740  85.1047150
  47.8986580  73.0428960  84.1643600  37.4552990  70.4898550  86.8864650
  37.7969800  71.3340600  86.5918520  36.5168800  70.6382290  87.0029990
  38.2359610  80.3864570  88.8716880  38.8533610  81.0615650  88.5901330
  37.3752730  80.7952550  88.7804380  33.5291950  79.5764430  77.7523730
  33.1519930  80.0651530  77.0208630  33.7865020  80.2489710  78.3830260
  49.1537200  81.8503980  86.7871520  48.4700720  82.5203090  86.7788190
  49.6931490  82.0484630  86.0216380  50.6061340  71.6783640  84.9153250
  49.6586250  71.7122620  85.0468680  50.9311330  72.4922590  85.3002610
  41.1380880  67.9780820  83.2109240  41.4455860  67.4227710  82.4944740
  40.2081580  68.1125280  83.0282230  46.6895940  83.6948110  85.5016700
  46.7023100  83.2910400  84.6338960  46.1371160  84.4695400  85.3978130
  46.0881380  78.5977950  86.8299310  46.5050170  78.3838060  85.9952770
  46.8121200  78.8550740  87.4007930  50.0343480  76.9965170  86.9215550
  49.2062110  77.0658260  86.4465680  50.6293960  77.5819480  86.4531380
  47.5558930  77.6049950  80.4504610  46.9371350  77.2669500  79.8030910
  47.5383380  76.9609710  81.1583800  46.9985490  73.7834490  87.8670420
  46.5856670  74.6088200  88.1210410  46.2661440  73.1979530  87.6746780
  39.1318280  76.5694390  82.7289090  38.7275280  75.8571640  82.2334990
  39.2181400  76.2247630  83.6177130  39.5999980  80.2561950  84.8928300
  39.3028270  79.6507420  84.2136080  40.5499800  80.2939260  84.7817660
  37.8446900  73.3437600  86.5088130  38.3961490  73.4532940  85.7341380
  38.3590410  73.7175200  87.2243360  47.6885590  83.8293820  88.5551400
  47.2116150  84.6366010  88.3624010  47.0047380  83.1772150  88.7077610
  38.6918410  79.9943640  91.5436100  37.7946940  80.2183610  91.7909500
  38.7171280  80.1178580  90.5947500  37.5189630  76.8656960  90.1193470
  37.3797400  77.7379760  90.4880870  36.6370990  76.5229770  89.9741410
  43.8419010  81.7832830  81.4258600  44.2814920  82.5257160  81.0113990
  43.7805900  82.0259400  82.3497560  39.3169980  82.8078660  92.3278620
  39.2885410  83.2121610  91.4607050  39.1534950  81.8789020  92.1650220
  35.8322910  75.4639370  80.2295740  35.7120510  76.1901460  79.6177010
  35.5223800  74.6942280  79.7523650  51.2684800  83.5905760  93.6242790
  51.7444520  84.0688650  94.3031870  51.8891960  83.5223250  92.8988290
  33.4708280  78.6354510  86.0364380  33.5488700  78.7703280  85.0920100
  34.0849960  77.9270400  86.2292500  34.7155910  80.3354700  82.4470560
  34.3083990  80.4769290  81.5924160  35.6068920  80.0514860  82.2441770
  50.6718050  80.7818610  90.7842800  50.7981110  80.5430490  89.8659980
  50.7139430  79.9503150  91.2564880  44.5334790  84.4846610  89.3537610
  45.0479460  84.3954620  90.1560040  43.6903870  84.8306310  89.6465520
  38.9877570  84.5500480  80.5593230  38.8120050  83.6336020  80.3461030
  38.1333310  84.9087770  80.7991030  45.7765250  83.9052220  81.4168100
  46.2322200  83.1241600  81.7306720  46.1157770  84.6159040  81.9609280
  50.5242060  72.8351070  91.7492540  49.9086330  73.3430740  91.2208000
  50.2038480  71.9349400  91.6918480  33.5267800  79.6768680  88.5758840
  33.6898840  79.2074040  87.7578210  33.9920250  79.1692240  89.2407680
  38.2986570  68.8074440  83.6119410  37.8554720  69.5883980  83.2803930
  38.8571560  69.1304330  84.3190350  42.5856380  71.6742960  89.2154730
  42.1235750  71.8825980  90.0274670  42.1834490  70.8602310  88.9125400
  47.5860890  72.8951910  90.3451390  46.7354480  72.5957660  90.6660460
  47.4262680  73.1393920  89.4335210  44.6810600  74.3953660  92.4450180
  45.0064010  73.5617410  92.1052410  45.4690930  74.9182180  92.5928510
  41.4145390  68.4285140  78.4925240  40.7899570  68.4245010  79.2178550
  41.3275510  67.5616100  78.0961210  40.3362470  69.3521770  85.4709010
  40.6334800  70.2584600  85.3901030  40.8848030  68.8640550  84.8568580
  38.0900790  73.9308010  81.3400660  37.8641710  73.7145180  82.2447280
  37.3093320  74.3636470  80.9946630  40.5300000  74.8293590  92.0060930
  40.4343600  73.8888320  91.8561330  41.3731980  75.0508660  91.6109000
  43.9263420  72.5734920  81.9694590  44.3192990  72.8907120  81.1563280
  44.2880270  71.6946800  82.0839110  35.6610540  71.2407260  90.1594710
  35.2673930  72.0882470  90.3667490  34.9728940  70.6033630  90.3503350
  42.2355590  71.3242230  93.2291450  41.5453910  71.1314430  93.8637540
  42.9787890  71.6076870  93.7615750  32.9627590  69.1635720  84.1924790
  32.6740640  69.7338580  84.9049770  33.7073350  68.6840170  84.5556020
  33.1497820  73.1055840  75.4027510  33.0672490  74.0486600  75.5442500
  32.7980880  72.9630750  74.5239860  44.5118560  75.1640670  86.0645370
  43.7799680  75.6727480  86.4135470  44.1142900  74.3470650  85.7634150
  40.9495950  71.8394870  84.4697860  40.9532010  71.3984820  83.6202400
  41.8447070  72.1612200  84.5769680  36.7998330  71.7221360  83.4292070
  36.4598380  72.1996590  84.1859120  36.0375650  71.2686480  83.0693170
  41.0116100  72.8406950  77.4604620  41.1328920  72.7993430  78.4090440
  40.6264610  73.7031100  77.3051350  44.9744470  70.6174350  85.4768310
  44.9917210  71.0683000  86.3210160  44.7260050  69.7179990  85.6901750
  40.0237600  75.1508090  76.8587920  39.4554500  74.7026340  76.2323830
  40.7326600  75.5100870  76.3253070  48.4015220  68.0306530  91.3154690
  48.7260990  67.2996190  91.8412670  48.4371730  67.7120170  90.4135680
  35.1006780  79.0520110  90.7354650  34.7161570  78.4113780  91.3337610
  35.4118970  79.7556230  91.3049380  41.2503920  75.8996650  86.2163270
  41.6174050  75.4255220  86.9624610  41.0608980  76.7738220  86.5571610
  34.1144410  70.6440340  82.3456740  33.8291330  70.2796010  83.1835360
  34.0523270  69.9120800  81.7319880  39.0403290  74.9405290  88.5347480
  38.7360360  75.8197270  88.7597840  39.9949750  75.0005080  88.5704920
  37.5685080  79.1466280  79.1314330  36.7947340  78.6063900  78.9713050
  38.2979710  78.6272890  78.7932090  48.3273060  78.1431640  84.9240720
  49.0472180  78.6386930  84.5336830  48.1254880  77.4649530  84.2794590
  43.7883000  69.5369600  79.0670110  42.9747610  69.0382770  78.9915420
  43.5944950  70.3767850  78.6506460  43.7091860  78.2140700  90.8109720
  43.6429170  77.2936370  90.5567310  43.0797000  78.3116140  91.5254360
  37.6122480  78.8146660  82.7693140  38.1301150  78.0114920  82.7150030
  37.1606500  78.7525800  83.6109970  42.4991980  80.0812940  78.0420440
  42.8407680  80.8255170  77.5463760  41.6704690  80.3944060  78.4045270
  35.0967020  75.7808030  89.6818840  34.7381960  76.4461880  90.2692180
  34.8021580  74.9491580  90.0531460  38.2980140  76.2392270  92.5658390
  37.9980280  76.3849450  91.6686210  39.0691380  75.6797560  92.4731780
  43.6408590  81.0361270  90.5613520  43.6553130  80.1042230  90.3432430
  42.9333690  81.1221030  91.2003290  49.8519800  77.6768610  89.9082100
  49.1267990  78.2697390  89.7111490  50.3795260  77.6692150  89.1095470
  45.3819390  79.4028780  83.4065950  45.7343210  78.8056910  82.7467320
  44.4981720  79.0773010  83.5774200  41.4682670  80.1626470  80.8136360
  42.1553800  80.7095680  81.1943950  40.6815090  80.7067200  80.8485970
  33.6075070  75.7799290  76.3053440  34.4769920  76.0624090  76.5889360
  33.1165390  76.5935160  76.1902250  40.7709880  77.1672500  80.4261720
  41.2272660  77.9777750  80.6521910  40.4198090  76.8495640  81.2580210
  43.0742490  82.6778840  87.6554020  43.7184710  82.8838220  88.3327440
  43.4371930  81.9167240  87.2024870  36.6721660  67.5110150  80.8984240
  36.5436290  67.5028050  81.8469160  35.8483680  67.8493240  80.5475250
  44.3474570  80.6811190  86.3731470  44.9896800  79.9804350  86.4863640
  44.8723920  81.4609630  86.1928360  46.1212190  81.4806090  89.5767530
  46.4568430  82.0672780  90.2545450  45.2012530  81.3498800  89.8065320
  33.9746320  84.9926670  76.8715070  34.3343960  85.5916010  76.2172340
  33.8338660  85.5386560  77.6450100  33.6715590  69.2701270  90.3590940
  32.9574110  69.4698190  90.9643550  34.0910630  68.4940840  90.7305740
  33.9588180  83.2581530  91.3457470  34.0679300  82.3176270  91.2052860
  33.3068740  83.5236280  90.6971200  41.9500770  81.5297420  92.7455590
  41.6297640  80.8106660  93.2901280  41.2759130  82.2052490  92.8191650
  39.9914940  82.3757870  77.6888740  39.9825040  83.1087560  77.0733250
  39.0713300  82.1289450  77.7815700  35.5921580  77.5972760  78.4335500
  34.9849530  78.3371660  78.4430800  36.0670930  77.6872120  77.6073700
  45.1654370  71.7623580  88.1092390  45.5335190  70.9418790  88.4371960
  44.3052570  71.8225470  88.5248040  40.5000430  72.9966470  80.3337830
  39.7916580  73.4652810  80.7751440  40.7844910  72.3388480  80.9683020
  42.1256360  74.4163170  88.3330360  42.6241610  74.8908990  88.9982210
  42.2679310  73.4926690  88.5400390  44.5315860  69.7217130  81.7733620
  44.4083640  69.7403260  80.8243130  45.4800420  69.7696070  81.8932020
  41.6192650  84.9572430  81.0461600  41.8734150  84.9193820  80.1240970
  40.6705130  84.8305760  81.0389850  38.7035450  71.3051550  77.7088540
  39.5525980  71.7421700  77.6428730  38.3366720  71.6171810  78.5360600
  49.3323220  70.6331130  89.1758750  48.8296820  71.3736530  89.5152560
  50.1479880  71.0215130  88.8595540  47.6245230  75.8764310  82.6220110
  46.6835370  75.8914540  82.7967800  47.9389300  75.0900270  83.0680410
  37.6026870  77.5583910  76.1824070  38.3690140  77.4465270  76.7449500
  37.6801560  76.8621880  75.5300840  36.2973630  74.9908980  76.8656960
  36.3777220  74.0436490  76.9774360  37.1893380  75.3215860  76.9717620
  49.6270810  83.0473160  84.2974370  49.7518230  83.8704330  84.7698180
  50.4936370  82.8363890  83.9498520  37.0988340  85.1404370  83.9691500
  37.8350820  84.5919830  84.2400070  37.4829260  86.0060380  83.8297490
  33.9833820  81.2077940  79.8433010  33.0573600  81.4499080  79.8338420
  34.4490250  82.0352200  79.7217760  36.1046620  84.3250440  93.1577080
  36.9059350  84.6462490  93.5712480  35.5898440  83.9646020  93.8796990
  40.2090650  84.3134680  75.7917070  41.0019260  84.6023510  75.3398860
  39.6895000  83.8826850  75.1129550  44.9411250  80.4330310  93.1052490
  44.3349410  80.4561910  92.3648240  44.6365360  79.7013350  93.6419740
  46.3711620  84.1610600  91.7161900  47.3233370  84.0768620  91.6662140
  46.2239840  84.8252310  92.3895690  33.8244430  76.8123900  92.1013130
  34.3283450  76.2331180  92.6729360  33.0851850  77.0964130  92.6389500
  40.7268050  79.5338090  75.6559420  40.6218690  78.9190440  76.3820800
  40.5592270  79.0103980  74.8722430  40.8782370  78.2194890  91.6348650
  40.1128040  78.7879890  91.5503320  41.0598330  77.9271100  90.7416880
  48.0205720  79.9500220  92.1923670  48.7615190  80.2875980  91.6891130
  47.2578400  80.1192280  91.6393440  35.8567510  74.9553490  92.9963200
  35.8972850  74.6567360  93.9048430  36.7113010  75.3561100  92.8370720
  39.6345900  77.5549040  78.1566710  40.0562320  77.3888910  78.9998100
  39.7596740  76.7449270  77.6621850  37.7973320  73.5345590  90.9637690
  37.2669780  73.0436540  90.3361030  38.4661390  73.9629790  90.4295620
  42.1473540  76.5786650  75.4043810  42.6679200  75.8635670  75.0384960
  42.7941940  77.2172520  75.7044320  46.6951380  78.0015050  90.7278880
  47.1092400  78.1560130  91.5769300  45.7602380  78.1270270  90.8904660
  47.1673550  75.3411210  92.7318030  47.7494320  74.5863530  92.6438510
  47.3435320  75.8718650  91.9549510  38.2845620  70.5007960  91.0434980
  38.1902490  69.8828710  90.3185850  37.7043010  71.2274250  90.8164890
  41.0507060  69.0581200  88.0762370  40.6024360  69.0805460  87.2307920
  40.4172260  68.6600220  88.6732670  41.4566610  77.9535530  88.6974810
  41.8754720  78.7968260  88.5251050  40.5375240  78.0907570  88.4681590
  43.7930510  75.6851710  90.0812650  43.9126720  75.0892850  90.8207490
  44.6524510  75.7221400  89.6613950  46.1318410  76.2388900  88.6575160
  45.6053630  76.7631520  88.0540300  46.4749750  76.8716290  89.2884890
  38.5304800  73.6282270  75.1024870  38.3293860  72.7649630  75.4638210
  38.3596850  73.5415630  74.1646470  39.3074030  84.2588540  89.8132540
  38.7695120  84.9834600  89.4941240  39.5607990  83.7818880  89.0229880
  40.5599280  72.2273060  91.3388470  41.1498970  71.9188910  92.0266290
  39.7419520  71.7552810  91.4948370  45.3792710  71.8438870  91.5721490
  44.6908230  71.1820410  91.5071480  46.0998730  71.3977140  92.0169950
  46.0093110  68.4390500  77.6311750  46.2895400  67.5958400  77.9871170
  45.2358840  68.6713610  78.1450500  37.3287600  70.7282890  75.0902750
  37.6313500  70.7350320  74.1821900  38.0682190  70.3780750  75.5870410
  42.1636240  85.4939750  90.0719190  42.0894940  86.3974890  90.3791560
  41.2615080  85.1751650  90.0441260  40.5472530  69.6717510  76.0758950
  40.1994530  68.9941500  75.4961400  40.7485300  69.2107020  76.8902340
  42.7121570  84.6598260  77.6945550  43.6072360  84.9983230  77.7164310
  42.7439200  83.9377670  77.0669830  36.3517730  80.0325310  75.9232550
  36.7892600  80.5754980  76.5790130  36.8365460  79.2072260  75.9328890
  33.5663530  82.8214340  83.3752810  33.8966540  81.9535400  83.1431450
  33.9954530  83.0272860  84.2057770  38.1625450  81.1523350  81.0354780
  37.8620990  81.0288320  81.9358690  38.0562940  80.2931940  80.6270510
  34.0553740  83.6884930  86.1134440  33.6184730  83.8685730  86.9458590
  34.6231420  84.4459550  85.9716160  49.6915920  83.1901930  90.4011750
  49.0917910  83.2494490  89.6575670  49.8209820  82.2506910  90.5308600
  33.8878170  76.2005160  82.4723320  33.2327010  75.9316800  81.8283020
  34.7256120  76.0909640  82.0225300  51.3933800  78.5317330  83.0857590
  51.7642630  77.7484650  82.6793560  52.0335730  79.2206430  82.9074890
  48.3767560  79.9153910  88.4987910  47.5627400  80.3451070  88.7613700
  48.7841760  80.5272320  87.8856960  34.9254100  76.5857730  87.0126660
  35.2927140  76.4985130  87.8922680  34.3564920  75.8224280  86.9133520
  49.7257960  75.0542110  90.0257130  49.4944050  74.8254860  89.1255080
  49.9862510  75.9741660  89.9802020  34.4770100  73.4966820  90.9185080
  33.5826150  73.4633580  91.2578790  35.0167650  73.6953610  91.6836330
  48.1646030  70.2798540  92.8036830  49.0416210  70.2881940  93.1870830
  48.1766870  69.5429380  92.1929180  33.1016250  73.4104090  78.4148650
  32.1980330  73.6734290  78.2400310  33.5856870  73.6815260  77.6348610
  49.6109300  74.1328080  83.6924850  50.1346780  73.6390730  83.0615020
  50.1968720  74.2678440  84.4372420  49.7899020  74.2167950  87.2144400
  48.8401730  74.1831490  87.3289390  49.9712030  75.1268060  86.9794170
  35.6443460  72.4669630  76.3243030  36.3535160  72.0452850  75.8390310
  34.9283400  72.5344860  75.6926380  35.2917620  68.5208960  75.3645680
  36.0145750  69.0617900  75.6826900  35.5642140  68.2472380  74.4887220
  34.9809810  67.7715150  85.2668300  35.6286000  67.2212530  84.8263460
  35.4011650  68.0258300  86.0884110  48.8762150  67.9656510  88.6237940
  49.5134370  68.5790650  88.9897130  49.0237040  68.0017170  87.6787170
  48.4343610  84.6672510  82.0256180  49.0302680  84.3457080  81.3490600
  48.6921760  84.1944330  82.8169450  34.7341810  67.9270820  88.0093620
  34.3856630  68.3834640  88.7751800  34.4029510  67.0327950  88.0916050
  36.3406180  81.0990420  92.1746810  36.2975810  80.7283330  93.0561270
  36.4717190  82.0367990  92.3148630  40.0412210  82.6550010  87.7756530
  39.8003570  82.9224570  86.8887050  40.9814850  82.8255740  87.8307390
  42.2466630  69.1182700  91.5313040  42.1855520  69.7104530  92.2808450
  43.1867010  69.0108660  91.3863300  44.8841190  68.7752760  91.1705330
  45.4981600  69.0932050  90.5086410  45.4290750  68.2901350  91.7901190
  51.3016370  84.6744390  88.5767170  50.8074650  85.0713260  87.8594300
  50.6929660  84.0493600  88.9704450  35.4062450  67.4547020  91.2844390
  35.9545440  67.2735070  90.5210500  35.4717760  66.6641130  91.8200700
  36.1794210  84.0452670  89.2944590  35.5854530  83.9137370  90.0334630
  36.1718050  83.2090810  88.8286690  45.6249230  67.3384900  87.4974620
  44.7509070  67.6720010  87.2947550  45.5159980  66.8658080  88.3226490
  46.5321210  69.5455770  88.8816340  46.2034570  68.7307530  88.5018070
  47.4803510  69.5025580  88.7582030  48.9855820  85.3167810  85.8553910
  48.5258790  86.0683620  85.4811930  48.3568280  84.5974280  85.7968710
  35.8106440  81.4111050  88.2452630  35.0840500  80.7916340  88.1778580
  35.8715590  81.8051660  87.3750710  39.4151540  83.6256050  85.0302040
  39.9316560  83.0143410  84.5050300  40.0648920  84.1284830  85.5213050
  42.1547040  84.5164540  85.8571020  42.4424850  84.2618840  84.9804030
  42.6670260  83.9641900  86.4476590  43.3724050  68.2554740  86.4367530
  42.5895840  68.7300240  86.7164290  43.0786980  67.3509570  86.3280710
  47.9245120  68.9577840  84.4816620  48.3653210  68.9022940  83.6338220
  47.6552710  69.8735850  84.5526800  34.0936440  84.7285440  81.4549390
  33.9258480  84.0956120  82.1531280  33.2270950  84.9344840  81.1043580
  34.7164460  68.5602220  78.9581250  35.4743820  68.6731100  78.3845280
  34.2541630  69.3971420  78.9124680  41.2578270  70.6741490  81.9483560
  40.4452780  70.2998380  81.6079440  41.7619910  69.9186570  82.2504750
  45.7603250  67.3383940  83.1866630  46.3632620  67.9104150  83.6615150
  45.0196240  67.9023380  82.9640530  35.6999140  83.4218670  78.8999530
  35.1746760  83.8026700  78.1961490  35.6243720  84.0469440  79.6209240
  37.0889610  69.0866270  77.4983220  37.6182370  68.2996070  77.3691170
  37.7217930  69.7657460  77.7318750  39.2827450  68.8241410  80.5528610
  38.6530190  68.1228720  80.7198740  38.7432590  69.5845540  80.3361770
  42.2219400  85.4380640  93.2239220  43.1486710  85.2024910  93.2675180
  42.2069830  86.2652640  92.7425250  50.4564460  84.9806210  80.2213470
  50.6316650  84.2943950  79.5774390  49.7586030  85.5053260  79.8290140
  39.4083010  68.1025390  92.9881100  39.1267280  68.6058990  92.2241920
  39.7902710  67.3047140  92.6223230  38.2992110  85.3701050  77.7748780
  39.0310930  85.0860330  77.2272670  38.5585780  85.1314330  78.6648160
  37.4606900  81.4865780  77.7795110  36.8315780  81.9550880  78.3280940
  37.5754730  80.6415000  78.2141300  46.0098470  67.5178970  93.5661570
  45.8963920  67.8373580  94.4613090  46.8268210  67.9191480  93.2698850
  48.7896960  84.6650500  93.0480260  49.5822280  84.1699730  92.8406220
  49.0830110  85.3440640  93.6555870  37.0640490  77.6270270  66.6881340
  36.2325370  77.3718980  67.0877850  37.6721470  77.6981040  67.4239260
  37.0441750  81.6610360  66.8839360  37.3469790  80.7708100  66.7049580
  37.7885340  82.2180580  66.6561610  35.4732440  72.5872160  60.4723730
  34.5849140  72.9288130  60.3703610  35.7573630  72.3872480  59.5804560
  33.4365450  75.1877810  66.3563430  34.0081560  74.4200010  66.3567070
  33.4366990  75.4866570  65.4470040  43.2945400  84.0068660  64.2108700
  42.6756840  84.4626160  63.6403140  44.1497180  84.1620120  63.8098400
  34.6790320  70.5962170  68.1432360  34.4993160  69.6987920  68.4235120
  34.2770400  71.1434040  68.8179310  37.6493830  71.1703660  61.5062110
  37.7560580  72.0707390  61.8130870  36.7386190  71.1221630  61.2156760
  35.2976990  73.0922670  66.7514700  35.9787100  73.3561040  67.3702100
  34.9825040  72.2523540  67.0852710  39.4901560  74.1390030  65.8387290
  39.9979780  74.6371000  66.4792310  40.0214800  73.3625230  65.6626650
  37.7737660  68.7788590  70.1050710  37.7756100  69.2960980  69.2996610
  36.9441970  68.3018770  70.0820640  39.0240510  78.4183770  68.2824210
  38.6909890  79.0452690  68.9245280  39.2007190  78.9445650  67.5025880
  37.4552990  70.4898550  68.1121160  37.7969800  71.3340600  67.8175030
  36.5168800  70.6382290  68.2286500  38.2359610  80.3864570  70.0973390
  38.8533610  81.0615650  69.8157840  37.3752730  80.7952550  70.0060890
  33.5291950  79.5764430  58.9780240  33.1519930  80.0651530  58.2465140
  33.7865020  80.2489710  59.6086770  41.1380880  67.9780820  64.4365750
  41.4455860  67.4227710  63.7201250  40.2081580  68.1125280  64.2538740
  39.1318280  76.5694390  63.9545600  38.7275280  75.8571640  63.4591500
  39.2181400  76.2247630  64.8433640  39.5999980  80.2561950  66.1184810
  39.3028270  79.6507420  65.4392590  40.5499800  80.2939260  66.0074170
  37.8446900  73.3437600  67.7344640  38.3961490  73.4532940  66.9597890
  38.3590410  73.7175200  68.4499870  38.6918410  79.9943640  72.7692610
  37.7946940  80.2183610  73.0166010  38.7171280  80.1178580  71.8204010
  37.5189630  76.8656960  71.3449980  37.3797400  77.7379760  71.7137380
  36.6370990  76.5229770  71.1997920  39.3169980  82.8078660  73.5535130
  39.2885410  83.2121610  72.6863560  39.1534950  81.8789020  73.3906730
  35.8322910  75.4639370  61.4552250  35.7120510  76.1901460  60.8433520
  35.5223800  74.6942280  60.9780160  33.4708280  78.6354510  67.2620890
  33.5488700  78.7703280  66.3176610  34.0849960  77.9270400  67.4549010
  34.7155910  80.3354700  63.6727070  34.3083990  80.4769290  62.8180670
  35.6068920  80.0514860  63.4698280  38.9877570  84.5500480  61.7849740
  38.8120050  83.6336020  61.5717540  38.1333310  84.9087770  62.0247540
  46.2115320  82.2789510  58.5676120  45.5180480  82.2766800  57.9078400
  46.9538180  81.8548830  58.1370290  33.5267800  79.6768680  69.8015350
  33.6898840  79.2074040  68.9834720  33.9920250  79.1692240  70.4664190
  38.2986570  68.8074440  64.8375920  37.8554720  69.5883980  64.5060440
  38.8571560  69.1304330  65.5446860  41.4145390  68.4285140  59.7181750
  40.7899570  68.4245010  60.4435060  41.3275510  67.5616100  59.3217720
  40.3362470  69.3521770  66.6965520  40.6334800  70.2584600  66.6157540
  40.8848030  68.8640550  66.0825090  38.0900790  73.9308010  62.5657170
  37.8641710  73.7145180  63.4703790  37.3093320  74.3636470  62.2203140
  40.5300000  74.8293590  73.2317440  40.4343600  73.8888320  73.0817840
  41.3731980  75.0508660  72.8365510  43.9263420  72.5734920  63.1951100
  44.3192990  72.8907120  62.3819790  44.2880270  71.6946800  63.3095620
  35.6610540  71.2407260  71.3851220  35.2673930  72.0882470  71.5924000
  34.9728940  70.6033630  71.5759860  32.9627590  69.1635720  65.4181300
  32.6740640  69.7338580  66.1306280  33.7073350  68.6840170  65.7812530
  33.1497820  73.1055840  56.6284020  33.0672490  74.0486600  56.7699010
  32.7980880  72.9630750  55.7496370  40.9495950  71.8394870  65.6954370
  40.9532010  71.3984820  64.8458910  41.8447070  72.1612200  65.8026190
  36.7998330  71.7221360  64.6548580  36.4598380  72.1996590  65.4115630
  36.0375650  71.2686480  64.2949680  41.0116100  72.8406950  58.6861130
  41.1328920  72.7993430  59.6346950  40.6264610  73.7031100  58.5307860
  40.0237600  75.1508090  58.0844430  39.4554500  74.7026340  57.4580340
  40.7326600  75.5100870  57.5509580  35.1006780  79.0520110  71.9611160
  34.7161570  78.4113780  72.5594120  35.4118970  79.7556230  72.5305890
  41.2503920  75.8996650  67.4419780  41.6174050  75.4255220  68.1881120
  41.0608980  76.7738220  67.7828120  34.1144410  70.6440340  63.5713250
  33.8291330  70.2796010  64.4091870  34.0523270  69.9120800  62.9576390
  39.0403290  74.9405290  69.7603990  38.7360360  75.8197270  69.9854350
  39.9949750  75.0005080  69.7961430  37.5685080  79.1466280  60.3570840
  36.7947340  78.6063900  60.1969560  38.2979710  78.6272890  60.0188600
  37.6122480  78.8146660  63.9949650  38.1301150  78.0114920  63.9406540
  37.1606500  78.7525800  64.8366480  35.0967020  75.7808030  70.9075350
  34.7381960  76.4461880  71.4948690  34.8021580  74.9491580  71.2787970
  38.2980140  76.2392270  73.7914900  37.9980280  76.3849450  72.8942720
  39.0691380  75.6797560  73.6988290  33.6075070  75.7799290  57.5309950
  34.4769920  76.0624090  57.8145870  33.1165390  76.5935160  57.4158760
  43.0742490  82.6778840  68.8810530  43.7184710  82.8838220  69.5583950
  43.4371930  81.9167240  68.4281380  36.6721660  67.5110150  62.1240750
  36.5436290  67.5028050  63.0725670  35.8483680  67.8493240  61.7731760
  33.9746320  84.9926670  58.0971580  34.3343960  85.5916010  57.4428850
  33.8338660  85.5386560  58.8706610  33.6715590  69.2701270  71.5847450
  32.9574110  69.4698190  72.1900060  34.0910630  68.4940840  71.9562250
  33.9588180  83.2581530  72.5713980  34.0679300  82.3176270  72.4309370
  33.3068740  83.5236280  71.9227710  39.9914940  82.3757870  58.9145250
  39.9825040  83.1087560  58.2989760  39.0713300  82.1289450  59.0072210
  35.5921580  77.5972760  59.6592010  34.9849530  78.3371660  59.6687310
  36.0670930  77.6872120  58.8330210  42.9774540  82.4386110  57.5770440
  43.0786520  82.2350100  56.6472420  42.0776280  82.1844390  57.7818220
  40.5000430  72.9966470  61.5594340  39.7916580  73.4652810  62.0007950
  40.7844910  72.3388480  62.1939530  42.1256360  74.4163170  69.5586870
  42.6241610  74.8908990  70.2238720  42.2679310  73.4926690  69.7656900
  41.6192650  84.9572430  62.2718110  41.8734150  84.9193820  61.3497480
  40.6705130  84.8305760  62.2646360  38.7035450  71.3051550  58.9345050
  39.5525980  71.7421700  58.8685240  38.3366720  71.6171810  59.7617110
  37.6026870  77.5583910  57.4080580  38.3690140  77.4465270  57.9706010
  37.6801560  76.8621880  56.7557350  36.2973630  74.9908980  58.0913470
  36.3777220  74.0436490  58.2030870  37.1893380  75.3215860  58.1974130
  37.0988340  85.1404370  65.1948010  37.8350820  84.5919830  65.4656580
  37.4829260  86.0060380  65.0554000  33.9833820  81.2077940  61.0689520
  33.0573600  81.4499080  61.0594930  34.4490250  82.0352200  60.9474270
  36.1046620  84.3250440  74.3833590  36.9059350  84.6462490  74.7968990
  35.5898440  83.9646020  75.1053500  40.2090650  84.3134680  57.0173580
  41.0019260  84.6023510  56.5655370  39.6895000  83.8826850  56.3386060
  33.8244430  76.8123900  73.3269640  34.3283450  76.2331180  73.8985870
  33.0851850  77.0964130  73.8646010  40.7268050  79.5338090  56.8815930
  40.6218690  78.9190440  57.6077310  40.5592270  79.0103980  56.0978940
  40.8782370  78.2194890  72.8605160  40.1128040  78.7879890  72.7759830
  41.0598330  77.9271100  71.9673390  35.8567510  74.9553490  74.2219710
  35.8972850  74.6567360  75.1304940  36.7113010  75.3561100  74.0627230
  39.6345900  77.5549040  59.3823220  40.0562320  77.3888910  60.2254610
  39.7596740  76.7449270  58.8878360  37.7973320  73.5345590  72.1894200
  37.2669780  73.0436540  71.5617540  38.4661390  73.9629790  71.6552130
  42.1473540  76.5786650  56.6300320  42.6679200  75.8635670  56.2641470
  42.7941940  77.2172520  56.9300830  38.2845620  70.5007960  72.2691490
  38.1902490  69.8828710  71.5442360  37.7043010  71.2274250  72.0421400
  41.0507060  69.0581200  69.3018880  40.6024360  69.0805460  68.4564430
  40.4172260  68.6600220  69.8989180  41.4566610  77.9535530  69.9231320
  41.8754720  78.7968260  69.7507560  40.5375240  78.0907570  69.6938100
  38.5304800  73.6282270  56.3281380  38.3293860  72.7649630  56.6894720
  38.3596850  73.5415630  55.3902980  39.3074030  84.2588540  71.0389050
  38.7695120  84.9834600  70.7197750  39.5607990  83.7818880  70.2486390
  40.5599280  72.2273060  72.5644980  41.1498970  71.9188910  73.2522800
  39.7419520  71.7552810  72.7204880  37.3287600  70.7282890  56.3159260
  37.6313500  70.7350320  55.4078410  38.0682190  70.3780750  56.8126920
  42.1636240  85.4939750  71.2975700  42.0894940  86.3974890  71.6048070
  41.2615080  85.1751650  71.2697770  40.5472530  69.6717510  57.3015460
  40.1994530  68.9941500  56.7217910  40.7485300  69.2107020  58.1158850
  42.7121570  84.6598260  58.9202060  43.6072360  84.9983230  58.9420820
  42.7439200  83.9377670  58.2926340  36.3517730  80.0325310  57.1489060
  36.7892600  80.5754980  57.8046640  36.8365460  79.2072260  57.1585400
  33.5663530  82.8214340  64.6009320  33.8966540  81.9535400  64.3687960
  33.9954530  83.0272860  65.4314280  38.1625450  81.1523350  62.2611290
  37.8620990  81.0288320  63.1615200  38.0562940  80.2931940  61.8527020
  34.0553740  83.6884930  67.3390950  33.6184730  83.8685730  68.1715100
  34.6231420  84.4459550  67.1972670  33.8878170  76.2005160  63.6979830
  33.2327010  75.9316800  63.0539530  34.7256120  76.0909640  63.2481810
  34.9254100  76.5857730  68.2383170  35.2927140  76.4985130  69.1179190
  34.3564920  75.8224280  68.1390030  34.4770100  73.4966820  72.1441590
  33.5826150  73.4633580  72.4835300  35.0167650  73.6953610  72.9092840
  33.1016250  73.4104090  59.6405160  32.1980330  73.6734290  59.4656820
  33.5856870  73.6815260  58.8605120  35.6443460  72.4669630  57.5499540
  36.3535160  72.0452850  57.0646820  34.9283400  72.5344860  56.9182890
  35.2917620  68.5208960  56.5902190  36.0145750  69.0617900  56.9083410
  35.5642140  68.2472380  55.7143730  34.9809810  67.7715150  66.4924810
  35.6286000  67.2212530  66.0519970  35.4011650  68.0258300  67.3140620
  34.7341810  67.9270820  69.2350130  34.3856630  68.3834640  70.0008310
  34.4029510  67.0327950  69.3172560  36.3406180  81.0990420  73.4003320
  36.2975810  80.7283330  74.2817780  36.4717190  82.0367990  73.5405140
  40.0412210  82.6550010  69.0013040  39.8003570  82.9224570  68.1143560
  40.9814850  82.8255740  69.0563900  35.4062450  67.4547020  72.5100900
  35.9545440  67.2735070  71.7467010  35.4717760  66.6641130  73.0457210
  36.1794210  84.0452670  70.5201100  35.5854530  83.9137370  71.2591140
  36.1718050  83.2090810  70.0543200  35.8106440  81.4111050  69.4709140
  35.0840500  80.7916340  69.4035090  35.8715590  81.8051660  68.6007220
  39.4151540  83.6256050  66.2558550  39.9316560  83.0143410  65.7306810
  40.0648920  84.1284830  66.7469560  42.1547040  84.5164540  67.0827530
  42.4424850  84.2618840  66.2060540  42.6670260  83.9641900  67.6733100
  34.0936440  84.7285440  62.6805900  33.9258480  84.0956120  63.3787790
  33.2270950  84.9344840  62.3300090  34.7164460  68.5602220  60.1837760
  35.4743820  68.6731100  59.6101790  34.2541630  69.3971420  60.1381190
  41.2578270  70.6741490  63.1740070  40.4452780  70.2998380  62.8335950
  41.7619910  69.9186570  63.4761260  35.6999140  83.4218670  60.1256040
  35.1746760  83.8026700  59.4218000  35.6243720  84.0469440  60.8465750
  37.0889610  69.0866270  58.7239730  37.6182370  68.2996070  58.5947680
  37.7217930  69.7657460  58.9575260  39.2827450  68.8241410  61.7785120
  38.6530190  68.1228720  61.9455250  38.7432590  69.5845540  61.5618280
  42.2219400  85.4380640  74.4495730  43.1486710  85.2024910  74.4931690
  42.2069830  86.2652640  73.9681760  39.4083010  68.1025390  74.2137610
  39.1267280  68.6058990  73.4498430  39.7902710  67.3047140  73.8479740
  38.2992110  85.3701050  59.0005290  39.0310930  85.0860330  58.4529180
  38.5585780  85.1314330  59.8904670  37.4606900  81.4865780  59.0051620
  36.8315780  81.9550880  59.5537450  37.5754730  80.6415000  59.4397810
  44.9156620  75.5371440  45.1552820  44.8350670  74.6226050  44.8844530
  44.5021040  76.0338510  44.4492530  43.0474660  77.3150460  47.0362090
  42.2716760  76.8350900  47.3260660  43.6987590  76.6356110  46.8618250
  37.0640490  77.6270270  47.9137850  36.2325370  77.3718980  48.3134360
  37.6721470  77.6981040  48.6495770  47.0682090  81.7210650  45.8161220
  46.6063620  80.9497890  46.1448390  47.8807640  81.7476720  46.3213670
  37.0441750  81.6610360  48.1095870  37.3469790  80.7708100  47.9306090
  37.7885340  82.2180580  47.8818120  35.4732440  72.5872160  41.6980240
  34.5849140  72.9288130  41.5960120  35.7573630  72.3872480  40.8061070
  33.4365450  75.1877810  47.5819940  34.0081560  74.4200010  47.5823580
  33.4366990  75.4866570  46.6726550  43.2945400  84.0068660  45.4365210
  42.6756840  84.4626160  44.8659650  44.1497180  84.1620120  45.0354910
  42.4883650  79.9907650  47.0432250  42.4191930  79.0497590  46.8821380
  43.2503510  80.0809060  47.6154820  34.6790320  70.5962170  49.3688870
  34.4993160  69.6987920  49.6491630  34.2770400  71.1434040  50.0435820
  43.5188820  72.7978030  47.2701180  43.8953640  71.9249910  47.1574850
  43.4208330  73.1336730  46.3791620  37.6493830  71.1703660  42.7318620
  37.7560580  72.0707390  43.0387380  36.7386190  71.1221630  42.4413270
  35.2976990  73.0922670  47.9771210  35.9787100  73.3561040  48.5958610
  34.9825040  72.2523540  48.3109220  39.4901560  74.1390030  47.0643800
  39.9979780  74.6371000  47.7048820  40.0214800  73.3625230  46.8883160
  37.7737660  68.7788590  51.3307220  37.7756100  69.2960980  50.5253120
  36.9441970  68.3018770  51.3077150  44.1608750  78.8907900  42.8297120
  43.5426020  79.3557350  42.2659840  44.6732000  79.5835380  43.2466630
  39.0240510  78.4183770  49.5080720  38.6909890  79.0452690  50.1501790
  39.2007190  78.9445650  48.7282390  37.4552990  70.4898550  49.3377670
  37.7969800  71.3340600  49.0431540  36.5168800  70.6382290  49.4543010
  38.2359610  80.3864570  51.3229900  38.8533610  81.0615650  51.0414350
  37.3752730  80.7952550  51.2317400  33.5291950  79.5764430  40.2036750
  33.1519930  80.0651530  39.4721650  33.7865020  80.2489710  40.8343280
  41.1380880  67.9780820  45.6622260  41.4455860  67.4227710  44.9457760
  40.2081580  68.1125280  45.4795250  46.6895940  83.6948110  47.9529720
  46.7023100  83.2910400  47.0851980  46.1371160  84.4695400  47.8491150
  47.9841360  80.4164330  43.0419890  47.8737690  79.4738660  43.1669310
  47.9809610  80.7779970  43.9282650  46.0881380  78.5977950  49.2812330
  46.5050170  78.3838060  48.4465790  46.8121200  78.8550740  49.8520950
  43.5261640  76.0429650  42.3982380  42.5990920  75.9767030  42.6270850
  43.6786460  76.9809780  42.2837620  47.5558930  77.6049950  42.9017630
  46.9371350  77.2669500  42.2543930  47.5383380  76.9609710  43.6096820
  39.1318280  76.5694390  45.1802110  38.7275280  75.8571640  44.6848010
  39.2181400  76.2247630  46.0690150  39.5999980  80.2561950  47.3441320
  39.3028270  79.6507420  46.6649100  40.5499800  80.2939260  47.2330680
  37.8446900  73.3437600  48.9601150  38.3961490  73.4532940  48.1854400
  38.3590410  73.7175200  49.6756380  47.6885590  83.8293820  51.0064420
  47.2116150  84.6366010  50.8137030  47.0047380  83.1772150  51.1590630
  38.6918410  79.9943640  53.9949120  37.7946940  80.2183610  54.2422520
  38.7171280  80.1178580  53.0460520  45.7323630  76.8436760  39.9090380
  46.1716910  76.0059190  39.7628200  46.4452050  77.4766160  39.9954520
  37.5189630  76.8656960  52.5706490  37.3797400  77.7379760  52.9393890
  36.6370990  76.5229770  52.4254430  43.8419010  81.7832830  43.8771620
  44.2814920  82.5257160  43.4627010  43.7805900  82.0259400  44.8010580
  39.3169980  82.8078660  54.7791640  39.2885410  83.2121610  53.9120070
  39.1534950  81.8789020  54.6163240  35.8322910  75.4639370  42.6808760
  35.7120510  76.1901460  42.0690030  35.5223800  74.6942280  42.2036670
  33.4708280  78.6354510  48.4877400  33.5488700  78.7703280  47.5433120
  34.0849960  77.9270400  48.6805520  34.7155910  80.3354700  44.8983580
  34.3083990  80.4769290  44.0437180  35.6068920  80.0514860  44.6954790
  44.5334790  84.4846610  51.8050630  45.0479460  84.3954620  52.6073060
  43.6903870  84.8306310  52.0978540  46.5089190  84.7701950  41.2334630
  46.3490330  84.4804890  42.1316460  46.3435900  83.9942080  40.6979860
  38.9877570  84.5500480  43.0106250  38.8120050  83.6336020  42.7974050
  38.1333310  84.9087770  43.2504050  46.2115320  82.2789510  39.7932630
  45.5180480  82.2766800  39.1334910  46.9538180  81.8548830  39.3626800
  45.7765250  83.9052220  43.8681120  46.2322200  83.1241600  44.1819740
  46.1157770  84.6159040  44.4122300  33.5267800  79.6768680  51.0271860
  33.6898840  79.2074040  50.2091230  33.9920250  79.1692240  51.6920700
  38.2986570  68.8074440  46.0632430  37.8554720  69.5883980  45.7316950
  38.8571560  69.1304330  46.7703370  42.5856380  71.6742960  51.6667750
  42.1235750  71.8825980  52.4787690  42.1834490  70.8602310  51.3638420
  44.6810600  74.3953660  54.8963200  45.0064010  73.5617410  54.5565430
  45.4690930  74.9182180  55.0441530  40.3362470  69.3521770  47.9222030
  40.6334800  70.2584600  47.8414050  40.8848030  68.8640550  47.3081600
  38.0900790  73.9308010  43.7913680  37.8641710  73.7145180  44.6960300
  37.3093320  74.3636470  43.4459650  40.5300000  74.8293590  54.4573950
  40.4343600  73.8888320  54.3074350  41.3731980  75.0508660  54.0622020
  35.6610540  71.2407260  52.6107730  35.2673930  72.0882470  52.8180510
  34.9728940  70.6033630  52.8016370  42.2355590  71.3242230  55.6804470
  41.5453910  71.1314430  56.3150560  42.9787890  71.6076870  56.2128770
  32.9627590  69.1635720  46.6437810  32.6740640  69.7338580  47.3562790
  33.7073350  68.6840170  47.0069040  33.1497820  73.1055840  37.8540530
  33.0672490  74.0486600  37.9955520  32.7980880  72.9630750  36.9752880
  44.5118560  75.1640670  48.5158390  43.7799680  75.6727480  48.8648490
  44.1142900  74.3470650  48.2147170  40.9495950  71.8394870  46.9210880
  40.9532010  71.3984820  46.0715420  41.8447070  72.1612200  47.0282700
  36.7998330  71.7221360  45.8805090  36.4598380  72.1996590  46.6372140
  36.0375650  71.2686480  45.5206190  41.0116100  72.8406950  39.9117640
  41.1328920  72.7993430  40.8603460  40.6264610  73.7031100  39.7564370
  44.9744470  70.6174350  47.9281330  44.9917210  71.0683000  48.7723180
  44.7260050  69.7179990  48.1414770  40.0237600  75.1508090  39.3100940
  39.4554500  74.7026340  38.6836850  40.7326600  75.5100870  38.7766090
  35.1006780  79.0520110  53.1867670  34.7161570  78.4113780  53.7850630
  35.4118970  79.7556230  53.7562400  41.2503920  75.8996650  48.6676290
  41.6174050  75.4255220  49.4137630  41.0608980  76.7738220  49.0084630
  34.1144410  70.6440340  44.7969760  33.8291330  70.2796010  45.6348380
  34.0523270  69.9120800  44.1832900  39.0403290  74.9405290  50.9860500
  38.7360360  75.8197270  51.2110860  39.9949750  75.0005080  51.0217940
  37.5685080  79.1466280  41.5827350  36.7947340  78.6063900  41.4226070
  38.2979710  78.6272890  41.2445110  48.3273060  78.1431640  47.3753740
  49.0472180  78.6386930  46.9849850  48.1254880  77.4649530  46.7307610
  43.7091860  78.2140700  53.2622740  43.6429170  77.2936370  53.0080330
  43.0797000  78.3116140  53.9767380  37.6122480  78.8146660  45.2206160
  38.1301150  78.0114920  45.1663050  37.1606500  78.7525800  46.0622990
  42.4991980  80.0812940  40.4933460  42.8407680  80.8255170  39.9976780
  41.6704690  80.3944060  40.8558290  35.0967020  75.7808030  52.1331860
  34.7381960  76.4461880  52.7205200  34.8021580  74.9491580  52.5044480
  38.2980140  76.2392270  55.0171410  37.9980280  76.3849450  54.1199230
  39.0691380  75.6797560  54.9244800  43.6408590  81.0361270  53.0126540
  43.6553130  80.1042230  52.7945450  42.9333690  81.1221030  53.6516310
  48.7745660  75.2201090  39.2825150  48.6909380  75.6515310  38.4321590
  49.4939850  75.6799440  39.7151970  45.3819390  79.4028780  45.8578970
  45.7343210  78.8056910  45.1980340  44.4981720  79.0773010  46.0287220
  41.4682670  80.1626470  43.2649380  42.1553800  80.7095680  43.6456970
  40.6815090  80.7067200  43.2998990  33.6075070  75.7799290  38.7566460
  34.4769920  76.0624090  39.0402380  33.1165390  76.5935160  38.6415270
  40.7709880  77.1672500  42.8774740  41.2272660  77.9777750  43.1034930
  40.4198090  76.8495640  43.7093230  43.0742490  82.6778840  50.1067040
  43.7184710  82.8838220  50.7840460  43.4371930  81.9167240  49.6537890
  36.6721660  67.5110150  43.3497260  36.5436290  67.5028050  44.2982180
  35.8483680  67.8493240  42.9988270  44.3474570  80.6811190  48.8244490
  44.9896800  79.9804350  48.9376660  44.8723920  81.4609630  48.6441380
  48.1930290  80.9659810  38.5483630  47.9667870  80.2490250  39.1408270
  47.8026490  80.7172250  37.7105380  46.1212190  81.4806090  52.0280550
  46.4568430  82.0672780  52.7058470  45.2012530  81.3498800  52.2578340
  33.9746320  84.9926670  39.3228090  34.3343960  85.5916010  38.6685360
  33.8338660  85.5386560  40.0963120  33.6715590  69.2701270  52.8103960
  32.9574110  69.4698190  53.4156570  34.0910630  68.4940840  53.1818760
  47.7746540  78.8831750  40.2097790  47.4868240  79.3444440  40.9975670
  48.5698710  78.4229520  40.4782010  33.9588180  83.2581530  53.7970490
  34.0679300  82.3176270  53.6565880  33.3068740  83.5236280  53.1484220
  41.9500770  81.5297420  55.1968610  41.6297640  80.8106660  55.7414300
  41.2759130  82.2052490  55.2704670  39.9914940  82.3757870  40.1401760
  39.9825040  83.1087560  39.5246270  39.0713300  82.1289450  40.2328720
  35.5921580  77.5972760  40.8848520  34.9849530  78.3371660  40.8943820
  36.0670930  77.6872120  40.0586720  45.1654370  71.7623580  50.5605410
  45.5335190  70.9418790  50.8884980  44.3052570  71.8225470  50.9761060
  42.9774540  82.4386110  38.8026950  43.0786520  82.2350100  37.8728930
  42.0776280  82.1844390  39.0074730  40.5000430  72.9966470  42.7850850
  39.7916580  73.4652810  43.2264460  40.7844910  72.3388480  43.4196040
  42.1256360  74.4163170  50.7843380  42.6241610  74.8908990  51.4495230
  42.2679310  73.4926690  50.9913410  41.6192650  84.9572430  43.4974620
  41.8734150  84.9193820  42.5753990  40.6705130  84.8305760  43.4902870
  38.7035450  71.3051550  40.1601560  39.5525980  71.7421700  40.0941750
  38.3366720  71.6171810  40.9873620  37.6026870  77.5583910  38.6337090
  38.3690140  77.4465270  39.1962520  37.6801560  76.8621880  37.9813860
  36.2973630  74.9908980  39.3169980  36.3777220  74.0436490  39.4287380
  37.1893380  75.3215860  39.4230640  37.0988340  85.1404370  46.4204520
  37.8350820  84.5919830  46.6913090  37.4829260  86.0060380  46.2810510
  33.9833820  81.2077940  42.2946030  33.0573600  81.4499080  42.2851440
  34.4490250  82.0352200  42.1730780  36.1046620  84.3250440  55.6090100
  36.9059350  84.6462490  56.0225500  35.5898440  83.9646020  56.3310010
  40.2090650  84.3134680  38.2430090  41.0019260  84.6023510  37.7911880
  39.6895000  83.8826850  37.5642570  44.9411250  80.4330310  55.5565510
  44.3349410  80.4561910  54.8161260  44.6365360  79.7013350  56.0932760
  46.3711620  84.1610600  54.1674920  47.3233370  84.0768620  54.1175160
  46.2239840  84.8252310  54.8408710  49.2620820  83.5404810  39.6666830
  48.9762330  83.1269950  38.8521010  49.0640370  84.4692520  39.5467350
  33.8244430  76.8123900  54.5526150  34.3283450  76.2331180  55.1242380
  33.0851850  77.0964130  55.0902520  40.7268050  79.5338090  38.1072440
  40.6218690  78.9190440  38.8333820  40.5592270  79.0103980  37.3235450
  40.8782370  78.2194890  54.0861670  40.1128040  78.7879890  54.0016340
  41.0598330  77.9271100  53.1929900  43.9670780  78.5958120  38.7114430
  43.4180880  79.0427420  39.3557170  44.5890040  78.0907370  39.2352100
  48.0205720  79.9500220  54.6436690  48.7615190  80.2875980  54.1404150
  47.2578400  80.1192280  54.0906460  35.8567510  74.9553490  55.4476220
  35.8972850  74.6567360  56.3561450  36.7113010  75.3561100  55.2883740
  39.6345900  77.5549040  40.6079730  40.0562320  77.3888910  41.4511120
  39.7596740  76.7449270  40.1134870  37.7973320  73.5345590  53.4150710
  37.2669780  73.0436540  52.7874050  38.4661390  73.9629790  52.8808640
  42.1473540  76.5786650  37.8556830  42.6679200  75.8635670  37.4897980
  42.7941940  77.2172520  38.1557340  46.6951380  78.0015050  53.1791900
  47.1092400  78.1560130  54.0282320  45.7602380  78.1270270  53.3417680
  38.2845620  70.5007960  53.4948000  38.1902490  69.8828710  52.7698870
  37.7043010  71.2274250  53.2677910  41.0507060  69.0581200  50.5275390
  40.6024360  69.0805460  49.6820940  40.4172260  68.6600220  51.1245690
  41.4566610  77.9535530  51.1487830  41.8754720  78.7968260  50.9764070
  40.5375240  78.0907570  50.9194610  43.7930510  75.6851710  52.5325670
  43.9126720  75.0892850  53.2720510  44.6524510  75.7221400  52.1126970
  46.1318410  76.2388900  51.1088180  45.6053630  76.7631520  50.5053320
  46.4749750  76.8716290  51.7397910  38.5304800  73.6282270  37.5537890
  38.3293860  72.7649630  37.9151230  38.3596850  73.5415630  36.6159490
  39.3074030  84.2588540  52.2645560  38.7695120  84.9834600  51.9454260
  39.5607990  83.7818880  51.4742900  40.5599280  72.2273060  53.7901490
  41.1498970  71.9188910  54.4779310  39.7419520  71.7552810  53.9461390
  45.3792710  71.8438870  54.0234510  44.6908230  71.1820410  53.9584500
  46.0998730  71.3977140  54.4682970  37.3287600  70.7282890  37.5415770
  37.6313500  70.7350320  36.6334920  38.0682190  70.3780750  38.0383430
  42.1636240  85.4939750  52.5232210  42.0894940  86.3974890  52.8304580
  41.2615080  85.1751650  52.4954280  40.5472530  69.6717510  38.5271970
  40.1994530  68.9941500  37.9474420  40.7485300  69.2107020  39.3415360
  42.7121570  84.6598260  40.1458570  43.6072360  84.9983230  40.1677330
  42.7439200  83.9377670  39.5182850  36.3517730  80.0325310  38.3745570
  36.7892600  80.5754980  39.0303150  36.8365460  79.2072260  38.3841910
  33.5663530  82.8214340  45.8265830  33.8966540  81.9535400  45.5944470
  33.9954530  83.0272860  46.6570790  38.1625450  81.1523350  43.4867800
  37.8620990  81.0288320  44.3871710  38.0562940  80.2931940  43.0783530
  34.0553740  83.6884930  48.5647460  33.6184730  83.8685730  49.3971610
  34.6231420  84.4459550  48.4229180  49.6915920  83.1901930  52.8524770
  49.0917910  83.2494490  52.1088690  49.8209820  82.2506910  52.9821620
  33.8878170  76.2005160  44.9236340  33.2327010  75.9316800  44.2796040
  34.7256120  76.0909640  44.4738320  48.3767560  79.9153910  50.9500930
  47.5627400  80.3451070  51.2126720  48.7841760  80.5272320  50.3369980
  34.9254100  76.5857730  49.4639680  35.2927140  76.4985130  50.3435700
  34.3564920  75.8224280  49.3646540  34.4770100  73.4966820  53.3698100
  33.5826150  73.4633580  53.7091810  35.0167650  73.6953610  54.1349350
  33.1016250  73.4104090  40.8661670  32.1980330  73.6734290  40.6913330
  33.5856870  73.6815260  40.0861630  35.6443460  72.4669630  38.7756050
  36.3535160  72.0452850  38.2903330  34.9283400  72.5344860  38.1439400
  35.2917620  68.5208960  37.8158700  36.0145750  69.0617900  38.1339920
  35.5642140  68.2472380  36.9400240  34.9809810  67.7715150  47.7181320
  35.6286000  67.2212530  47.2776480  35.4011650  68.0258300  48.5397130
  48.4343610  84.6672510  44.4769200  49.0302680  84.3457080  43.8003620
  48.6921760  84.1944330  45.2682470  34.7341810  67.9270820  50.4606640
  34.3856630  68.3834640  51.2264820  34.4029510  67.0327950  50.5429070
  36.3406180  81.0990420  54.6259830  36.2975810  80.7283330  55.5074290
  36.4717190  82.0367990  54.7661650  40.0412210  82.6550010  50.2269550
  39.8003570  82.9224570  49.3400070  40.9814850  82.8255740  50.2820410
  42.2466630  69.1182700  53.9826060  42.1855520  69.7104530  54.7321470
  43.1867010  69.0108660  53.8376320  44.8841190  68.7752760  53.6218350
  45.4981600  69.0932050  52.9599430  45.4290750  68.2901350  54.2414210
  35.4062450  67.4547020  53.7357410  35.9545440  67.2735070  52.9723520
  35.4717760  66.6641130  54.2713720  36.1794210  84.0452670  51.7457610
  35.5854530  83.9137370  52.4847650  36.1718050  83.2090810  51.2799710
  45.6249230  67.3384900  49.9487640  44.7509070  67.6720010  49.7460570
  45.5159980  66.8658080  50.7739510  46.5321210  69.5455770  51.3329360
  46.2034570  68.7307530  50.9531090  47.4803510  69.5025580  51.2095050
  48.9855820  85.3167810  48.3066930  48.5258790  86.0683620  47.9324950
  48.3568280  84.5974280  48.2481730  35.8106440  81.4111050  50.6965650
  35.0840500  80.7916340  50.6291600  35.8715590  81.8051660  49.8263730
  39.4151540  83.6256050  47.4815060  39.9316560  83.0143410  46.9563320
  40.0648920  84.1284830  47.9726070  42.1547040  84.5164540  48.3084040
  42.4424850  84.2618840  47.4317050  42.6670260  83.9641900  48.8989610
  43.3724050  68.2554740  48.8880550  42.5895840  68.7300240  49.1677310
  43.0786980  67.3509570  48.7793730  47.9245120  68.9577840  46.9329640
  48.3653210  68.9022940  46.0851240  47.6552710  69.8735850  47.0039820
  34.0936440  84.7285440  43.9062410  33.9258480  84.0956120  44.6044300
  33.2270950  84.9344840  43.5556600  34.7164460  68.5602220  41.4094270
  35.4743820  68.6731100  40.8358300  34.2541630  69.3971420  41.3637700
  41.2578270  70.6741490  44.3996580  40.4452780  70.2998380  44.0592460
  41.7619910  69.9186570  44.7017770  45.7603250  67.3383940  45.6379650
  46.3632620  67.9104150  46.1128170  45.0196240  67.9023380  45.4153550
  35.6999140  83.4218670  41.3512550  35.1746760  83.8026700  40.6474510
  35.6243720  84.0469440  42.0722260  37.0889610  69.0866270  39.9496240
  37.6182370  68.2996070  39.8204190  37.7217930  69.7657460  40.1831770
  39.2827450  68.8241410  43.0041630  38.6530190  68.1228720  43.1711760
  38.7432590  69.5845540  42.7874790  42.2219400  85.4380640  55.6752240
  43.1486710  85.2024910  55.7188200  42.2069830  86.2652640  55.1938270
  50.4564460  84.9806210  42.6726490  50.6316650  84.2943950  42.0287410
  49.7586030  85.5053260  42.2803160  39.4083010  68.1025390  55.4394120
  39.1267280  68.6058990  54.6754940  39.7902710  67.3047140  55.0736250
  38.2992110  85.3701050  40.2261800  39.0310930  85.0860330  39.6785690
  38.5585780  85.1314330  41.1161180  37.4606900  81.4865780  40.2308130
  36.8315780  81.9550880  40.7793960  37.5754730  80.6415000  40.6654320
  46.0098470  67.5178970  56.0174590  45.8963920  67.8373580  56.9126110
  46.8268210  67.9191480  55.7211870  48.7896960  84.6650500  55.4993280
  49.5822280  84.1699730  55.2919240  49.0830110  85.3440640  56.1068890
  44.9156620  75.5371440  26.3809330  44.8350670  74.6226050  26.1101040
  44.5021040  76.0338510  25.6749040  43.0474660  77.3150460  28.2618600
  42.2716760  76.8350900  28.5517170  43.6987590  76.6356110  28.0874760
  37.0640490  77.6270270  29.1394360  36.2325370  77.3718980  29.5390870
  37.6721470  77.6981040  29.8752280  47.0682090  81.7210650  27.0417730
  46.6063620  80.9497890  27.3704900  47.8807640  81.7476720  27.5470180
  37.0441750  81.6610360  29.3352380  37.3469790  80.7708100  29.1562600
  37.7885340  82.2180580  29.1074630  35.4732440  72.5872160  22.9236750
  34.5849140  72.9288130  22.8216630  35.7573630  72.3872480  22.0317580
  33.4365450  75.1877810  28.8076450  34.0081560  74.4200010  28.8080090
  33.4366990  75.4866570  27.8983060  43.2945400  84.0068660  26.6621720
  42.6756840  84.4626160  26.0916160  44.1497180  84.1620120  26.2611420
  42.4883650  79.9907650  28.2688760  42.4191930  79.0497590  28.1077890
  43.2503510  80.0809060  28.8411330  34.6790320  70.5962170  30.5945380
  34.4993160  69.6987920  30.8748140  34.2770400  71.1434040  31.2692330
  43.5188820  72.7978030  28.4957690  43.8953640  71.9249910  28.3831360
  43.4208330  73.1336730  27.6048130  37.6493830  71.1703660  23.9575130
  37.7560580  72.0707390  24.2643890  36.7386190  71.1221630  23.6669780
  47.3012940  70.2928470  25.4286030  48.1222560  69.8025040  25.4711510
  47.3347020  70.8826130  26.1817870  35.2976990  73.0922670  29.2027720
  35.9787100  73.3561040  29.8215120  34.9825040  72.2523540  29.5365730
  39.4901560  74.1390030  28.2900310  39.9979780  74.6371000  28.9305330
  40.0214800  73.3625230  28.1139670  51.5912490  72.3095220  31.9929660
  50.8864660  72.6976930  31.4744770  51.8570410  73.0045510  32.5950590
  37.7737660  68.7788590  32.5563730  37.7756100  69.2960980  31.7509630
  36.9441970  68.3018770  32.5333660  44.1608750  78.8907900  24.0553630
  43.5426020  79.3557350  23.4916350  44.6732000  79.5835380  24.4723140
  39.0240510  78.4183770  30.7337230  38.6909890  79.0452690  31.3758300
  39.2007190  78.9445650  29.9538900  47.5374420  72.2328850  28.2013570
  46.8329990  72.5213740  28.7816680  47.8986580  73.0428960  27.8413130
  37.4552990  70.4898550  30.5634180  37.7969800  71.3340600  30.2688050
  36.5168800  70.6382290  30.6799520  38.2359610  80.3864570  32.5486410
  38.8533610  81.0615650  32.2670860  37.3752730  80.7952550  32.4573910
  33.5291950  79.5764430  21.4293260  33.1519930  80.0651530  20.6978160
  33.7865020  80.2489710  22.0599790  49.1537200  81.8503980  30.4641050
  48.4700720  82.5203090  30.4557720  49.6931490  82.0484630  29.6985910
  50.6061340  71.6783640  28.5922780  49.6586250  71.7122620  28.7238210
  50.9311330  72.4922590  28.9772140  41.1380880  67.9780820  26.8878770
  41.4455860  67.4227710  26.1714270  40.2081580  68.1125280  26.7051760
  46.6895940  83.6948110  29.1786230  46.7023100  83.2910400  28.3108490
  46.1371160  84.4695400  29.0747660  47.9841360  80.4164330  24.2676400
  47.8737690  79.4738660  24.3925820  47.9809610  80.7779970  25.1539160
  46.0881380  78.5977950  30.5068840  46.5050170  78.3838060  29.6722300
  46.8121200  78.8550740  31.0777460  43.5261640  76.0429650  23.6238890
  42.5990920  75.9767030  23.8527360  43.6786460  76.9809780  23.5094130
  43.5130720  72.3146650  20.6206050  42.5734390  72.4760610  20.7058510
  43.8313980  73.0332330  20.0742040  50.0343480  76.9965170  30.5985080
  49.2062110  77.0658260  30.1235210  50.6293960  77.5819480  30.1300910
  47.5558930  77.6049950  24.1274140  46.9371350  77.2669500  23.4800440
  47.5383380  76.9609710  24.8353330  46.9985490  73.7834490  31.5439950
  46.5856670  74.6088200  31.7979940  46.2661440  73.1979530  31.3516310
  39.1318280  76.5694390  26.4058620  38.7275280  75.8571640  25.9104520
  39.2181400  76.2247630  27.2946660  39.5999980  80.2561950  28.5697830
  39.3028270  79.6507420  27.8905610  40.5499800  80.2939260  28.4587190
  37.8446900  73.3437600  30.1857660  38.3961490  73.4532940  29.4110910
  38.3590410  73.7175200  30.9012890  47.6885590  83.8293820  32.2320930
  47.2116150  84.6366010  32.0393540  47.0047380  83.1772150  32.3847140
  38.6918410  79.9943640  35.2205630  37.7946940  80.2183610  35.4679030
  38.7171280  80.1178580  34.2717030  45.7323630  76.8436760  21.1346890
  46.1716910  76.0059190  20.9884710  46.4452050  77.4766160  21.2211030
  37.5189630  76.8656960  33.7963000  37.3797400  77.7379760  34.1650400
  36.6370990  76.5229770  33.6510940  43.8419010  81.7832830  25.1028130
  44.2814920  82.5257160  24.6883520  43.7805900  82.0259400  26.0267090
  39.3169980  82.8078660  36.0048150  39.2885410  83.2121610  35.1376580
  39.1534950  81.8789020  35.8419750  49.3140770  68.0979570  19.4487930
  49.0013430  68.1906400  20.3487000  50.0753240  68.6760600  19.3985360
  35.8322910  75.4639370  23.9065270  35.7120510  76.1901460  23.2946540
  35.5223800  74.6942280  23.4293180  51.2684800  83.5905760  37.3012320
  51.7444520  84.0688650  37.9801400  51.8891960  83.5223250  36.5757820
  33.4708280  78.6354510  29.7133910  33.5488700  78.7703280  28.7689630
  34.0849960  77.9270400  29.9062030  34.7155910  80.3354700  26.1240090
  34.3083990  80.4769290  25.2693690  35.6068920  80.0514860  25.9211300
  50.6718050  80.7818610  34.4612330  50.7981110  80.5430490  33.5429510
  50.7139430  79.9503150  34.9334410  44.5334790  84.4846610  33.0307140
  45.0479460  84.3954620  33.8329570  43.6903870  84.8306310  33.3235050
  46.5089190  84.7701950  22.4591140  46.3490330  84.4804890  23.3572970
  46.3435900  83.9942080  21.9236370  38.9877570  84.5500480  24.2362760
  38.8120050  83.6336020  24.0230560  38.1333310  84.9087770  24.4760560
  46.2115320  82.2789510  21.0189140  45.5180480  82.2766800  20.3591420
  46.9538180  81.8548830  20.5883310  45.7765250  83.9052220  25.0937630
  46.2322200  83.1241600  25.4076250  46.1157770  84.6159040  25.6378810
  50.5242060  72.8351070  35.4262070  49.9086330  73.3430740  34.8977530
  50.2038480  71.9349400  35.3688010  33.5267800  79.6768680  32.2528370
  33.6898840  79.2074040  31.4347740  33.9920250  79.1692240  32.9177210
  38.2986570  68.8074440  27.2888940  37.8554720  69.5883980  26.9573460
  38.8571560  69.1304330  27.9959880  42.5856380  71.6742960  32.8924260
  42.1235750  71.8825980  33.7044200  42.1834490  70.8602310  32.5894930
  47.5860890  72.8951910  34.0220920  46.7354480  72.5957660  34.3429990
  47.4262680  73.1393920  33.1104740  44.6810600  74.3953660  36.1219710
  45.0064010  73.5617410  35.7821940  45.4690930  74.9182180  36.2698040
  41.4145390  68.4285140  22.1694770  40.7899570  68.4245010  22.8948080
  41.3275510  67.5616100  21.7730740  40.3362470  69.3521770  29.1478540
  40.6334800  70.2584600  29.0670560  40.8848030  68.8640550  28.5338110
  38.0900790  73.9308010  25.0170190  37.8641710  73.7145180  25.9216810
  37.3093320  74.3636470  24.6716160  45.3198550  73.9371380  23.6160840
  44.7207440  74.6607180  23.4324460  45.8678160  73.8748160  22.8337290
  40.5300000  74.8293590  35.6830460  40.4343600  73.8888320  35.5330860
  41.3731980  75.0508660  35.2878530  43.9263420  72.5734920  25.6464120
  44.3192990  72.8907120  24.8332810  44.2880270  71.6946800  25.7608640
  35.6610540  71.2407260  33.8364240  35.2673930  72.0882470  34.0437020
  34.9728940  70.6033630  34.0272880  42.2355590  71.3242230  36.9060980
  41.5453910  71.1314430  37.5407070  42.9787890  71.6076870  37.4385280
  32.9627590  69.1635720  27.8694320  32.6740640  69.7338580  28.5819300
  33.7073350  68.6840170  28.2325550  33.1497820  73.1055840  19.0797040
  33.0672490  74.0486600  19.2212030  32.7980880  72.9630750  18.2009390
  44.5118560  75.1640670  29.7414900  43.7799680  75.6727480  30.0905000
  44.1142900  74.3470650  29.4403680  40.9495950  71.8394870  28.1467390
  40.9532010  71.3984820  27.2971930  41.8447070  72.1612200  28.2539210
  36.7998330  71.7221360  27.1061600  36.4598380  72.1996590  27.8628650
  36.0375650  71.2686480  26.7462700  41.0116100  72.8406950  21.1374150
  41.1328920  72.7993430  22.0859970  40.6264610  73.7031100  20.9820880
  44.9744470  70.6174350  29.1537840  44.9917210  71.0683000  29.9979690
  44.7260050  69.7179990  29.3671280  40.0237600  75.1508090  20.5357450
  39.4554500  74.7026340  19.9093360  40.7326600  75.5100870  20.0022600
  48.4015220  68.0306530  34.9924220  48.7260990  67.2996190  35.5182200
  48.4371730  67.7120170  34.0905210  35.1006780  79.0520110  34.4124180
  34.7161570  78.4113780  35.0107140  35.4118970  79.7556230  34.9818910
  41.2503920  75.8996650  29.8932800  41.6174050  75.4255220  30.6394140
  41.0608980  76.7738220  30.2341140  34.1144410  70.6440340  26.0226270
  33.8291330  70.2796010  26.8604890  34.0523270  69.9120800  25.4089410
  39.0403290  74.9405290  32.2117010  38.7360360  75.8197270  32.4367370
  39.9949750  75.0005080  32.2474450  37.5685080  79.1466280  22.8083860
  36.7947340  78.6063900  22.6482580  38.2979710  78.6272890  22.4701620
  48.3273060  78.1431640  28.6010250  49.0472180  78.6386930  28.2106360
  48.1254880  77.4649530  27.9564120  43.7883000  69.5369600  22.7439640
  42.9747610  69.0382770  22.6684950  43.5944950  70.3767850  22.3275990
  43.7091860  78.2140700  34.4879250  43.6429170  77.2936370  34.2336840
  43.0797000  78.3116140  35.2023890  46.5031390  73.9089250  21.0401800
  47.3911010  74.2206480  20.8653140  46.4736480  73.0361500  20.6482380
  37.6122480  78.8146660  26.4462670  38.1301150  78.0114920  26.3919560
  37.1606500  78.7525800  27.2879500  42.4991980  80.0812940  21.7189970
  42.8407680  80.8255170  21.2233290  41.6704690  80.3944060  22.0814800
  35.0967020  75.7808030  33.3588370  34.7381960  76.4461880  33.9461710
  34.8021580  74.9491580  33.7300990  38.2980140  76.2392270  36.2427920
  37.9980280  76.3849450  35.3455740  39.0691380  75.6797560  36.1501310
  43.6408590  81.0361270  34.2383050  43.6553130  80.1042230  34.0201960
  42.9333690  81.1221030  34.8772820  48.7745660  75.2201090  20.5081660
  48.6909380  75.6515310  19.6578100  49.4939850  75.6799440  20.9408480
  49.8519800  77.6768610  33.5851630  49.1267990  78.2697390  33.3881020
  50.3795260  77.6692150  32.7865000  49.8032910  82.0743350  23.2363790
  49.1609070  81.4198970  23.5107510  49.4163570  82.4798440  22.4604460
  45.3819390  79.4028780  27.0835480  45.7343210  78.8056910  26.4236850
  44.4981720  79.0773010  27.2543730  41.4682670  80.1626470  24.4905890
  42.1553800  80.7095680  24.8713480  40.6815090  80.7067200  24.5255500
  33.6075070  75.7799290  19.9822970  34.4769920  76.0624090  20.2658890
  33.1165390  76.5935160  19.8671780  40.7709880  77.1672500  24.1031250
  41.2272660  77.9777750  24.3291440  40.4198090  76.8495640  24.9349740
  43.0742490  82.6778840  31.3323550  43.7184710  82.8838220  32.0096970
  43.4371930  81.9167240  30.8794400  36.6721660  67.5110150  24.5753770
  36.5436290  67.5028050  25.5238690  35.8483680  67.8493240  24.2244780
  44.3474570  80.6811190  30.0501000  44.9896800  79.9804350  30.1633170
  44.8723920  81.4609630  29.8697890  48.1930290  80.9659810  19.7740140
  47.9667870  80.2490250  20.3664780  47.8026490  80.7172250  18.9361890
  46.1212190  81.4806090  33.2537060  46.4568430  82.0672780  33.9314980
  45.2012530  81.3498800  33.4834850  33.9746320  84.9926670  20.5484600
  34.3343960  85.5916010  19.8941870  33.8338660  85.5386560  21.3219630
  33.6715590  69.2701270  34.0360470  32.9574110  69.4698190  34.6413080
  34.0910630  68.4940840  34.4075270  47.7746540  78.8831750  21.4354300
  47.4868240  79.3444440  22.2232180  48.5698710  78.4229520  21.7038520
  33.9588180  83.2581530  35.0227000  34.0679300  82.3176270  34.8822390
  33.3068740  83.5236280  34.3740730  41.9500770  81.5297420  36.4225120
  41.6297640  80.8106660  36.9670810  41.2759130  82.2052490  36.4961180
  39.9914940  82.3757870  21.3658270  39.9825040  83.1087560  20.7502780
  39.0713300  82.1289450  21.4585230  35.5921580  77.5972760  22.1105030
  34.9849530  78.3371660  22.1200330  36.0670930  77.6872120  21.2843230
  45.1654370  71.7623580  31.7861920  45.5335190  70.9418790  32.1141490
  44.3052570  71.8225470  32.2017570  48.5316400  70.7180520  22.5949480
  47.9029560  70.8226190  21.8807710  48.0368320  70.9377300  23.3843360
  42.9774540  82.4386110  20.0283460  43.0786520  82.2350100  19.0985440
  42.0776280  82.1844390  20.2331240  40.5000430  72.9966470  24.0107360
  39.7916580  73.4652810  24.4520970  40.7844910  72.3388480  24.6452550
  42.1256360  74.4163170  32.0099890  42.6241610  74.8908990  32.6751740
  42.2679310  73.4926690  32.2169920  44.5315860  69.7217130  25.4503150
  44.4083640  69.7403260  24.5012660  45.4800420  69.7696070  25.5701550
  41.6192650  84.9572430  24.7231130  41.8734150  84.9193820  23.8010500
  40.6705130  84.8305760  24.7159380  38.7035450  71.3051550  21.3858070
  39.5525980  71.7421700  21.3198260  38.3366720  71.6171810  22.2130130
  49.3323220  70.6331130  32.8528280  48.8296820  71.3736530  33.1922090
  50.1479880  71.0215130  32.5365070  47.6245230  75.8764310  26.2989640
  46.6835370  75.8914540  26.4737330  47.9389300  75.0900270  26.7449940
  37.6026870  77.5583910  19.8593600  38.3690140  77.4465270  20.4219030
  37.6801560  76.8621880  19.2070370  36.2973630  74.9908980  20.5426490
  36.3777220  74.0436490  20.6543890  37.1893380  75.3215860  20.6487150
  49.6270810  83.0473160  27.9743900  49.7518230  83.8704330  28.4467710
  50.4936370  82.8363890  27.6268050  37.0988340  85.1404370  27.6461030
  37.8350820  84.5919830  27.9169600  37.4829260  86.0060380  27.5067020
  33.9833820  81.2077940  23.5202540  33.0573600  81.4499080  23.5107950
  34.4490250  82.0352200  23.3987290  36.1046620  84.3250440  36.8346610
  36.9059350  84.6462490  37.2482010  35.5898440  83.9646020  37.5566520
  40.2090650  84.3134680  19.4686600  41.0019260  84.6023510  19.0168390
  39.6895000  83.8826850  18.7899080  44.9411250  80.4330310  36.7822020
  44.3349410  80.4561910  36.0417770  44.6365360  79.7013350  37.3189270
  46.3711620  84.1610600  35.3931430  47.3233370  84.0768620  35.3431670
  46.2239840  84.8252310  36.0665220  49.2620820  83.5404810  20.8923340
  48.9762330  83.1269950  20.0777520  49.0640370  84.4692520  20.7723860
  33.8244430  76.8123900  35.7782660  34.3283450  76.2331180  36.3498890
  33.0851850  77.0964130  36.3159030  40.7268050  79.5338090  19.3328950
  40.6218690  78.9190440  20.0590330  40.5592270  79.0103980  18.5491960
  40.8782370  78.2194890  35.3118180  40.1128040  78.7879890  35.2272850
  41.0598330  77.9271100  34.4186410  43.9670780  78.5958120  19.9370940
  43.4180880  79.0427420  20.5813680  44.5890040  78.0907370  20.4608610
  48.0205720  79.9500220  35.8693200  48.7615190  80.2875980  35.3660660
  47.2578400  80.1192280  35.3162970  35.8567510  74.9553490  36.6732730
  35.8972850  74.6567360  37.5817960  36.7113010  75.3561100  36.5140250
  39.6345900  77.5549040  21.8336240  40.0562320  77.3888910  22.6767630
  39.7596740  76.7449270  21.3391380  37.7973320  73.5345590  34.6407220
  37.2669780  73.0436540  34.0130560  38.4661390  73.9629790  34.1065150
  42.1473540  76.5786650  19.0813340  42.6679200  75.8635670  18.7154490
  42.7941940  77.2172520  19.3813850  46.6951380  78.0015050  34.4048410
  47.1092400  78.1560130  35.2538830  45.7602380  78.1270270  34.5674190
  47.1673550  75.3411210  36.4087560  47.7494320  74.5863530  36.3208040
  47.3435320  75.8718650  35.6319040  38.2845620  70.5007960  34.7204510
  38.1902490  69.8828710  33.9955380  37.7043010  71.2274250  34.4934420
  41.0507060  69.0581200  31.7531900  40.6024360  69.0805460  30.9077450
  40.4172260  68.6600220  32.3502200  41.4566610  77.9535530  32.3744340
  41.8754720  78.7968260  32.2020580  40.5375240  78.0907570  32.1451120
  43.7930510  75.6851710  33.7582180  43.9126720  75.0892850  34.4977020
  44.6524510  75.7221400  33.3383480  46.1318410  76.2388900  32.3344690
  45.6053630  76.7631520  31.7309830  46.4749750  76.8716290  32.9654420
  38.5304800  73.6282270  18.7794400  38.3293860  72.7649630  19.1407740
  38.3596850  73.5415630  17.8416000  39.3074030  84.2588540  33.4902070
  38.7695120  84.9834600  33.1710770  39.5607990  83.7818880  32.6999410
  40.5599280  72.2273060  35.0158000  41.1498970  71.9188910  35.7035820
  39.7419520  71.7552810  35.1717900  45.3792710  71.8438870  35.2491020
  44.6908230  71.1820410  35.1841010  46.0998730  71.3977140  35.6939480
  46.0093110  68.4390500  21.3081280  46.2895400  67.5958400  21.6640700
  45.2358840  68.6713610  21.8220030  37.3287600  70.7282890  18.7672280
  37.6313500  70.7350320  17.8591430  38.0682190  70.3780750  19.2639940
  42.1636240  85.4939750  33.7488720  42.0894940  86.3974890  34.0561090
  41.2615080  85.1751650  33.7210790  40.5472530  69.6717510  19.7528480
  40.1994530  68.9941500  19.1730930  40.7485300  69.2107020  20.5671870
  42.7121570  84.6598260  21.3715080  43.6072360  84.9983230  21.3933840
  42.7439200  83.9377670  20.7439360  36.3517730  80.0325310  19.6002080
  36.7892600  80.5754980  20.2559660  36.8365460  79.2072260  19.6098420
  33.5663530  82.8214340  27.0522340  33.8966540  81.9535400  26.8200980
  33.9954530  83.0272860  27.8827300  38.1625450  81.1523350  24.7124310
  37.8620990  81.0288320  25.6128220  38.0562940  80.2931940  24.3040040
  34.0553740  83.6884930  29.7903970  33.6184730  83.8685730  30.6228120
  34.6231420  84.4459550  29.6485690  49.6915920  83.1901930  34.0781280
  49.0917910  83.2494490  33.3345200  49.8209820  82.2506910  34.2078130
  50.9317370  80.9319750  19.4150990  50.1010330  80.9996400  19.8858220
  51.1089200  81.8223870  19.1117850  50.3873830  77.6767230  21.9185190
  51.1492740  78.2463880  22.0244880  50.4028200  77.1094430  22.6893500
  33.8878170  76.2005160  26.1492850  33.2327010  75.9316800  25.5052550
  34.7256120  76.0909640  25.6994830  51.3933800  78.5317330  26.7627120
  51.7642630  77.7484650  26.3563090  52.0335730  79.2206430  26.5844420
  48.3767560  79.9153910  32.1757440  47.5627400  80.3451070  32.4383230
  48.7841760  80.5272320  31.5626490  50.4393000  77.9701600  19.0757710
  50.7141840  78.8780480  18.9476930  50.2503740  77.9064130  20.0119700
  46.8368610  70.9946450  20.3711340  47.2553490  70.8077430  19.5308000
  46.5304670  70.1425500  20.6814270  50.3358340  75.9070590  24.0687140
  49.9601940  75.1398520  23.6368430  49.6061460  76.2893290  24.5562070
  34.9254100  76.5857730  30.6896190  35.2927140  76.4985130  31.5692210
  34.3564920  75.8224280  30.5903050  49.7257960  75.0542110  33.7026660
  49.4944050  74.8254860  32.8024610  49.9862510  75.9741660  33.6571550
  34.4770100  73.4966820  34.5954610  33.5826150  73.4633580  34.9348320
  35.0167650  73.6953610  35.3605860  48.1646030  70.2798540  36.4806360
  49.0416210  70.2881940  36.8640360  48.1766870  69.5429380  35.8698710
  33.1016250  73.4104090  22.0918180  32.1980330  73.6734290  21.9169840
  33.5856870  73.6815260  21.3118140  49.6109300  74.1328080  27.3694380
  50.1346780  73.6390730  26.7384550  50.1968720  74.2678440  28.1141950
  49.7899020  74.2167950  30.8913930  48.8401730  74.1831490  31.0058920
  49.9712030  75.1268060  30.6563700  35.6443460  72.4669630  20.0012560
  36.3535160  72.0452850  19.5159840  34.9283400  72.5344860  19.3695910
  35.2917620  68.5208960  19.0415210  36.0145750  69.0617900  19.3596430
  35.5642140  68.2472380  18.1656750  49.1009270  73.3901430  23.3086790
  49.5968390  73.1572300  24.0935670  48.9025340  72.5513270  22.8924430
  34.9809810  67.7715150  28.9437830  35.6286000  67.2212530  28.5032990
  35.4011650  68.0258300  29.7653640  50.5296430  72.0262380  25.8424470
  50.4195710  71.8718420  26.7806740  51.2904020  71.4983320  25.5999880
  48.8762150  67.9656510  32.3007470  49.5134370  68.5790650  32.6666660
  49.0237040  68.0017170  31.3556700  51.4186700  69.8570300  19.0830610
  52.3436010  69.7251480  18.8748900  51.3962490  69.9363120  20.0367060
  51.4925190  70.6280960  21.7087320  50.6976690  70.5626080  22.2380230
  51.6968470  71.5631600  21.6972670  48.4343610  84.6672510  25.7025710
  49.0302680  84.3457080  25.0260130  48.6921760  84.1944330  26.4938980
  34.7341810  67.9270820  31.6863150  34.3856630  68.3834640  32.4521330
  34.4029510  67.0327950  31.7685580  36.3406180  81.0990420  35.8516340
  36.2975810  80.7283330  36.7330800  36.4717190  82.0367990  35.9918160
  40.0412210  82.6550010  31.4526060  39.8003570  82.9224570  30.5656580
  40.9814850  82.8255740  31.5076920  42.2466630  69.1182700  35.2082570
  42.1855520  69.7104530  35.9577980  43.1867010  69.0108660  35.0632830
  44.8841190  68.7752760  34.8474860  45.4981600  69.0932050  34.1855940
  45.4290750  68.2901350  35.4670720  51.3016370  84.6744390  32.2536700
  50.8074650  85.0713260  31.5363830  50.6929660  84.0493600  32.6473980
  35.4062450  67.4547020  34.9613920  35.9545440  67.2735070  34.1980030
  35.4717760  66.6641130  35.4970230  36.1794210  84.0452670  32.9714120
  35.5854530  83.9137370  33.7104160  36.1718050  83.2090810  32.5056220
  45.6249230  67.3384900  31.1744150  44.7509070  67.6720010  30.9717080
  45.5159980  66.8658080  31.9996020  46.5321210  69.5455770  32.5585870
  46.2034570  68.7307530  32.1787600  47.4803510  69.5025580  32.4351560
  48.9855820  85.3167810  29.5323440  48.5258790  86.0683620  29.1581460
  48.3568280  84.5974280  29.4738240  35.8106440  81.4111050  31.9222160
  35.0840500  80.7916340  31.8548110  35.8715590  81.8051660  31.0520240
  39.4151540  83.6256050  28.7071570  39.9316560  83.0143410  28.1819830
  40.0648920  84.1284830  29.1982580  42.1547040  84.5164540  29.5340550
  42.4424850  84.2618840  28.6573560  42.6670260  83.9641900  30.1246120
  43.3724050  68.2554740  30.1137060  42.5895840  68.7300240  30.3933820
  43.0786980  67.3509570  30.0050240  47.9245120  68.9577840  28.1586150
  48.3653210  68.9022940  27.3107750  47.6552710  69.8735850  28.2296330
  49.7883690  68.5893080  26.1694970  49.7272090  67.6454300  26.0225990
  50.5675720  68.6973170  26.7148430  34.0936440  84.7285440  25.1318920
  33.9258480  84.0956120  25.8300810  33.2270950  84.9344840  24.7813110
  34.7164460  68.5602220  22.6350780  35.4743820  68.6731100  22.0614810
  34.2541630  69.3971420  22.5894210  41.2578270  70.6741490  25.6253090
  40.4452780  70.2998380  25.2848970  41.7619910  69.9186570  25.9274280
  45.7603250  67.3383940  26.8636160  46.3632620  67.9104150  27.3384680
  45.0196240  67.9023380  26.6410060  48.9037850  67.7405500  22.1376440
  49.0988480  68.6388950  22.4043870  48.1167720  67.5092580  22.6309390
  35.6999140  83.4218670  22.5769060  35.1746760  83.8026700  21.8731020
  35.6243720  84.0469440  23.2978770  37.0889610  69.0866270  21.1752750
  37.6182370  68.2996070  21.0460700  37.7217930  69.7657460  21.4088280
  39.2827450  68.8241410  24.2298140  38.6530190  68.1228720  24.3968270
  38.7432590  69.5845540  24.0131300  42.2219400  85.4380640  36.9008750
  43.1486710  85.2024910  36.9444710  42.2069830  86.2652640  36.4194780
  50.4564460  84.9806210  23.8983000  50.6316650  84.2943950  23.2543920
  49.7586030  85.5053260  23.5059670  39.4083010  68.1025390  36.6650630
  39.1267280  68.6058990  35.9011450  39.7902710  67.3047140  36.2992760
  38.2992110  85.3701050  21.4518310  39.0310930  85.0860330  20.9042200
  38.5585780  85.1314330  22.3417690  37.4606900  81.4865780  21.4564640
  36.8315780  81.9550880  22.0050470  37.5754730  80.6415000  21.8910830
  46.0098470  67.5178970  37.2431100  45.8963920  67.8373580  38.1382620
  46.8268210  67.9191480  36.9468380  48.7896960  84.6650500  36.7249790
  49.5822280  84.1699730  36.5175750  49.0830110  85.3440640  37.3325400
  44.9156620  75.5371440   7.6065840  44.8350670  74.6226050   7.3357550
  44.5021040  76.0338510   6.9005550  43.0474660  77.3150460   9.4875110
  42.2716760  76.8350900   9.7773680  43.6987590  76.6356110   9.3131270
  37.0640490  77.6270270  10.3650870  36.2325370  77.3718980  10.7647380
  37.6721470  77.6981040  11.1008790  47.0682090  81.7210650   8.2674240
  46.6063620  80.9497890   8.5961410  47.8807640  81.7476720   8.7726690
  37.0441750  81.6610360  10.5608890  37.3469790  80.7708100  10.3819110
  37.7885340  82.2180580  10.3331140  35.4732440  72.5872160   4.1493260
  34.5849140  72.9288130   4.0473140  35.7573630  72.3872480   3.2574090
  33.4365450  75.1877810  10.0332960  34.0081560  74.4200010  10.0336600
  33.4366990  75.4866570   9.1239570  43.2945400  84.0068660   7.8878230
  42.6756840  84.4626160   7.3172670  44.1497180  84.1620120   7.4867930
  42.4883650  79.9907650   9.4945270  42.4191930  79.0497590   9.3334400
  43.2503510  80.0809060  10.0667840  34.6790320  70.5962170  11.8201890
  34.4993160  69.6987920  12.1004650  34.2770400  71.1434040  12.4948840
  43.5188820  72.7978030   9.7214200  43.8953640  71.9249910   9.6087870
  43.4208330  73.1336730   8.8304640  37.6493830  71.1703660   5.1831640
  37.7560580  72.0707390   5.4900400  36.7386190  71.1221630   4.8926290
  47.3012940  70.2928470   6.6542540  48.1222560  69.8025040   6.6968020
  47.3347020  70.8826130   7.4074380  35.2976990  73.0922670  10.4284230
  35.9787100  73.3561040  11.0471630  34.9825040  72.2523540  10.7622240
  39.4901560  74.1390030   9.5156820  39.9979780  74.6371000  10.1561840
  40.0214800  73.3625230   9.3396180  51.5912490  72.3095220  13.2186170
  50.8864660  72.6976930  12.7001280  51.8570410  73.0045510  13.8207100
  37.7737660  68.7788590  13.7820240  37.7756100  69.2960980  12.9766140
  36.9441970  68.3018770  13.7590170  44.1608750  78.8907900   5.2810140
  43.5426020  79.3557350   4.7172860  44.6732000  79.5835380   5.6979650
  39.0240510  78.4183770  11.9593740  38.6909890  79.0452690  12.6014810
  39.2007190  78.9445650  11.1795410  47.5374420  72.2328850   9.4270080
  46.8329990  72.5213740  10.0073190  47.8986580  73.0428960   9.0669640
  37.4552990  70.4898550  11.7890690  37.7969800  71.3340600  11.4944560
  36.5168800  70.6382290  11.9056030  38.2359610  80.3864570  13.7742920
  38.8533610  81.0615650  13.4927370  37.3752730  80.7952550  13.6830420
  33.5291950  79.5764430   2.6549770  33.1519930  80.0651530   1.9234670
  33.7865020  80.2489710   3.2856300  49.1537200  81.8503980  11.6897560
  48.4700720  82.5203090  11.6814230  49.6931490  82.0484630  10.9242420
  50.6061340  71.6783640   9.8179290  49.6586250  71.7122620   9.9494720
  50.9311330  72.4922590  10.2028650  41.1380880  67.9780820   8.1135280
  41.4455860  67.4227710   7.3970780  40.2081580  68.1125280   7.9308270
  46.6895940  83.6948110  10.4042740  46.7023100  83.2910400   9.5365000
  46.1371160  84.4695400  10.3004170  47.9841360  80.4164330   5.4932910
  47.8737690  79.4738660   5.6182330  47.9809610  80.7779970   6.3795670
  46.0881380  78.5977950  11.7325350  46.5050170  78.3838060  10.8978810
  46.8121200  78.8550740  12.3033970  43.5261640  76.0429650   4.8495400
  42.5990920  75.9767030   5.0783870  43.6786460  76.9809780   4.7350640
  43.5130720  72.3146650   1.8462560  42.5734390  72.4760610   1.9315020
  43.8313980  73.0332330   1.2998550  50.0343480  76.9965170  11.8241590
  49.2062110  77.0658260  11.3491720  50.6293960  77.5819480  11.3557420
  47.5558930  77.6049950   5.3530650  46.9371350  77.2669500   4.7056950
  47.5383380  76.9609710   6.0609840  46.9985490  73.7834490  12.7696460
  46.5856670  74.6088200  13.0236450  46.2661440  73.1979530  12.5772820
  39.1318280  76.5694390   7.6315130  38.7275280  75.8571640   7.1361030
  39.2181400  76.2247630   8.5203170  39.5999980  80.2561950   9.7954340
  39.3028270  79.6507420   9.1162120  40.5499800  80.2939260   9.6843700
  37.8446900  73.3437600  11.4114170  38.3961490  73.4532940  10.6367420
  38.3590410  73.7175200  12.1269400  47.6885590  83.8293820  13.4577440
  47.2116150  84.6366010  13.2650050  47.0047380  83.1772150  13.6103650
  38.6918410  79.9943640  16.4462140  37.7946940  80.2183610  16.6935540
  38.7171280  80.1178580  15.4973540  45.7323630  76.8436760   2.3603400
  46.1716910  76.0059190   2.2141220  46.4452050  77.4766160   2.4467540
  37.5189630  76.8656960  15.0219510  37.3797400  77.7379760  15.3906910
  36.6370990  76.5229770  14.8767450  43.8419010  81.7832830   6.3284640
  44.2814920  82.5257160   5.9140030  43.7805900  82.0259400   7.2523600
  39.3169980  82.8078660  17.2304660  39.2885410  83.2121610  16.3633090
  39.1534950  81.8789020  17.0676260  35.8322910  75.4639370   5.1321780
  35.7120510  76.1901460   4.5203050  35.5223800  74.6942280   4.6549690
  51.2684800  83.5905760  18.5268830  51.7444520  84.0688650  19.2057910
  51.8891960  83.5223250  17.8014330  33.4708280  78.6354510  10.9390420
  33.5488700  78.7703280   9.9946140  34.0849960  77.9270400  11.1318540
  34.7155910  80.3354700   7.3496600  34.3083990  80.4769290   6.4950200
  35.6068920  80.0514860   7.1467810  50.6718050  80.7818610  15.6868840
  50.7981110  80.5430490  14.7686020  50.7139430  79.9503150  16.1590920
  44.5334790  84.4846610  14.2563650  45.0479460  84.3954620  15.0586080
  43.6903870  84.8306310  14.5491560  46.5089190  84.7701950   3.6847650
  46.3490330  84.4804890   4.5829480  46.3435900  83.9942080   3.1492880
  38.9877570  84.5500480   5.4619270  38.8120050  83.6336020   5.2487070
  38.1333310  84.9087770   5.7017070  46.2115320  82.2789510   2.2445650
  45.5180480  82.2766800   1.5847930  46.9538180  81.8548830   1.8139820
  45.7765250  83.9052220   6.3194140  46.2322200  83.1241600   6.6332760
  46.1157770  84.6159040   6.8635320  50.5242060  72.8351070  16.6518580
  49.9086330  73.3430740  16.1234040  50.2038480  71.9349400  16.5944520
  33.5267800  79.6768680  13.4784880  33.6898840  79.2074040  12.6604250
  33.9920250  79.1692240  14.1433720  38.2986570  68.8074440   8.5145450
  37.8554720  69.5883980   8.1829970  38.8571560  69.1304330   9.2216390
  42.5856380  71.6742960  14.1180770  42.1235750  71.8825980  14.9300710
  42.1834490  70.8602310  13.8151440  47.5860890  72.8951910  15.2477430
  46.7354480  72.5957660  15.5686500  47.4262680  73.1393920  14.3361250
  44.6810600  74.3953660  17.3476220  45.0064010  73.5617410  17.0078450
  45.4690930  74.9182180  17.4954550  41.4145390  68.4285140   3.3951280
  40.7899570  68.4245010   4.1204590  41.3275510  67.5616100   2.9987250
  40.3362470  69.3521770  10.3735050  40.6334800  70.2584600  10.2927070
  40.8848030  68.8640550   9.7594620  38.0900790  73.9308010   6.2426700
  37.8641710  73.7145180   7.1473320  37.3093320  74.3636470   5.8972670
  45.3198550  73.9371380   4.8417350  44.7207440  74.6607180   4.6580970
  45.8678160  73.8748160   4.0593800  40.5300000  74.8293590  16.9086970
  40.4343600  73.8888320  16.7587370  41.3731980  75.0508660  16.5135040
  43.9263420  72.5734920   6.8720630  44.3192990  72.8907120   6.0589320
  44.2880270  71.6946800   6.9865150  35.6610540  71.2407260  15.0620750
  35.2673930  72.0882470  15.2693530  34.9728940  70.6033630  15.2529390
  42.2355590  71.3242230  18.1317490  41.5453910  71.1314430  18.7663580
  42.9787890  71.6076870  18.6641790  32.9627590  69.1635720   9.0950830
  32.6740640  69.7338580   9.8075810  33.7073350  68.6840170   9.4582060
  44.5118560  75.1640670  10.9671410  43.7799680  75.6727480  11.3161510
  44.1142900  74.3470650  10.6660190  40.9495950  71.8394870   9.3723900
  40.9532010  71.3984820   8.5228440  41.8447070  72.1612200   9.4795720
  36.7998330  71.7221360   8.3318110  36.4598380  72.1996590   9.0885160
  36.0375650  71.2686480   7.9719210  41.0116100  72.8406950   2.3630660
  41.1328920  72.7993430   3.3116480  40.6264610  73.7031100   2.2077390
  44.9744470  70.6174350  10.3794350  44.9917210  71.0683000  11.2236200
  44.7260050  69.7179990  10.5927790  48.4015220  68.0306530  16.2180730
  48.7260990  67.2996190  16.7438710  48.4371730  67.7120170  15.3161720
  35.1006780  79.0520110  15.6380690  34.7161570  78.4113780  16.2363650
  35.4118970  79.7556230  16.2075420  41.2503920  75.8996650  11.1189310
  41.6174050  75.4255220  11.8650650  41.0608980  76.7738220  11.4597650
  34.1144410  70.6440340   7.2482780  33.8291330  70.2796010   8.0861400
  34.0523270  69.9120800   6.6345920  39.0403290  74.9405290  13.4373520
  38.7360360  75.8197270  13.6623880  39.9949750  75.0005080  13.4730960
  37.5685080  79.1466280   4.0340370  36.7947340  78.6063900   3.8739090
  38.2979710  78.6272890   3.6958130  48.3273060  78.1431640   9.8266760
  49.0472180  78.6386930   9.4362870  48.1254880  77.4649530   9.1820630
  43.7883000  69.5369600   3.9696150  42.9747610  69.0382770   3.8941460
  43.5944950  70.3767850   3.5532500  43.7091860  78.2140700  15.7135760
  43.6429170  77.2936370  15.4593350  43.0797000  78.3116140  16.4280400
  46.5031390  73.9089250   2.2658310  47.3911010  74.2206480   2.0909650
  46.4736480  73.0361500   1.8738890  37.6122480  78.8146660   7.6719180
  38.1301150  78.0114920   7.6176070  37.1606500  78.7525800   8.5136010
  42.4991980  80.0812940   2.9446480  42.8407680  80.8255170   2.4489800
  41.6704690  80.3944060   3.3071310  35.0967020  75.7808030  14.5844880
  34.7381960  76.4461880  15.1718220  34.8021580  74.9491580  14.9557500
  38.2980140  76.2392270  17.4684430  37.9980280  76.3849450  16.5712250
  39.0691380  75.6797560  17.3757820  43.6408590  81.0361270  15.4639560
  43.6553130  80.1042230  15.2458470  42.9333690  81.1221030  16.1029330
  49.8519800  77.6768610  14.8108140  49.1267990  78.2697390  14.6137530
  50.3795260  77.6692150  14.0121510  49.8032910  82.0743350   4.4620300
  49.1609070  81.4198970   4.7364020  49.4163570  82.4798440   3.6860970
  45.3819390  79.4028780   8.3091990  45.7343210  78.8056910   7.6493360
  44.4981720  79.0773010   8.4800240  41.4682670  80.1626470   5.7162400
  42.1553800  80.7095680   6.0969990  40.6815090  80.7067200   5.7512010
  40.7709880  77.1672500   5.3287760  41.2272660  77.9777750   5.5547950
  40.4198090  76.8495640   6.1606250  43.0742490  82.6778840  12.5580060
  43.7184710  82.8838220  13.2353480  43.4371930  81.9167240  12.1050910
  36.6721660  67.5110150   5.8010280  36.5436290  67.5028050   6.7495200
  35.8483680  67.8493240   5.4501290  44.3474570  80.6811190  11.2757510
  44.9896800  79.9804350  11.3889680  44.8723920  81.4609630  11.0954400
  46.1212190  81.4806090  14.4793570  46.4568430  82.0672780  15.1571490
  45.2012530  81.3498800  14.7091360  33.6715590  69.2701270  15.2616980
  32.9574110  69.4698190  15.8669590  34.0910630  68.4940840  15.6331780
  47.7746540  78.8831750   2.6610810  47.4868240  79.3444440   3.4488690
  48.5698710  78.4229520   2.9295030  33.9588180  83.2581530  16.2483510
  34.0679300  82.3176270  16.1078900  33.3068740  83.5236280  15.5997240
  41.9500770  81.5297420  17.6481630  41.6297640  80.8106660  18.1927320
  41.2759130  82.2052490  17.7217690  39.9914940  82.3757870   2.5914780
  39.9825040  83.1087560   1.9759290  39.0713300  82.1289450   2.6841740
  35.5921580  77.5972760   3.3361540  34.9849530  78.3371660   3.3456840
  36.0670930  77.6872120   2.5099740  45.1654370  71.7623580  13.0118430
  45.5335190  70.9418790  13.3398000  44.3052570  71.8225470  13.4274080
  48.5316400  70.7180520   3.8205990  47.9029560  70.8226190   3.1064220
  48.0368320  70.9377300   4.6099870  40.5000430  72.9966470   5.2363870
  39.7916580  73.4652810   5.6777480  40.7844910  72.3388480   5.8709060
  42.1256360  74.4163170  13.2356400  42.6241610  74.8908990  13.9008250
  42.2679310  73.4926690  13.4426430  44.5315860  69.7217130   6.6759660
  44.4083640  69.7403260   5.7269170  45.4800420  69.7696070   6.7958060
  41.6192650  84.9572430   5.9487640  41.8734150  84.9193820   5.0267010
  40.6705130  84.8305760   5.9415890  38.7035450  71.3051550   2.6114580
  39.5525980  71.7421700   2.5454770  38.3366720  71.6171810   3.4386640
  49.3323220  70.6331130  14.0784790  48.8296820  71.3736530  14.4178600
  50.1479880  71.0215130  13.7621580  47.6245230  75.8764310   7.5246150
  46.6835370  75.8914540   7.6993840  47.9389300  75.0900270   7.9706450
  36.2973630  74.9908980   1.7683000  36.3777220  74.0436490   1.8800400
  37.1893380  75.3215860   1.8743660  49.6270810  83.0473160   9.2000410
  49.7518230  83.8704330   9.6724220  50.4936370  82.8363890   8.8524560
  37.0988340  85.1404370   8.8717540  37.8350820  84.5919830   9.1426110
  37.4829260  86.0060380   8.7323530  33.9833820  81.2077940   4.7459050
  33.0573600  81.4499080   4.7364460  34.4490250  82.0352200   4.6243800
  36.1046620  84.3250440  18.0603120  36.9059350  84.6462490  18.4738520
  35.5898440  83.9646020  18.7823030  44.9411250  80.4330310  18.0078530
  44.3349410  80.4561910  17.2674280  44.6365360  79.7013350  18.5445780
  46.3711620  84.1610600  16.6187940  47.3233370  84.0768620  16.5688180
  46.2239840  84.8252310  17.2921730  49.2620820  83.5404810   2.1179850
  48.9762330  83.1269950   1.3034030  49.0640370  84.4692520   1.9980370
  33.8244430  76.8123900  17.0039170  34.3283450  76.2331180  17.5755400
  33.0851850  77.0964130  17.5415540  40.8782370  78.2194890  16.5374690
  40.1128040  78.7879890  16.4529360  41.0598330  77.9271100  15.6442920
  48.0205720  79.9500220  17.0949710  48.7615190  80.2875980  16.5917170
  47.2578400  80.1192280  16.5419480  35.8567510  74.9553490  17.8989240
  35.8972850  74.6567360  18.8074470  36.7113010  75.3561100  17.7396760
  39.6345900  77.5549040   3.0592750  40.0562320  77.3888910   3.9024140
  39.7596740  76.7449270   2.5647890  37.7973320  73.5345590  15.8663730
  37.2669780  73.0436540  15.2387070  38.4661390  73.9629790  15.3321660
  46.6951380  78.0015050  15.6304920  47.1092400  78.1560130  16.4795340
  45.7602380  78.1270270  15.7930700  47.1673550  75.3411210  17.6344070
  47.7494320  74.5863530  17.5464550  47.3435320  75.8718650  16.8575550
  38.2845620  70.5007960  15.9461020  38.1902490  69.8828710  15.2211890
  37.7043010  71.2274250  15.7190930  41.0507060  69.0581200  12.9788410
  40.6024360  69.0805460  12.1333960  40.4172260  68.6600220  13.5758710
  41.4566610  77.9535530  13.6000850  41.8754720  78.7968260  13.4277090
  40.5375240  78.0907570  13.3707630  43.7930510  75.6851710  14.9838690
  43.9126720  75.0892850  15.7233530  44.6524510  75.7221400  14.5639990
  46.1318410  76.2388900  13.5601200  45.6053630  76.7631520  12.9566340
  46.4749750  76.8716290  14.1910930  39.3074030  84.2588540  14.7158580
  38.7695120  84.9834600  14.3967280  39.5607990  83.7818880  13.9255920
  40.5599280  72.2273060  16.2414510  41.1498970  71.9188910  16.9292330
  39.7419520  71.7552810  16.3974410  45.3792710  71.8438870  16.4747530
  44.6908230  71.1820410  16.4097520  46.0998730  71.3977140  16.9195990
  46.0093110  68.4390500   2.5337790  46.2895400  67.5958400   2.8897210
  45.2358840  68.6713610   3.0476540  42.1636240  85.4939750  14.9745230
  42.0894940  86.3974890  15.2817600  41.2615080  85.1751650  14.9467300
  42.7121570  84.6598260   2.5971590  43.6072360  84.9983230   2.6190350
  42.7439200  83.9377670   1.9695870  33.5663530  82.8214340   8.2778850
  33.8966540  81.9535400   8.0457490  33.9954530  83.0272860   9.1083810
  38.1625450  81.1523350   5.9380820  37.8620990  81.0288320   6.8384730
  38.0562940  80.2931940   5.5296550  34.0553740  83.6884930  11.0160480
  33.6184730  83.8685730  11.8484630  34.6231420  84.4459550  10.8742200
  49.6915920  83.1901930  15.3037790  49.0917910  83.2494490  14.5601710
  49.8209820  82.2506910  15.4334640  50.3873830  77.6767230   3.1441700
  51.1492740  78.2463880   3.2501390  50.4028200  77.1094430   3.9150010
  33.8878170  76.2005160   7.3749360  33.2327010  75.9316800   6.7309060
  34.7256120  76.0909640   6.9251340  51.3933800  78.5317330   7.9883630
  51.7642630  77.7484650   7.5819600  52.0335730  79.2206430   7.8100930
  48.3767560  79.9153910  13.4013950  47.5627400  80.3451070  13.6639740
  48.7841760  80.5272320  12.7883000  50.3358340  75.9070590   5.2943650
  49.9601940  75.1398520   4.8624940  49.6061460  76.2893290   5.7818580
  34.9254100  76.5857730  11.9152700  35.2927140  76.4985130  12.7948720
  34.3564920  75.8224280  11.8159560  49.7257960  75.0542110  14.9283170
  49.4944050  74.8254860  14.0281120  49.9862510  75.9741660  14.8828060
  34.4770100  73.4966820  15.8211120  33.5826150  73.4633580  16.1604830
  35.0167650  73.6953610  16.5862370  48.1646030  70.2798540  17.7062870
  49.0416210  70.2881940  18.0896870  48.1766870  69.5429380  17.0955220
  33.1016250  73.4104090   3.3174690  32.1980330  73.6734290   3.1426350
  33.5856870  73.6815260   2.5374650  49.6109300  74.1328080   8.5950890
  50.1346780  73.6390730   7.9641060  50.1968720  74.2678440   9.3398460
  49.7899020  74.2167950  12.1170440  48.8401730  74.1831490  12.2315430
  49.9712030  75.1268060  11.8820210  49.1009270  73.3901430   4.5343300
  49.5968390  73.1572300   5.3192180  48.9025340  72.5513270   4.1180940
  34.9809810  67.7715150  10.1694340  35.6286000  67.2212530   9.7289500
  35.4011650  68.0258300  10.9910150  50.5296430  72.0262380   7.0680980
  50.4195710  71.8718420   8.0063250  51.2904020  71.4983320   6.8256390
  48.8762150  67.9656510  13.5263980  49.5134370  68.5790650  13.8923170
  49.0237040  68.0017170  12.5813210  51.4925190  70.6280960   2.9343830
  50.6976690  70.5626080   3.4636740  51.6968470  71.5631600   2.9229180
  48.4343610  84.6672510   6.9282220  49.0302680  84.3457080   6.2516640
  48.6921760  84.1944330   7.7195490  34.7341810  67.9270820  12.9119660
  34.3856630  68.3834640  13.6777840  34.4029510  67.0327950  12.9942090
  36.3406180  81.0990420  17.0772850  36.2975810  80.7283330  17.9587310
  36.4717190  82.0367990  17.2174670  40.0412210  82.6550010  12.6782570
  39.8003570  82.9224570  11.7913090  40.9814850  82.8255740  12.7333430
  42.2466630  69.1182700  16.4339080  42.1855520  69.7104530  17.1834490
  43.1867010  69.0108660  16.2889340  44.8841190  68.7752760  16.0731370
  45.4981600  69.0932050  15.4112450  45.4290750  68.2901350  16.6927230
  51.3016370  84.6744390  13.4793210  50.8074650  85.0713260  12.7620340
  50.6929660  84.0493600  13.8730490  35.4062450  67.4547020  16.1870430
  35.9545440  67.2735070  15.4236540  35.4717760  66.6641130  16.7226740
  36.1794210  84.0452670  14.1970630  35.5854530  83.9137370  14.9360670
  36.1718050  83.2090810  13.7312730  45.6249230  67.3384900  12.4000660
  44.7509070  67.6720010  12.1973590  45.5159980  66.8658080  13.2252530
  46.5321210  69.5455770  13.7842380  46.2034570  68.7307530  13.4044110
  47.4803510  69.5025580  13.6608070  48.9855820  85.3167810  10.7579950
  48.5258790  86.0683620  10.3837970  48.3568280  84.5974280  10.6994750
  35.8106440  81.4111050  13.1478670  35.0840500  80.7916340  13.0804620
  35.8715590  81.8051660  12.2776750  39.4151540  83.6256050   9.9328080
  39.9316560  83.0143410   9.4076340  40.0648920  84.1284830  10.4239090
  42.1547040  84.5164540  10.7597060  42.4424850  84.2618840   9.8830070
  42.6670260  83.9641900  11.3502630  43.3724050  68.2554740  11.3393570
  42.5895840  68.7300240  11.6190330  43.0786980  67.3509570  11.2306750
  47.9245120  68.9577840   9.3842660  48.3653210  68.9022940   8.5364260
  47.6552710  69.8735850   9.4552840  49.7883690  68.5893080   7.3951480
  49.7272090  67.6454300   7.2482500  50.5675720  68.6973170   7.9404940
  34.0936440  84.7285440   6.3575430  33.9258480  84.0956120   7.0557320
  33.2270950  84.9344840   6.0069620  34.7164460  68.5602220   3.8607290
  35.4743820  68.6731100   3.2871320  34.2541630  69.3971420   3.8150720
  41.2578270  70.6741490   6.8509600  40.4452780  70.2998380   6.5105480
  41.7619910  69.9186570   7.1530790  45.7603250  67.3383940   8.0892670
  46.3632620  67.9104150   8.5641190  45.0196240  67.9023380   7.8666570
  48.9037850  67.7405500   3.3632950  49.0988480  68.6388950   3.6300380
  48.1167720  67.5092580   3.8565900  35.6999140  83.4218670   3.8025570
  35.1746760  83.8026700   3.0987530  35.6243720  84.0469440   4.5235280
  37.0889610  69.0866270   2.4009260  37.6182370  68.2996070   2.2717210
  37.7217930  69.7657460   2.6344790  39.2827450  68.8241410   5.4554650
  38.6530190  68.1228720   5.6224780  38.7432590  69.5845540   5.2387810
  42.2219400  85.4380640  18.1265260  43.1486710  85.2024910  18.1701220
  42.2069830  86.2652640  17.6451290  50.4564460  84.9806210   5.1239510
  50.6316650  84.2943950   4.4800430  49.7586030  85.5053260   4.7316180
  39.4083010  68.1025390  17.8907140  39.1267280  68.6058990  17.1267960
  39.7902710  67.3047140  17.5249270  38.2992110  85.3701050   2.6774820
  39.0310930  85.0860330   2.1298710  38.5585780  85.1314330   3.5674200
  37.4606900  81.4865780   2.6821150  36.8315780  81.9550880   3.2306980
  37.5754730  80.6415000   3.1167340  46.0098470  67.5178970  18.4687610
  45.8963920  67.8373580  19.3639130  46.8268210  67.9191480  18.1724890
  48.7896960  84.6650500  17.9506300  49.5822280  84.1699730  17.7432260
  49.0830110  85.3440640  18.5581910  44.9156620  56.7627950 101.4783290
  44.8350670  55.8482560 101.2075000  44.5021040  57.2595020 100.7723000
  43.0474660  58.5406970 103.3592560  42.2716760  58.0607410 103.6491130
  43.6987590  57.8612620 103.1848720  37.0640490  58.8526780 104.2368320
  36.2325370  58.5975490 104.6364830  37.6721470  58.9237550 104.9726240
  47.0682090  62.9467160 102.1391690  46.6063620  62.1754400 102.4678860
  47.8807640  62.9733230 102.6444140  37.0441750  62.8866870 104.4326340
  37.3469790  61.9964610 104.2536560  37.7885340  63.4437090 104.2048590
  35.4732440  53.8128670  98.0210710  34.5849140  54.1544640  97.9190590
  35.7573630  53.6128990  97.1291540  33.4365450  56.4134320 103.9050410
  34.0081560  55.6456520 103.9054050  33.4366990  56.7123080 102.9957020
  43.2945400  65.2325170 101.7595680  42.6756840  65.6882670 101.1890120
  44.1497180  65.3876630 101.3585380  42.4883650  61.2164160 103.3662720
  42.4191930  60.2754100 103.2051850  43.2503510  61.3065570 103.9385290
  34.6790320  51.8218680 105.6919340  34.4993160  50.9244430 105.9722100
  34.2770400  52.3690550 106.3666290  43.5188820  54.0234540 103.5931650
  43.8953640  53.1506420 103.4805320  43.4208330  54.3593240 102.7022090
  37.6493830  52.3960170  99.0549090  37.7560580  53.2963900  99.3617850
  36.7386190  52.3478140  98.7643740  47.3012940  51.5184980 100.5259990
  48.1222560  51.0281550 100.5685470  47.3347020  52.1082640 101.2791830
  35.2976990  54.3179180 104.3001680  35.9787100  54.5817550 104.9189080
  34.9825040  53.4780050 104.6339690  39.4901560  55.3646540 103.3874270
  39.9979780  55.8627510 104.0279290  40.0214800  54.5881740 103.2113630
  51.5912490  53.5351730 107.0903620  50.8864660  53.9233440 106.5718730
  51.8570410  54.2302020 107.6924550  37.7737660  50.0045100 107.6537690
  37.7756100  50.5217490 106.8483590  36.9441970  49.5275280 107.6307620
  44.1608750  60.1164410  99.1527590  43.5426020  60.5813860  98.5890310
  44.6732000  60.8091890  99.5697100  39.0240510  59.6440280 105.8311190
  38.6909890  60.2709200 106.4732260  39.2007190  60.1702160 105.0512860
  47.5374420  53.4585360 103.2987530  46.8329990  53.7470250 103.8790640
  47.8986580  54.2685470 102.9387090  37.4552990  51.7155060 105.6608140
  37.7969800  52.5597110 105.3662010  36.5168800  51.8638800 105.7773480
  38.2359610  61.6121080 107.6460370  38.8533610  62.2872160 107.3644820
  37.3752730  62.0209060 107.5547870  33.5291950  60.8020940  96.5267220
  33.1519930  61.2908040  95.7952120  33.7865020  61.4746220  97.1573750
  49.1537200  63.0760490 105.5615010  48.4700720  63.7459600 105.5531680
  49.6931490  63.2741140 104.7959870  50.6061340  52.9040150 103.6896740
  49.6586250  52.9379130 103.8212170  50.9311330  53.7179100 104.0746100
  41.1380880  49.2037330 101.9852730  41.4455860  48.6484220 101.2688230
  40.2081580  49.3381790 101.8025720  46.6895940  64.9204620 104.2760190
  46.7023100  64.5166910 103.4082450  46.1371160  65.6951910 104.1721620
  47.9841360  61.6420840  99.3650360  47.8737690  60.6995170  99.4899780
  47.9809610  62.0036480 100.2513120  46.0881380  59.8234460 105.6042800
  46.5050170  59.6094570 104.7696260  46.8121200  60.0807250 106.1751420
  43.5261640  57.2686160  98.7212850  42.5990920  57.2023540  98.9501320
  43.6786460  58.2066290  98.6068090  43.5130720  53.5403160  95.7180010
  42.5734390  53.7017120  95.8032470  43.8313980  54.2588840  95.1716000
  50.0343480  58.2221680 105.6959040  49.2062110  58.2914770 105.2209170
  50.6293960  58.8075990 105.2274870  47.5558930  58.8306460  99.2248100
  46.9371350  58.4926010  98.5774400  47.5383380  58.1866220  99.9327290
  46.9985490  55.0091000 106.6413910  46.5856670  55.8344710 106.8953900
  46.2661440  54.4236040 106.4490270  39.1318280  57.7950900 101.5032580
  38.7275280  57.0828150 101.0078480  39.2181400  57.4504140 102.3920620
  39.5999980  61.4818460 103.6671790  39.3028270  60.8763930 102.9879570
  40.5499800  61.5195770 103.5561150  37.8446900  54.5694110 105.2831620
  38.3961490  54.6789450 104.5084870  38.3590410  54.9431710 105.9986850
  47.6885590  65.0550330 107.3294890  47.2116150  65.8622520 107.1367500
  47.0047380  64.4028660 107.4821100  38.6918410  61.2200150 110.3179590
  37.7946940  61.4440120 110.5652990  38.7171280  61.3435090 109.3690990
  45.7323630  58.0693270  96.2320850  46.1716910  57.2315700  96.0858670
  46.4452050  58.7022670  96.3184990  37.5189630  58.0913470 108.8936960
  37.3797400  58.9636270 109.2624360  36.6370990  57.7486280 108.7484900
  43.8419010  63.0089340 100.2002090  44.2814920  63.7513670  99.7857480
  43.7805900  63.2515910 101.1241050  49.3140770  49.3236080  94.5461890
  49.0013430  49.4162910  95.4460960  50.0753240  49.9017110  94.4959320
  35.8322910  56.6895880  99.0039230  35.7120510  57.4157970  98.3920500
  35.5223800  55.9198790  98.5267140  33.4708280  59.8611020 104.8107870
  33.5488700  59.9959790 103.8663590  34.0849960  59.1526910 105.0035990
  34.7155910  61.5611210 101.2214050  34.3083990  61.7025800 100.3667650
  35.6068920  61.2771370 101.0185260  50.6718050  62.0075120 109.5586290
  50.7981110  61.7687000 108.6403470  50.7139430  61.1759660 110.0308370
  44.5334790  65.7103120 108.1281100  45.0479460  65.6211130 108.9303530
  43.6903870  66.0562820 108.4209010  46.5089190  65.9958460  97.5565100
  46.3490330  65.7061400  98.4546930  46.3435900  65.2198590  97.0210330
  38.9877570  65.7756990  99.3336720  38.8120050  64.8592530  99.1204520
  38.1333310  66.1344280  99.5734520  46.2115320  63.5046020  96.1163100
  45.5180480  63.5023310  95.4565380  46.9538180  63.0805340  95.6857270
  45.7765250  65.1308730 100.1911590  46.2322200  64.3498110 100.5050210
  46.1157770  65.8415550 100.7352770  50.5242060  54.0607580 110.5236030
  49.9086330  54.5687250 109.9951490  50.2038480  53.1605910 110.4661970
  33.5267800  60.9025190 107.3502330  33.6898840  60.4330550 106.5321700
  33.9920250  60.3948750 108.0151170  38.2986570  50.0330950 102.3862900
  37.8554720  50.8140490 102.0547420  38.8571560  50.3560840 103.0933840
  42.5856380  52.8999470 107.9898220  42.1235750  53.1082490 108.8018160
  42.1834490  52.0858820 107.6868890  47.5860890  54.1208420 109.1194880
  46.7354480  53.8214170 109.4403950  47.4262680  54.3650430 108.2078700
  41.4145390  49.6541650  97.2668730  40.7899570  49.6501520  97.9922040
  41.3275510  48.7872610  96.8704700  40.3362470  50.5778280 104.2452500
  40.6334800  51.4841110 104.1644520  40.8848030  50.0897060 103.6312070
  38.0900790  55.1564520 100.1144150  37.8641710  54.9401690 101.0190770
  37.3093320  55.5892980  99.7690120  45.3198550  55.1627890  98.7134800
  44.7207440  55.8863690  98.5298420  45.8678160  55.1004670  97.9311250
  40.5300000  56.0550100 110.7804420  40.4343600  55.1144830 110.6304820
  41.3731980  56.2765170 110.3852490  43.9263420  53.7991430 100.7438080
  44.3192990  54.1163630  99.9306770  44.2880270  52.9203310 100.8582600
  35.6610540  52.4663770 108.9338200  35.2673930  53.3138980 109.1410980
  34.9728940  51.8290140 109.1246840  32.9627590  50.3892230 102.9668280
  32.6740640  50.9595090 103.6793260  33.7073350  49.9096680 103.3299510
  33.1497820  54.3312350  94.1771000  33.0672490  55.2743110  94.3185990
  32.7980880  54.1887260  93.2983350  44.5118560  56.3897180 104.8388860
  43.7799680  56.8983990 105.1878960  44.1142900  55.5727160 104.5377640
  40.9495950  53.0651380 103.2441350  40.9532010  52.6241330 102.3945890
  41.8447070  53.3868710 103.3513170  36.7998330  52.9477870 102.2035560
  36.4598380  53.4253100 102.9602610  36.0375650  52.4942990 101.8436660
  41.0116100  54.0663460  96.2348110  41.1328920  54.0249940  97.1833930
  40.6264610  54.9287610  96.0794840  44.9744470  51.8430860 104.2511800
  44.9917210  52.2939510 105.0953650  44.7260050  50.9436500 104.4645240
  40.0237600  56.3764600  95.6331410  39.4554500  55.9282850  95.0067320
  40.7326600  56.7357380  95.0996560  48.4015220  49.2563040 110.0898180
  48.7260990  48.5252700 110.6156160  48.4371730  48.9376680 109.1879170
  35.1006780  60.2776620 109.5098140  34.7161570  59.6370290 110.1081100
  35.4118970  60.9812740 110.0792870  41.2503920  57.1253160 104.9906760
  41.6174050  56.6511730 105.7368100  41.0608980  57.9994730 105.3315100
  34.1144410  51.8696850 101.1200230  33.8291330  51.5052520 101.9578850
  34.0523270  51.1377310 100.5063370  39.0403290  56.1661800 107.3090970
  38.7360360  57.0453780 107.5341330  39.9949750  56.2261590 107.3448410
  37.5685080  60.3722790  97.9057820  36.7947340  59.8320410  97.7456540
  38.2979710  59.8529400  97.5675580  48.3273060  59.3688150 103.6984210
  49.0472180  59.8643440 103.3080320  48.1254880  58.6906040 103.0538080
  43.7883000  50.7626110  97.8413600  42.9747610  50.2639280  97.7658910
  43.5944950  51.6024360  97.4249950  43.7091860  59.4397210 109.5853210
  43.6429170  58.5192880 109.3310800  43.0797000  59.5372650 110.2997850
  46.5031390  55.1345760  96.1375760  47.3911010  55.4462990  95.9627100
  46.4736480  54.2618010  95.7456340  37.6122480  60.0403170 101.5436630
  38.1301150  59.2371430 101.4893520  37.1606500  59.9782310 102.3853460
  42.4991980  61.3069450  96.8163930  42.8407680  62.0511680  96.3207250
  41.6704690  61.6200570  97.1788760  35.0967020  57.0064540 108.4562330
  34.7381960  57.6718390 109.0435670  34.8021580  56.1748090 108.8274950
  43.6408590  62.2617780 109.3357010  43.6553130  61.3298740 109.1175920
  42.9333690  62.3477540 109.9746780  48.7745660  56.4457600  95.6055620
  48.6909380  56.8771820  94.7552060  49.4939850  56.9055950  96.0382440
  49.8519800  58.9025120 108.6825590  49.1267990  59.4953900 108.4854980
  50.3795260  58.8948660 107.8838960  49.8032910  63.2999860  98.3337750
  49.1609070  62.6455480  98.6081470  49.4163570  63.7054950  97.5578420
  45.3819390  60.6285290 102.1809440  45.7343210  60.0313420 101.5210810
  44.4981720  60.3029520 102.3517690  41.4682670  61.3882980  99.5879850
  42.1553800  61.9352190  99.9687440  40.6815090  61.9323710  99.6229460
  33.6075070  57.0055800  95.0796930  34.4769920  57.2880600  95.3632850
  33.1165390  57.8191670  94.9645740  40.7709880  58.3929010  99.2005210
  41.2272660  59.2034260  99.4265400  40.4198090  58.0752150 100.0323700
  43.0742490  63.9035350 106.4297510  43.7184710  64.1094730 107.1070930
  43.4371930  63.1423750 105.9768360  36.6721660  48.7366660  99.6727730
  36.5436290  48.7284560 100.6212650  35.8483680  49.0749750  99.3218740
  44.3474570  61.9067700 105.1474960  44.9896800  61.2060860 105.2607130
  44.8723920  62.6866140 104.9671850  48.1930290  62.1916320  94.8714100
  47.9667870  61.4746760  95.4638740  47.8026490  61.9428760  94.0335850
  46.1212190  62.7062600 108.3511020  46.4568430  63.2929290 109.0288940
  45.2012530  62.5755310 108.5808810  33.9746320  66.2183180  95.6458560
  34.3343960  66.8172520  94.9915830  33.8338660  66.7643070  96.4193590
  33.6715590  50.4957780 109.1334430  32.9574110  50.6954700 109.7387040
  34.0910630  49.7197350 109.5049230  47.7746540  60.1088260  96.5328260
  47.4868240  60.5700950  97.3206140  48.5698710  59.6486030  96.8012480
  33.9588180  64.4838040 110.1200960  34.0679300  63.5432780 109.9796350
  33.3068740  64.7492790 109.4714690  39.9914940  63.6014380  96.4632230
  39.9825040  64.3344070  95.8476740  39.0713300  63.3545960  96.5559190
  35.5921580  58.8229270  97.2078990  34.9849530  59.5628170  97.2174290
  36.0670930  58.9128630  96.3817190  45.1654370  52.9880090 106.8835880
  45.5335190  52.1675300 107.2115450  44.3052570  53.0481980 107.2991530
  48.5316400  51.9437030  97.6923440  47.9029560  52.0482700  96.9781670
  48.0368320  52.1633810  98.4817320  42.9774540  63.6642620  95.1257420
  43.0786520  63.4606610  94.1959400  42.0776280  63.4100900  95.3305200
  40.5000430  54.2222980  99.1081320  39.7916580  54.6909320  99.5494930
  40.7844910  53.5644990  99.7426510  42.1256360  55.6419680 107.1073850
  42.6241610  56.1165500 107.7725700  42.2679310  54.7183200 107.3143880
  44.5315860  50.9473640 100.5477110  44.4083640  50.9659770  99.5986620
  45.4800420  50.9952580 100.6675510  41.6192650  66.1828940  99.8205090
  41.8734150  66.1450330  98.8984460  40.6705130  66.0562270  99.8133340
  38.7035450  52.5308060  96.4832030  39.5525980  52.9678210  96.4172220
  38.3366720  52.8428320  97.3104090  49.3323220  51.8587640 107.9502240
  48.8296820  52.5993040 108.2896050  50.1479880  52.2471640 107.6339030
  47.6245230  57.1020820 101.3963600  46.6835370  57.1171050 101.5711290
  47.9389300  56.3156780 101.8423900  37.6026870  58.7840420  94.9567560
  38.3690140  58.6721780  95.5192990  37.6801560  58.0878390  94.3044330
  36.2973630  56.2165490  95.6400450  36.3777220  55.2693000  95.7517850
  37.1893380  56.5472370  95.7461110  49.6270810  64.2729670 103.0717860
  49.7518230  65.0960840 103.5441670  50.4936370  64.0620400 102.7242010
  37.0988340  66.3660880 102.7434990  37.8350820  65.8176340 103.0143560
  37.4829260  67.2316890 102.6040980  33.9833820  62.4334450  98.6176500
  33.0573600  62.6755590  98.6081910  34.4490250  63.2608710  98.4961250
  40.2090650  65.5391190  94.5660560  41.0019260  65.8280020  94.1142350
  39.6895000  65.1083360  93.8873040  49.2620820  64.7661320  95.9897300
  48.9762330  64.3526460  95.1751480  49.0640370  65.6949030  95.8697820
  40.7268050  60.7594600  94.4302910  40.6218690  60.1446950  95.1564290
  40.5592270  60.2360490  93.6465920  40.8782370  59.4451400 110.4092140
  40.1128040  60.0136400 110.3246810  41.0598330  59.1527610 109.5160370
  43.9670780  59.8214630  95.0344900  43.4180880  60.2683930  95.6787640
  44.5890040  59.3163880  95.5582570  48.0205720  61.1756730 110.9667160
  48.7615190  61.5132490 110.4634620  47.2578400  61.3448790 110.4136930
  39.6345900  58.7805550  96.9310200  40.0562320  58.6145420  97.7741590
  39.7596740  57.9705780  96.4365340  37.7973320  54.7602100 109.7381180
  37.2669780  54.2693050 109.1104520  38.4661390  55.1886300 109.2039110
  42.1473540  57.8043160  94.1787300  42.6679200  57.0892180  93.8128450
  42.7941940  58.4429030  94.4787810  46.6951380  59.2271560 109.5022370
  47.1092400  59.3816640 110.3512790  45.7602380  59.3526780 109.6648150
  38.2845620  51.7264470 109.8178470  38.1902490  51.1085220 109.0929340
  37.7043010  52.4530760 109.5908380  41.0507060  50.2837710 106.8505860
  40.6024360  50.3061970 106.0051410  40.4172260  49.8856730 107.4476160
  41.4566610  59.1792040 107.4718300  41.8754720  60.0224770 107.2994540
  40.5375240  59.3164080 107.2425080  43.7930510  56.9108220 108.8556140
  43.9126720  56.3149360 109.5950980  44.6524510  56.9477910 108.4357440
  46.1318410  57.4645410 107.4318650  45.6053630  57.9888030 106.8283790
  46.4749750  58.0972800 108.0628380  38.5304800  54.8538780  93.8768360
  38.3293860  53.9906140  94.2381700  38.3596850  54.7672140  92.9389960
  39.3074030  65.4845050 108.5876030  38.7695120  66.2091110 108.2684730
  39.5607990  65.0075390 107.7973370  40.5599280  53.4529570 110.1131960
  41.1498970  53.1445420 110.8009780  39.7419520  52.9809320 110.2691860
  45.3792710  53.0695380 110.3464980  44.6908230  52.4076920 110.2814970
  46.0998730  52.6233650 110.7913440  46.0093110  49.6647010  96.4055240
  46.2895400  48.8214910  96.7614660  45.2358840  49.8970120  96.9193990
  37.3287600  51.9539400  93.8646240  37.6313500  51.9606830  92.9565390
  38.0682190  51.6037260  94.3613900  42.1636240  66.7196260 108.8462680
  42.0894940  67.6231400 109.1535050  41.2615080  66.4008160 108.8184750
  40.5472530  50.8974020  94.8502440  40.1994530  50.2198010  94.2704890
  40.7485300  50.4363530  95.6645830  42.7121570  65.8854770  96.4689040
  43.6072360  66.2239740  96.4907800  42.7439200  65.1634180  95.8413320
  36.3517730  61.2581820  94.6976040  36.7892600  61.8011490  95.3533620
  36.8365460  60.4328770  94.7072380  33.5663530  64.0470850 102.1496300
  33.8966540  63.1791910 101.9174940  33.9954530  64.2529370 102.9801260
  38.1625450  62.3779860  99.8098270  37.8620990  62.2544830 100.7102180
  38.0562940  61.5188450  99.4014000  34.0553740  64.9141440 104.8877930
  33.6184730  65.0942240 105.7202080  34.6231420  65.6716060 104.7459650
  49.6915920  64.4158440 109.1755240  49.0917910  64.4751000 108.4319160
  49.8209820  63.4763420 109.3052090  50.9317370  62.1576260  94.5124950
  50.1010330  62.2252910  94.9832180  51.1089200  63.0480380  94.2091810
  50.3873830  58.9023740  97.0159150  51.1492740  59.4720390  97.1218840
  50.4028200  58.3350940  97.7867460  33.8878170  57.4261670 101.2466810
  33.2327010  57.1573310 100.6026510  34.7256120  57.3166150 100.7968790
  51.3933800  59.7573840 101.8601080  51.7642630  58.9741160 101.4537050
  52.0335730  60.4462940 101.6818380  48.3767560  61.1410420 107.2731400
  47.5627400  61.5707580 107.5357190  48.7841760  61.7528830 106.6600450
  50.4393000  59.1958110  94.1731670  50.7141840  60.1036990  94.0450890
  50.2503740  59.1320640  95.1093660  46.8368610  52.2202960  95.4685300
  47.2553490  52.0333940  94.6281960  46.5304670  51.3682010  95.7788230
  50.3358340  57.1327100  99.1661100  49.9601940  56.3655030  98.7342390
  49.6061460  57.5149800  99.6536030  34.9254100  57.8114240 105.7870150
  35.2927140  57.7241640 106.6666170  34.3564920  57.0480790 105.6877010
  49.7257960  56.2798620 108.8000620  49.4944050  56.0511370 107.8998570
  49.9862510  57.1998170 108.7545510  34.4770100  54.7223330 109.6928570
  33.5826150  54.6890090 110.0322280  35.0167650  54.9210120 110.4579820
  33.1016250  54.6360600  97.1892140  32.1980330  54.8990800  97.0143800
  33.5856870  54.9071770  96.4092100  49.6109300  55.3584590 102.4668340
  50.1346780  54.8647240 101.8358510  50.1968720  55.4934950 103.2115910
  49.7899020  55.4424460 105.9887890  48.8401730  55.4088000 106.1032880
  49.9712030  56.3524570 105.7537660  35.6443460  53.6926140  95.0986520
  36.3535160  53.2709360  94.6133800  34.9283400  53.7601370  94.4669870
  35.2917620  49.7465470  94.1389170  36.0145750  50.2874410  94.4570390
  35.5642140  49.4728890  93.2630710  49.1009270  54.6157940  98.4060750
  49.5968390  54.3828810  99.1909630  48.9025340  53.7769780  97.9898390
  34.9809810  48.9971660 104.0411790  35.6286000  48.4469040 103.6006950
  35.4011650  49.2514810 104.8627600  50.5296430  53.2518890 100.9398430
  50.4195710  53.0974930 101.8780700  51.2904020  52.7239830 100.6973840
  48.8762150  49.1913020 107.3981430  49.5134370  49.8047160 107.7640620
  49.0237040  49.2273680 106.4530660  51.4186700  51.0826810  94.1804570
  52.3436010  50.9507990  93.9722860  51.3962490  51.1619630  95.1341020
  51.4925190  51.8537470  96.8061280  50.6976690  51.7882590  97.3354190
  51.6968470  52.7888110  96.7946630  48.4343610  65.8929020 100.7999670
  49.0302680  65.5713590 100.1234090  48.6921760  65.4200840 101.5912940
  34.7341810  49.1527330 106.7837110  34.3856630  49.6091150 107.5495290
  34.4029510  48.2584460 106.8659540  40.0412210  63.8806520 106.5500020
  39.8003570  64.1481080 105.6630540  40.9814850  64.0512250 106.6050880
  44.8841190  50.0009270 109.9448820  45.4981600  50.3188560 109.2829900
  45.4290750  49.5157860 110.5644680  51.3016370  65.9000900 107.3510660
  50.8074650  66.2969770 106.6337790  50.6929660  65.2750110 107.7447940
  35.4062450  48.6803530 110.0587880  35.9545440  48.4991580 109.2953990
  35.4717760  47.8897640 110.5944190  36.1794210  65.2709180 108.0688080
  35.5854530  65.1393880 108.8078120  36.1718050  64.4347320 107.6030180
  45.6249230  48.5641410 106.2718110  44.7509070  48.8976520 106.0691040
  45.5159980  48.0914590 107.0969980  46.5321210  50.7712280 107.6559830
  46.2034570  49.9564040 107.2761560  47.4803510  50.7282090 107.5325520
  48.9855820  66.5424320 104.6297400  48.5258790  67.2940130 104.2555420
  48.3568280  65.8230790 104.5712200  35.8106440  62.6367560 107.0196120
  35.0840500  62.0172850 106.9522070  35.8715590  63.0308170 106.1494200
  39.4151540  64.8512560 103.8045530  39.9316560  64.2399920 103.2793790
  40.0648920  65.3541340 104.2956540  42.1547040  65.7421050 104.6314510
  42.4424850  65.4875350 103.7547520  42.6670260  65.1898410 105.2220080
  43.3724050  49.4811250 105.2111020  42.5895840  49.9556750 105.4907780
  43.0786980  48.5766080 105.1024200  47.9245120  50.1834350 103.2560110
  48.3653210  50.1279450 102.4081710  47.6552710  51.0992360 103.3270290
  49.7883690  49.8149590 101.2668930  49.7272090  48.8710810 101.1199950
  50.5675720  49.9229680 101.8122390  34.0936440  65.9541950 100.2292880
  33.9258480  65.3212630 100.9274770  33.2270950  66.1601350  99.8787070
  34.7164460  49.7858730  97.7324740  35.4743820  49.8987610  97.1588770
  34.2541630  50.6227930  97.6868170  41.2578270  51.8998000 100.7227050
  40.4452780  51.5254890 100.3822930  41.7619910  51.1443080 101.0248240
  45.7603250  48.5640450 101.9610120  46.3632620  49.1360660 102.4358640
  45.0196240  49.1279890 101.7384020  48.9037850  48.9662010  97.2350400
  49.0988480  49.8645460  97.5017830  48.1167720  48.7349090  97.7283350
  35.6999140  64.6475180  97.6743020  35.1746760  65.0283210  96.9704980
  35.6243720  65.2725950  98.3952730  37.0889610  50.3122780  96.2726710
  37.6182370  49.5252580  96.1434660  37.7217930  50.9913970  96.5062240
  39.2827450  50.0497920  99.3272100  38.6530190  49.3485230  99.4942230
  38.7432590  50.8102050  99.1105260  50.4564460  66.2062720  98.9956960
  50.6316650  65.5200460  98.3517880  49.7586030  66.7309770  98.6033630
  38.2992110  66.5957560  96.5492270  39.0310930  66.3116840  96.0016160
  38.5585780  66.3570840  97.4391650  37.4606900  62.7122290  96.5538600
  36.8315780  63.1807390  97.1024430  37.5754730  61.8671510  96.9884790
  44.9156620  56.7627950  82.7039800  44.8350670  55.8482560  82.4331510
  44.5021040  57.2595020  81.9979510  43.0474660  58.5406970  84.5849070
  42.2716760  58.0607410  84.8747640  43.6987590  57.8612620  84.4105230
  37.0640490  58.8526780  85.4624830  36.2325370  58.5975490  85.8621340
  37.6721470  58.9237550  86.1982750  47.0682090  62.9467160  83.3648200
  46.6063620  62.1754400  83.6935370  47.8807640  62.9733230  83.8700650
  37.0441750  62.8866870  85.6582850  37.3469790  61.9964610  85.4793070
  37.7885340  63.4437090  85.4305100  35.4732440  53.8128670  79.2467220
  34.5849140  54.1544640  79.1447100  35.7573630  53.6128990  78.3548050
  33.4365450  56.4134320  85.1306920  34.0081560  55.6456520  85.1310560
  33.4366990  56.7123080  84.2213530  43.2945400  65.2325170  82.9852190
  42.6756840  65.6882670  82.4146630  44.1497180  65.3876630  82.5841890
  42.4883650  61.2164160  84.5919230  42.4191930  60.2754100  84.4308360
  43.2503510  61.3065570  85.1641800  34.6790320  51.8218680  86.9175850
  34.4993160  50.9244430  87.1978610  34.2770400  52.3690550  87.5922800
  43.5188820  54.0234540  84.8188160  43.8953640  53.1506420  84.7061830
  43.4208330  54.3593240  83.9278600  37.6493830  52.3960170  80.2805600
  37.7560580  53.2963900  80.5874360  36.7386190  52.3478140  79.9900250
  47.3012940  51.5184980  81.7516500  48.1222560  51.0281550  81.7941980
  47.3347020  52.1082640  82.5048340  35.2976990  54.3179180  85.5258190
  35.9787100  54.5817550  86.1445590  34.9825040  53.4780050  85.8596200
  39.4901560  55.3646540  84.6130780  39.9979780  55.8627510  85.2535800
  40.0214800  54.5881740  84.4370140  51.5912490  53.5351730  88.3160130
  50.8864660  53.9233440  87.7975240  51.8570410  54.2302020  88.9181060
  37.7737660  50.0045100  88.8794200  37.7756100  50.5217490  88.0740100
  36.9441970  49.5275280  88.8564130  44.1608750  60.1164410  80.3784100
  43.5426020  60.5813860  79.8146820  44.6732000  60.8091890  80.7953610
  39.0240510  59.6440280  87.0567700  38.6909890  60.2709200  87.6988770
  39.2007190  60.1702160  86.2769370  47.5374420  53.4585360  84.5244040
  46.8329990  53.7470250  85.1047150  47.8986580  54.2685470  84.1643600
  37.4552990  51.7155060  86.8864650  37.7969800  52.5597110  86.5918520
  36.5168800  51.8638800  87.0029990  38.2359610  61.6121080  88.8716880
  38.8533610  62.2872160  88.5901330  37.3752730  62.0209060  88.7804380
  33.5291950  60.8020940  77.7523730  33.1519930  61.2908040  77.0208630
  33.7865020  61.4746220  78.3830260  49.1537200  63.0760490  86.7871520
  48.4700720  63.7459600  86.7788190  49.6931490  63.2741140  86.0216380
  50.6061340  52.9040150  84.9153250  49.6586250  52.9379130  85.0468680
  50.9311330  53.7179100  85.3002610  41.1380880  49.2037330  83.2109240
  41.4455860  48.6484220  82.4944740  40.2081580  49.3381790  83.0282230
  46.6895940  64.9204620  85.5016700  46.7023100  64.5166910  84.6338960
  46.1371160  65.6951910  85.3978130  46.0881380  59.8234460  86.8299310
  46.5050170  59.6094570  85.9952770  46.8121200  60.0807250  87.4007930
  43.5261640  57.2686160  79.9469360  42.5990920  57.2023540  80.1757830
  43.6786460  58.2066290  79.8324600  43.5130720  53.5403160  76.9436520
  42.5734390  53.7017120  77.0288980  43.8313980  54.2588840  76.3972510
  50.0343480  58.2221680  86.9215550  49.2062110  58.2914770  86.4465680
  50.6293960  58.8075990  86.4531380  47.5558930  58.8306460  80.4504610
  46.9371350  58.4926010  79.8030910  47.5383380  58.1866220  81.1583800
  46.9985490  55.0091000  87.8670420  46.5856670  55.8344710  88.1210410
  46.2661440  54.4236040  87.6746780  39.1318280  57.7950900  82.7289090
  38.7275280  57.0828150  82.2334990  39.2181400  57.4504140  83.6177130
  39.5999980  61.4818460  84.8928300  39.3028270  60.8763930  84.2136080
  40.5499800  61.5195770  84.7817660  37.8446900  54.5694110  86.5088130
  38.3961490  54.6789450  85.7341380  38.3590410  54.9431710  87.2243360
  47.6885590  65.0550330  88.5551400  47.2116150  65.8622520  88.3624010
  47.0047380  64.4028660  88.7077610  38.6918410  61.2200150  91.5436100
  37.7946940  61.4440120  91.7909500  38.7171280  61.3435090  90.5947500
  45.7323630  58.0693270  77.4577360  46.1716910  57.2315700  77.3115180
  46.4452050  58.7022670  77.5441500  37.5189630  58.0913470  90.1193470
  37.3797400  58.9636270  90.4880870  36.6370990  57.7486280  89.9741410
  43.8419010  63.0089340  81.4258600  44.2814920  63.7513670  81.0113990
  43.7805900  63.2515910  82.3497560  39.3169980  64.0335170  92.3278620
  39.2885410  64.4378120  91.4607050  39.1534950  63.1045530  92.1650220
  49.3140770  49.3236080  75.7718400  49.0013430  49.4162910  76.6717470
  50.0753240  49.9017110  75.7215830  35.8322910  56.6895880  80.2295740
  35.7120510  57.4157970  79.6177010  35.5223800  55.9198790  79.7523650
  51.2684800  64.8162270  93.6242790  51.7444520  65.2945160  94.3031870
  51.8891960  64.7479760  92.8988290  33.4708280  59.8611020  86.0364380
  33.5488700  59.9959790  85.0920100  34.0849960  59.1526910  86.2292500
  34.7155910  61.5611210  82.4470560  34.3083990  61.7025800  81.5924160
  35.6068920  61.2771370  82.2441770  50.6718050  62.0075120  90.7842800
  50.7981110  61.7687000  89.8659980  50.7139430  61.1759660  91.2564880
  44.5334790  65.7103120  89.3537610  45.0479460  65.6211130  90.1560040
  43.6903870  66.0562820  89.6465520  46.5089190  65.9958460  78.7821610
  46.3490330  65.7061400  79.6803440  46.3435900  65.2198590  78.2466840
  38.9877570  65.7756990  80.5593230  38.8120050  64.8592530  80.3461030
  38.1333310  66.1344280  80.7991030  45.7765250  65.1308730  81.4168100
  46.2322200  64.3498110  81.7306720  46.1157770  65.8415550  81.9609280
  50.5242060  54.0607580  91.7492540  49.9086330  54.5687250  91.2208000
  50.2038480  53.1605910  91.6918480  33.5267800  60.9025190  88.5758840
  33.6898840  60.4330550  87.7578210  33.9920250  60.3948750  89.2407680
  38.2986570  50.0330950  83.6119410  37.8554720  50.8140490  83.2803930
  38.8571560  50.3560840  84.3190350  42.5856380  52.8999470  89.2154730
  42.1235750  53.1082490  90.0274670  42.1834490  52.0858820  88.9125400
  47.5860890  54.1208420  90.3451390  46.7354480  53.8214170  90.6660460
  47.4262680  54.3650430  89.4335210  44.6810600  55.6210170  92.4450180
  45.0064010  54.7873920  92.1052410  45.4690930  56.1438690  92.5928510
  41.4145390  49.6541650  78.4925240  40.7899570  49.6501520  79.2178550
  41.3275510  48.7872610  78.0961210  40.3362470  50.5778280  85.4709010
  40.6334800  51.4841110  85.3901030  40.8848030  50.0897060  84.8568580
  38.0900790  55.1564520  81.3400660  37.8641710  54.9401690  82.2447280
  37.3093320  55.5892980  80.9946630  45.3198550  55.1627890  79.9391310
  44.7207440  55.8863690  79.7554930  45.8678160  55.1004670  79.1567760
  40.5300000  56.0550100  92.0060930  40.4343600  55.1144830  91.8561330
  41.3731980  56.2765170  91.6109000  43.9263420  53.7991430  81.9694590
  44.3192990  54.1163630  81.1563280  44.2880270  52.9203310  82.0839110
  35.6610540  52.4663770  90.1594710  35.2673930  53.3138980  90.3667490
  34.9728940  51.8290140  90.3503350  42.2355590  52.5498740  93.2291450
  41.5453910  52.3570940  93.8637540  42.9787890  52.8333380  93.7615750
  32.9627590  50.3892230  84.1924790  32.6740640  50.9595090  84.9049770
  33.7073350  49.9096680  84.5556020  44.5118560  56.3897180  86.0645370
  43.7799680  56.8983990  86.4135470  44.1142900  55.5727160  85.7634150
  40.9495950  53.0651380  84.4697860  40.9532010  52.6241330  83.6202400
  41.8447070  53.3868710  84.5769680  36.7998330  52.9477870  83.4292070
  36.4598380  53.4253100  84.1859120  36.0375650  52.4942990  83.0693170
  41.0116100  54.0663460  77.4604620  41.1328920  54.0249940  78.4090440
  40.6264610  54.9287610  77.3051350  44.9744470  51.8430860  85.4768310
  44.9917210  52.2939510  86.3210160  44.7260050  50.9436500  85.6901750
  40.0237600  56.3764600  76.8587920  39.4554500  55.9282850  76.2323830
  40.7326600  56.7357380  76.3253070  48.4015220  49.2563040  91.3154690
  48.7260990  48.5252700  91.8412670  48.4371730  48.9376680  90.4135680
  35.1006780  60.2776620  90.7354650  34.7161570  59.6370290  91.3337610
  35.4118970  60.9812740  91.3049380  41.2503920  57.1253160  86.2163270
  41.6174050  56.6511730  86.9624610  41.0608980  57.9994730  86.5571610
  34.1144410  51.8696850  82.3456740  33.8291330  51.5052520  83.1835360
  34.0523270  51.1377310  81.7319880  39.0403290  56.1661800  88.5347480
  38.7360360  57.0453780  88.7597840  39.9949750  56.2261590  88.5704920
  37.5685080  60.3722790  79.1314330  36.7947340  59.8320410  78.9713050
  38.2979710  59.8529400  78.7932090  48.3273060  59.3688150  84.9240720
  49.0472180  59.8643440  84.5336830  48.1254880  58.6906040  84.2794590
  43.7883000  50.7626110  79.0670110  42.9747610  50.2639280  78.9915420
  43.5944950  51.6024360  78.6506460  43.7091860  59.4397210  90.8109720
  43.6429170  58.5192880  90.5567310  43.0797000  59.5372650  91.5254360
  46.5031390  55.1345760  77.3632270  47.3911010  55.4462990  77.1883610
  46.4736480  54.2618010  76.9712850  37.6122480  60.0403170  82.7693140
  38.1301150  59.2371430  82.7150030  37.1606500  59.9782310  83.6109970
  42.4991980  61.3069450  78.0420440  42.8407680  62.0511680  77.5463760
  41.6704690  61.6200570  78.4045270  35.0967020  57.0064540  89.6818840
  34.7381960  57.6718390  90.2692180  34.8021580  56.1748090  90.0531460
  38.2980140  57.4648780  92.5658390  37.9980280  57.6105960  91.6686210
  39.0691380  56.9054070  92.4731780  43.6408590  62.2617780  90.5613520
  43.6553130  61.3298740  90.3432430  42.9333690  62.3477540  91.2003290
  48.7745660  56.4457600  76.8312130  48.6909380  56.8771820  75.9808570
  49.4939850  56.9055950  77.2638950  49.8519800  58.9025120  89.9082100
  49.1267990  59.4953900  89.7111490  50.3795260  58.8948660  89.1095470
  45.3819390  60.6285290  83.4065950  45.7343210  60.0313420  82.7467320
  44.4981720  60.3029520  83.5774200  41.4682670  61.3882980  80.8136360
  42.1553800  61.9352190  81.1943950  40.6815090  61.9323710  80.8485970
  40.7709880  58.3929010  80.4261720  41.2272660  59.2034260  80.6521910
  40.4198090  58.0752150  81.2580210  43.0742490  63.9035350  87.6554020
  43.7184710  64.1094730  88.3327440  43.4371930  63.1423750  87.2024870
  36.6721660  48.7366660  80.8984240  36.5436290  48.7284560  81.8469160
  35.8483680  49.0749750  80.5475250  44.3474570  61.9067700  86.3731470
  44.9896800  61.2060860  86.4863640  44.8723920  62.6866140  86.1928360
  46.1212190  62.7062600  89.5767530  46.4568430  63.2929290  90.2545450
  45.2012530  62.5755310  89.8065320  33.9746320  66.2183180  76.8715070
  34.3343960  66.8172520  76.2172340  33.8338660  66.7643070  77.6450100
  33.6715590  50.4957780  90.3590940  32.9574110  50.6954700  90.9643550
  34.0910630  49.7197350  90.7305740  47.7746540  60.1088260  77.7584770
  47.4868240  60.5700950  78.5462650  48.5698710  59.6486030  78.0268990
  33.9588180  64.4838040  91.3457470  34.0679300  63.5432780  91.2052860
  33.3068740  64.7492790  90.6971200  41.9500770  62.7553930  92.7455590
  41.6297640  62.0363170  93.2901280  41.2759130  63.4309000  92.8191650
  39.9914940  63.6014380  77.6888740  39.9825040  64.3344070  77.0733250
  39.0713300  63.3545960  77.7815700  35.5921580  58.8229270  78.4335500
  34.9849530  59.5628170  78.4430800  36.0670930  58.9128630  77.6073700
  45.1654370  52.9880090  88.1092390  45.5335190  52.1675300  88.4371960
  44.3052570  53.0481980  88.5248040  48.5316400  51.9437030  78.9179950
  47.9029560  52.0482700  78.2038180  48.0368320  52.1633810  79.7073830
  40.5000430  54.2222980  80.3337830  39.7916580  54.6909320  80.7751440
  40.7844910  53.5644990  80.9683020  42.1256360  55.6419680  88.3330360
  42.6241610  56.1165500  88.9982210  42.2679310  54.7183200  88.5400390
  44.5315860  50.9473640  81.7733620  44.4083640  50.9659770  80.8243130
  45.4800420  50.9952580  81.8932020  41.6192650  66.1828940  81.0461600
  41.8734150  66.1450330  80.1240970  40.6705130  66.0562270  81.0389850
  38.7035450  52.5308060  77.7088540  39.5525980  52.9678210  77.6428730
  38.3366720  52.8428320  78.5360600  49.3323220  51.8587640  89.1758750
  48.8296820  52.5993040  89.5152560  50.1479880  52.2471640  88.8595540
  47.6245230  57.1020820  82.6220110  46.6835370  57.1171050  82.7967800
  47.9389300  56.3156780  83.0680410  37.6026870  58.7840420  76.1824070
  38.3690140  58.6721780  76.7449500  37.6801560  58.0878390  75.5300840
  36.2973630  56.2165490  76.8656960  36.3777220  55.2693000  76.9774360
  37.1893380  56.5472370  76.9717620  49.6270810  64.2729670  84.2974370
  49.7518230  65.0960840  84.7698180  50.4936370  64.0620400  83.9498520
  37.0988340  66.3660880  83.9691500  37.8350820  65.8176340  84.2400070
  37.4829260  67.2316890  83.8297490  33.9833820  62.4334450  79.8433010
  33.0573600  62.6755590  79.8338420  34.4490250  63.2608710  79.7217760
  36.1046620  65.5506950  93.1577080  36.9059350  65.8719000  93.5712480
  35.5898440  65.1902530  93.8796990  40.2090650  65.5391190  75.7917070
  41.0019260  65.8280020  75.3398860  39.6895000  65.1083360  75.1129550
  44.9411250  61.6586820  93.1052490  44.3349410  61.6818420  92.3648240
  44.6365360  60.9269860  93.6419740  46.3711620  65.3867110  91.7161900
  47.3233370  65.3025130  91.6662140  46.2239840  66.0508820  92.3895690
  33.8244430  58.0380410  92.1013130  34.3283450  57.4587690  92.6729360
  33.0851850  58.3220640  92.6389500  40.7268050  60.7594600  75.6559420
  40.6218690  60.1446950  76.3820800  40.5592270  60.2360490  74.8722430
  40.8782370  59.4451400  91.6348650  40.1128040  60.0136400  91.5503320
  41.0598330  59.1527610  90.7416880  48.0205720  61.1756730  92.1923670
  48.7615190  61.5132490  91.6891130  47.2578400  61.3448790  91.6393440
  35.8567510  56.1810000  92.9963200  35.8972850  55.8823870  93.9048430
  36.7113010  56.5817610  92.8370720  39.6345900  58.7805550  78.1566710
  40.0562320  58.6145420  78.9998100  39.7596740  57.9705780  77.6621850
  37.7973320  54.7602100  90.9637690  37.2669780  54.2693050  90.3361030
  38.4661390  55.1886300  90.4295620  42.1473540  57.8043160  75.4043810
  42.6679200  57.0892180  75.0384960  42.7941940  58.4429030  75.7044320
  46.6951380  59.2271560  90.7278880  47.1092400  59.3816640  91.5769300
  45.7602380  59.3526780  90.8904660  47.1673550  56.5667720  92.7318030
  47.7494320  55.8120040  92.6438510  47.3435320  57.0975160  91.9549510
  38.2845620  51.7264470  91.0434980  38.1902490  51.1085220  90.3185850
  37.7043010  52.4530760  90.8164890  41.0507060  50.2837710  88.0762370
  40.6024360  50.3061970  87.2307920  40.4172260  49.8856730  88.6732670
  41.4566610  59.1792040  88.6974810  41.8754720  60.0224770  88.5251050
  40.5375240  59.3164080  88.4681590  43.7930510  56.9108220  90.0812650
  43.9126720  56.3149360  90.8207490  44.6524510  56.9477910  89.6613950
  46.1318410  57.4645410  88.6575160  45.6053630  57.9888030  88.0540300
  46.4749750  58.0972800  89.2884890  38.5304800  54.8538780  75.1024870
  38.3293860  53.9906140  75.4638210  38.3596850  54.7672140  74.1646470
  39.3074030  65.4845050  89.8132540  38.7695120  66.2091110  89.4941240
  39.5607990  65.0075390  89.0229880  40.5599280  53.4529570  91.3388470
  41.1498970  53.1445420  92.0266290  39.7419520  52.9809320  91.4948370
  45.3792710  53.0695380  91.5721490  44.6908230  52.4076920  91.5071480
  46.0998730  52.6233650  92.0169950  46.0093110  49.6647010  77.6311750
  46.2895400  48.8214910  77.9871170  45.2358840  49.8970120  78.1450500
  37.3287600  51.9539400  75.0902750  37.6313500  51.9606830  74.1821900
  38.0682190  51.6037260  75.5870410  42.1636240  66.7196260  90.0719190
  42.0894940  67.6231400  90.3791560  41.2615080  66.4008160  90.0441260
  40.5472530  50.8974020  76.0758950  40.1994530  50.2198010  75.4961400
  40.7485300  50.4363530  76.8902340  42.7121570  65.8854770  77.6945550
  43.6072360  66.2239740  77.7164310  42.7439200  65.1634180  77.0669830
  36.3517730  61.2581820  75.9232550  36.7892600  61.8011490  76.5790130
  36.8365460  60.4328770  75.9328890  33.5663530  64.0470850  83.3752810
  33.8966540  63.1791910  83.1431450  33.9954530  64.2529370  84.2057770
  38.1625450  62.3779860  81.0354780  37.8620990  62.2544830  81.9358690
  38.0562940  61.5188450  80.6270510  34.0553740  64.9141440  86.1134440
  33.6184730  65.0942240  86.9458590  34.6231420  65.6716060  85.9716160
  49.6915920  64.4158440  90.4011750  49.0917910  64.4751000  89.6575670
  49.8209820  63.4763420  90.5308600  50.3873830  58.9023740  78.2415660
  51.1492740  59.4720390  78.3475350  50.4028200  58.3350940  79.0123970
  33.8878170  57.4261670  82.4723320  33.2327010  57.1573310  81.8283020
  34.7256120  57.3166150  82.0225300  51.3933800  59.7573840  83.0857590
  51.7642630  58.9741160  82.6793560  52.0335730  60.4462940  82.9074890
  48.3767560  61.1410420  88.4987910  47.5627400  61.5707580  88.7613700
  48.7841760  61.7528830  87.8856960  46.8368610  52.2202960  76.6941810
  47.2553490  52.0333940  75.8538470  46.5304670  51.3682010  77.0044740
  50.3358340  57.1327100  80.3917610  49.9601940  56.3655030  79.9598900
  49.6061460  57.5149800  80.8792540  34.9254100  57.8114240  87.0126660
  35.2927140  57.7241640  87.8922680  34.3564920  57.0480790  86.9133520
  49.7257960  56.2798620  90.0257130  49.4944050  56.0511370  89.1255080
  49.9862510  57.1998170  89.9802020  34.4770100  54.7223330  90.9185080
  33.5826150  54.6890090  91.2578790  35.0167650  54.9210120  91.6836330
  48.1646030  51.5055050  92.8036830  49.0416210  51.5138450  93.1870830
  48.1766870  50.7685890  92.1929180  49.6109300  55.3584590  83.6924850
  50.1346780  54.8647240  83.0615020  50.1968720  55.4934950  84.4372420
  49.7899020  55.4424460  87.2144400  48.8401730  55.4088000  87.3289390
  49.9712030  56.3524570  86.9794170  35.6443460  53.6926140  76.3243030
  36.3535160  53.2709360  75.8390310  34.9283400  53.7601370  75.6926380
  49.1009270  54.6157940  79.6317260  49.5968390  54.3828810  80.4166140
  48.9025340  53.7769780  79.2154900  34.9809810  48.9971660  85.2668300
  35.6286000  48.4469040  84.8263460  35.4011650  49.2514810  86.0884110
  50.5296430  53.2518890  82.1654940  50.4195710  53.0974930  83.1037210
  51.2904020  52.7239830  81.9230350  48.8762150  49.1913020  88.6237940
  49.5134370  49.8047160  88.9897130  49.0237040  49.2273680  87.6787170
  51.4186700  51.0826810  75.4061080  52.3436010  50.9507990  75.1979370
  51.3962490  51.1619630  76.3597530  51.4925190  51.8537470  78.0317790
  50.6976690  51.7882590  78.5610700  51.6968470  52.7888110  78.0203140
  34.7341810  49.1527330  88.0093620  34.3856630  49.6091150  88.7751800
  34.4029510  48.2584460  88.0916050  36.3406180  62.3246930  92.1746810
  36.2975810  61.9539840  93.0561270  36.4717190  63.2624500  92.3148630
  40.0412210  63.8806520  87.7756530  39.8003570  64.1481080  86.8887050
  40.9814850  64.0512250  87.8307390  42.2466630  50.3439210  91.5313040
  42.1855520  50.9361040  92.2808450  43.1867010  50.2365170  91.3863300
  44.8841190  50.0009270  91.1705330  45.4981600  50.3188560  90.5086410
  45.4290750  49.5157860  91.7901190  51.3016370  65.9000900  88.5767170
  50.8074650  66.2969770  87.8594300  50.6929660  65.2750110  88.9704450
  35.4062450  48.6803530  91.2844390  35.9545440  48.4991580  90.5210500
  35.4717760  47.8897640  91.8200700  36.1794210  65.2709180  89.2944590
  35.5854530  65.1393880  90.0334630  36.1718050  64.4347320  88.8286690
  45.6249230  48.5641410  87.4974620  44.7509070  48.8976520  87.2947550
  45.5159980  48.0914590  88.3226490  46.5321210  50.7712280  88.8816340
  46.2034570  49.9564040  88.5018070  47.4803510  50.7282090  88.7582030
  48.9855820  66.5424320  85.8553910  48.5258790  67.2940130  85.4811930
  48.3568280  65.8230790  85.7968710  35.8106440  62.6367560  88.2452630
  35.0840500  62.0172850  88.1778580  35.8715590  63.0308170  87.3750710
  39.4151540  64.8512560  85.0302040  39.9316560  64.2399920  84.5050300
  40.0648920  65.3541340  85.5213050  42.1547040  65.7421050  85.8571020
  42.4424850  65.4875350  84.9804030  42.6670260  65.1898410  86.4476590
  43.3724050  49.4811250  86.4367530  42.5895840  49.9556750  86.7164290
  43.0786980  48.5766080  86.3280710  47.9245120  50.1834350  84.4816620
  48.3653210  50.1279450  83.6338220  47.6552710  51.0992360  84.5526800
  49.7883690  49.8149590  82.4925440  49.7272090  48.8710810  82.3456460
  50.5675720  49.9229680  83.0378900  34.0936440  65.9541950  81.4549390
  33.9258480  65.3212630  82.1531280  33.2270950  66.1601350  81.1043580
  34.7164460  49.7858730  78.9581250  35.4743820  49.8987610  78.3845280
  34.2541630  50.6227930  78.9124680  41.2578270  51.8998000  81.9483560
  40.4452780  51.5254890  81.6079440  41.7619910  51.1443080  82.2504750
  45.7603250  48.5640450  83.1866630  46.3632620  49.1360660  83.6615150
  45.0196240  49.1279890  82.9640530  48.9037850  48.9662010  78.4606910
  49.0988480  49.8645460  78.7274340  48.1167720  48.7349090  78.9539860
  35.6999140  64.6475180  78.8999530  35.1746760  65.0283210  78.1961490
  35.6243720  65.2725950  79.6209240  37.0889610  50.3122780  77.4983220
  37.6182370  49.5252580  77.3691170  37.7217930  50.9913970  77.7318750
  39.2827450  50.0497920  80.5528610  38.6530190  49.3485230  80.7198740
  38.7432590  50.8102050  80.3361770  42.2219400  66.6637150  93.2239220
  43.1486710  66.4281420  93.2675180  42.2069830  67.4909150  92.7425250
  39.4083010  49.3281900  92.9881100  39.1267280  49.8315500  92.2241920
  39.7902710  48.5303650  92.6223230  38.2992110  66.5957560  77.7748780
  39.0310930  66.3116840  77.2272670  38.5585780  66.3570840  78.6648160
  37.4606900  62.7122290  77.7795110  36.8315780  63.1807390  78.3280940
  37.5754730  61.8671510  78.2141300  46.0098470  48.7435480  93.5661570
  45.8963920  49.0630090  94.4613090  46.8268210  49.1447990  93.2698850
  48.7896960  65.8907010  93.0480260  49.5822280  65.3956240  92.8406220
  49.0830110  66.5697150  93.6555870  44.9156620  56.7627950  63.9296310
  44.8350670  55.8482560  63.6588020  44.5021040  57.2595020  63.2236020
  43.0474660  58.5406970  65.8105580  42.2716760  58.0607410  66.1004150
  43.6987590  57.8612620  65.6361740  37.0640490  58.8526780  66.6881340
  36.2325370  58.5975490  67.0877850  37.6721470  58.9237550  67.4239260
  37.0441750  62.8866870  66.8839360  37.3469790  61.9964610  66.7049580
  37.7885340  63.4437090  66.6561610  35.4732440  53.8128670  60.4723730
  34.5849140  54.1544640  60.3703610  35.7573630  53.6128990  59.5804560
  33.4365450  56.4134320  66.3563430  34.0081560  55.6456520  66.3567070
  33.4366990  56.7123080  65.4470040  42.4883650  61.2164160  65.8175740
  42.4191930  60.2754100  65.6564870  43.2503510  61.3065570  66.3898310
  43.5188820  54.0234540  66.0444670  43.8953640  53.1506420  65.9318340
  43.4208330  54.3593240  65.1535110  37.6493830  52.3960170  61.5062110
  37.7560580  53.2963900  61.8130870  36.7386190  52.3478140  61.2156760
  47.3012940  51.5184980  62.9773010  48.1222560  51.0281550  63.0198490
  47.3347020  52.1082640  63.7304850  39.4901560  55.3646540  65.8387290
  39.9979780  55.8627510  66.4792310  40.0214800  54.5881740  65.6626650
  51.5912490  53.5351730  69.5416640  50.8864660  53.9233440  69.0231750
  51.8570410  54.2302020  70.1437570  39.0240510  59.6440280  68.2824210
  38.6909890  60.2709200  68.9245280  39.2007190  60.1702160  67.5025880
  47.5374420  53.4585360  65.7500550  46.8329990  53.7470250  66.3303660
  47.8986580  54.2685470  65.3900110  38.2359610  61.6121080  70.0973390
  38.8533610  62.2872160  69.8157840  37.3752730  62.0209060  70.0060890
  33.5291950  60.8020940  58.9780240  33.1519930  61.2908040  58.2465140
  33.7865020  61.4746220  59.6086770  41.1380880  49.2037330  64.4365750
  41.4455860  48.6484220  63.7201250  40.2081580  49.3381790  64.2538740
  46.0881380  59.8234460  68.0555820  46.5050170  59.6094570  67.2209280
  46.8121200  60.0807250  68.6264440  43.5261640  57.2686160  61.1725870
  42.5990920  57.2023540  61.4014340  43.6786460  58.2066290  61.0581110
  43.5130720  53.5403160  58.1693030  42.5734390  53.7017120  58.2545490
  43.8313980  54.2588840  57.6229020  46.9985490  55.0091000  69.0926930
  46.5856670  55.8344710  69.3466920  46.2661440  54.4236040  68.9003290
  39.1318280  57.7950900  63.9545600  38.7275280  57.0828150  63.4591500
  39.2181400  57.4504140  64.8433640  39.5999980  61.4818460  66.1184810
  39.3028270  60.8763930  65.4392590  40.5499800  61.5195770  66.0074170
  37.8446900  54.5694110  67.7344640  38.3961490  54.6789450  66.9597890
  38.3590410  54.9431710  68.4499870  38.6918410  61.2200150  72.7692610
  37.7946940  61.4440120  73.0166010  38.7171280  61.3435090  71.8204010
  45.7323630  58.0693270  58.6833870  46.1716910  57.2315700  58.5371690
  46.4452050  58.7022670  58.7698010  37.5189630  58.0913470  71.3449980
  37.3797400  58.9636270  71.7137380  36.6370990  57.7486280  71.1997920
  39.3169980  64.0335170  73.5535130  39.2885410  64.4378120  72.6863560
  39.1534950  63.1045530  73.3906730  49.3140770  49.3236080  56.9974910
  49.0013430  49.4162910  57.8973980  50.0753240  49.9017110  56.9472340
  35.8322910  56.6895880  61.4552250  35.7120510  57.4157970  60.8433520
  35.5223800  55.9198790  60.9780160  33.4708280  59.8611020  67.2620890
  33.5488700  59.9959790  66.3176610  34.0849960  59.1526910  67.4549010
  34.7155910  61.5611210  63.6727070  34.3083990  61.7025800  62.8180670
  35.6068920  61.2771370  63.4698280  38.9877570  65.7756990  61.7849740
  38.8120050  64.8592530  61.5717540  38.1333310  66.1344280  62.0247540
  33.5267800  60.9025190  69.8015350  33.6898840  60.4330550  68.9834720
  33.9920250  60.3948750  70.4664190  42.5856380  52.8999470  70.4411240
  42.1235750  53.1082490  71.2531180  42.1834490  52.0858820  70.1381910
  47.5860890  54.1208420  71.5707900  46.7354480  53.8214170  71.8916970
  47.4262680  54.3650430  70.6591720  44.6810600  55.6210170  73.6706690
  45.0064010  54.7873920  73.3308920  45.4690930  56.1438690  73.8185020
  41.4145390  49.6541650  59.7181750  40.7899570  49.6501520  60.4435060
  41.3275510  48.7872610  59.3217720  40.3362470  50.5778280  66.6965520
  40.6334800  51.4841110  66.6157540  40.8848030  50.0897060  66.0825090
  38.0900790  55.1564520  62.5657170  37.8641710  54.9401690  63.4703790
  37.3093320  55.5892980  62.2203140  45.3198550  55.1627890  61.1647820
  44.7207440  55.8863690  60.9811440  45.8678160  55.1004670  60.3824270
  40.5300000  56.0550100  73.2317440  40.4343600  55.1144830  73.0817840
  41.3731980  56.2765170  72.8365510  43.9263420  53.7991430  63.1951100
  44.3192990  54.1163630  62.3819790  44.2880270  52.9203310  63.3095620
  42.2355590  52.5498740  74.4547960  41.5453910  52.3570940  75.0894050
  42.9787890  52.8333380  74.9872260  33.1497820  54.3312350  56.6284020
  33.0672490  55.2743110  56.7699010  32.7980880  54.1887260  55.7496370
  44.5118560  56.3897180  67.2901880  43.7799680  56.8983990  67.6391980
  44.1142900  55.5727160  66.9890660  40.9495950  53.0651380  65.6954370
  40.9532010  52.6241330  64.8458910  41.8447070  53.3868710  65.8026190
  41.0116100  54.0663460  58.6861130  41.1328920  54.0249940  59.6346950
  40.6264610  54.9287610  58.5307860  44.9744470  51.8430860  66.7024820
  44.9917210  52.2939510  67.5466670  44.7260050  50.9436500  66.9158260
  40.0237600  56.3764600  58.0844430  39.4554500  55.9282850  57.4580340
  40.7326600  56.7357380  57.5509580  48.4015220  49.2563040  72.5411200
  48.7260990  48.5252700  73.0669180  48.4371730  48.9376680  71.6392190
  35.1006780  60.2776620  71.9611160  34.7161570  59.6370290  72.5594120
  35.4118970  60.9812740  72.5305890  41.2503920  57.1253160  67.4419780
  41.6174050  56.6511730  68.1881120  41.0608980  57.9994730  67.7828120
  39.0403290  56.1661800  69.7603990  38.7360360  57.0453780  69.9854350
  39.9949750  56.2261590  69.7961430  37.5685080  60.3722790  60.3570840
  36.7947340  59.8320410  60.1969560  38.2979710  59.8529400  60.0188600
  43.7883000  50.7626110  60.2926620  42.9747610  50.2639280  60.2171930
  43.5944950  51.6024360  59.8762970  43.7091860  59.4397210  72.0366230
  43.6429170  58.5192880  71.7823820  43.0797000  59.5372650  72.7510870
  46.5031390  55.1345760  58.5888780  47.3911010  55.4462990  58.4140120
  46.4736480  54.2618010  58.1969360  37.6122480  60.0403170  63.9949650
  38.1301150  59.2371430  63.9406540  37.1606500  59.9782310  64.8366480
  42.4991980  61.3069450  59.2676950  42.8407680  62.0511680  58.7720270
  41.6704690  61.6200570  59.6301780  35.0967020  57.0064540  70.9075350
  34.7381960  57.6718390  71.4948690  34.8021580  56.1748090  71.2787970
  38.2980140  57.4648780  73.7914900  37.9980280  57.6105960  72.8942720
  39.0691380  56.9054070  73.6988290  41.4682670  61.3882980  62.0392870
  42.1553800  61.9352190  62.4200460  40.6815090  61.9323710  62.0742480
  33.6075070  57.0055800  57.5309950  34.4769920  57.2880600  57.8145870
  33.1165390  57.8191670  57.4158760  40.7709880  58.3929010  61.6518230
  41.2272660  59.2034260  61.8778420  40.4198090  58.0752150  62.4836720
  43.0742490  63.9035350  68.8810530  43.7184710  64.1094730  69.5583950
  43.4371930  63.1423750  68.4281380  44.3474570  61.9067700  67.5987980
  44.9896800  61.2060860  67.7120150  44.8723920  62.6866140  67.4184870
  33.9746320  66.2183180  58.0971580  34.3343960  66.8172520  57.4428850
  33.8338660  66.7643070  58.8706610  33.9588180  64.4838040  72.5713980
  34.0679300  63.5432780  72.4309370  33.3068740  64.7492790  71.9227710
  39.9914940  63.6014380  58.9145250  39.9825040  64.3344070  58.2989760
  39.0713300  63.3545960  59.0072210  35.5921580  58.8229270  59.6592010
  34.9849530  59.5628170  59.6687310  36.0670930  58.9128630  58.8330210
  45.1654370  52.9880090  69.3348900  45.5335190  52.1675300  69.6628470
  44.3052570  53.0481980  69.7504550  48.5316400  51.9437030  60.1436460
  47.9029560  52.0482700  59.4294690  48.0368320  52.1633810  60.9330340
  42.9774540  63.6642620  57.5770440  43.0786520  63.4606610  56.6472420
  42.0776280  63.4100900  57.7818220  40.5000430  54.2222980  61.5594340
  39.7916580  54.6909320  62.0007950  40.7844910  53.5644990  62.1939530
  42.1256360  55.6419680  69.5586870  42.6241610  56.1165500  70.2238720
  42.2679310  54.7183200  69.7656900  44.5315860  50.9473640  62.9990130
  44.4083640  50.9659770  62.0499640  45.4800420  50.9952580  63.1188530
  41.6192650  66.1828940  62.2718110  41.8734150  66.1450330  61.3497480
  40.6705130  66.0562270  62.2646360  38.7035450  52.5308060  58.9345050
  39.5525980  52.9678210  58.8685240  38.3366720  52.8428320  59.7617110
  49.3323220  51.8587640  70.4015260  48.8296820  52.5993040  70.7409070
  50.1479880  52.2471640  70.0852050  37.6026870  58.7840420  57.4080580
  38.3690140  58.6721780  57.9706010  37.6801560  58.0878390  56.7557350
  36.2973630  56.2165490  58.0913470  36.3777220  55.2693000  58.2030870
  37.1893380  56.5472370  58.1974130  37.0988340  66.3660880  65.1948010
  37.8350820  65.8176340  65.4656580  37.4829260  67.2316890  65.0554000
  33.9833820  62.4334450  61.0689520  33.0573600  62.6755590  61.0594930
  34.4490250  63.2608710  60.9474270  36.1046620  65.5506950  74.3833590
  36.9059350  65.8719000  74.7968990  35.5898440  65.1902530  75.1053500
  40.2090650  65.5391190  57.0173580  41.0019260  65.8280020  56.5655370
  39.6895000  65.1083360  56.3386060  33.8244430  58.0380410  73.3269640
  34.3283450  57.4587690  73.8985870  33.0851850  58.3220640  73.8646010
  40.7268050  60.7594600  56.8815930  40.6218690  60.1446950  57.6077310
  40.5592270  60.2360490  56.0978940  40.8782370  59.4451400  72.8605160
  40.1128040  60.0136400  72.7759830  41.0598330  59.1527610  71.9673390
  43.9670780  59.8214630  57.4857920  43.4180880  60.2683930  58.1300660
  44.5890040  59.3163880  58.0095590  35.8567510  56.1810000  74.2219710
  35.8972850  55.8823870  75.1304940  36.7113010  56.5817610  74.0627230
  39.6345900  58.7805550  59.3823220  40.0562320  58.6145420  60.2254610
  39.7596740  57.9705780  58.8878360  37.7973320  54.7602100  72.1894200
  37.2669780  54.2693050  71.5617540  38.4661390  55.1886300  71.6552130
  42.1473540  57.8043160  56.6300320  42.6679200  57.0892180  56.2641470
  42.7941940  58.4429030  56.9300830  38.2845620  51.7264470  72.2691490
  38.1902490  51.1085220  71.5442360  37.7043010  52.4530760  72.0421400
  41.0507060  50.2837710  69.3018880  40.6024360  50.3061970  68.4564430
  40.4172260  49.8856730  69.8989180  41.4566610  59.1792040  69.9231320
  41.8754720  60.0224770  69.7507560  40.5375240  59.3164080  69.6938100
  43.7930510  56.9108220  71.3069160  43.9126720  56.3149360  72.0464000
  44.6524510  56.9477910  70.8870460  46.1318410  57.4645410  69.8831670
  45.6053630  57.9888030  69.2796810  46.4749750  58.0972800  70.5141400
  38.5304800  54.8538780  56.3281380  38.3293860  53.9906140  56.6894720
  38.3596850  54.7672140  55.3902980  39.3074030  65.4845050  71.0389050
  38.7695120  66.2091110  70.7197750  39.5607990  65.0075390  70.2486390
  40.5599280  53.4529570  72.5644980  41.1498970  53.1445420  73.2522800
  39.7419520  52.9809320  72.7204880  45.3792710  53.0695380  72.7978000
  44.6908230  52.4076920  72.7327990  46.0998730  52.6233650  73.2426460
  46.0093110  49.6647010  58.8568260  46.2895400  48.8214910  59.2127680
  45.2358840  49.8970120  59.3707010  37.3287600  51.9539400  56.3159260
  37.6313500  51.9606830  55.4078410  38.0682190  51.6037260  56.8126920
  40.5472530  50.8974020  57.3015460  40.1994530  50.2198010  56.7217910
  40.7485300  50.4363530  58.1158850  42.7121570  65.8854770  58.9202060
  43.6072360  66.2239740  58.9420820  42.7439200  65.1634180  58.2926340
  36.3517730  61.2581820  57.1489060  36.7892600  61.8011490  57.8046640
  36.8365460  60.4328770  57.1585400  33.5663530  64.0470850  64.6009320
  33.8966540  63.1791910  64.3687960  33.9954530  64.2529370  65.4314280
  38.1625450  62.3779860  62.2611290  37.8620990  62.2544830  63.1615200
  38.0562940  61.5188450  61.8527020  34.0553740  64.9141440  67.3390950
  33.6184730  65.0942240  68.1715100  34.6231420  65.6716060  67.1972670
  33.8878170  57.4261670  63.6979830  33.2327010  57.1573310  63.0539530
  34.7256120  57.3166150  63.2481810  46.8368610  52.2202960  57.9198320
  47.2553490  52.0333940  57.0794980  46.5304670  51.3682010  58.2301250
  34.9254100  57.8114240  68.2383170  35.2927140  57.7241640  69.1179190
  34.3564920  57.0480790  68.1390030  48.1646030  51.5055050  74.0293340
  49.0416210  51.5138450  74.4127340  48.1766870  50.7685890  73.4185690
  33.1016250  54.6360600  59.6405160  32.1980330  54.8990800  59.4656820
  33.5856870  54.9071770  58.8605120  49.7899020  55.4424460  68.4400910
  48.8401730  55.4088000  68.5545900  49.9712030  56.3524570  68.2050680
  35.6443460  53.6926140  57.5499540  36.3535160  53.2709360  57.0646820
  34.9283400  53.7601370  56.9182890  48.8762150  49.1913020  69.8494450
  49.5134370  49.8047160  70.2153640  49.0237040  49.2273680  68.9043680
  36.3406180  62.3246930  73.4003320  36.2975810  61.9539840  74.2817780
  36.4717190  63.2624500  73.5405140  40.0412210  63.8806520  69.0013040
  39.8003570  64.1481080  68.1143560  40.9814850  64.0512250  69.0563900
  42.2466630  50.3439210  72.7569550  42.1855520  50.9361040  73.5064960
  43.1867010  50.2365170  72.6119810  44.8841190  50.0009270  72.3961840
  45.4981600  50.3188560  71.7342920  45.4290750  49.5157860  73.0157700
  36.1794210  65.2709180  70.5201100  35.5854530  65.1393880  71.2591140
  36.1718050  64.4347320  70.0543200  45.6249230  48.5641410  68.7231130
  44.7509070  48.8976520  68.5204060  45.5159980  48.0914590  69.5483000
  46.5321210  50.7712280  70.1072850  46.2034570  49.9564040  69.7274580
  47.4803510  50.7282090  69.9838540  35.8106440  62.6367560  69.4709140
  35.0840500  62.0172850  69.4035090  35.8715590  63.0308170  68.6007220
  39.4151540  64.8512560  66.2558550  39.9316560  64.2399920  65.7306810
  40.0648920  65.3541340  66.7469560  42.1547040  65.7421050  67.0827530
  42.4424850  65.4875350  66.2060540  42.6670260  65.1898410  67.6733100
  43.3724050  49.4811250  67.6624040  42.5895840  49.9556750  67.9420800
  43.0786980  48.5766080  67.5537220  47.9245120  50.1834350  65.7073130
  48.3653210  50.1279450  64.8594730  47.6552710  51.0992360  65.7783310
  49.7883690  49.8149590  63.7181950  49.7272090  48.8710810  63.5712970
  50.5675720  49.9229680  64.2635410  34.0936440  65.9541950  62.6805900
  33.9258480  65.3212630  63.3787790  33.2270950  66.1601350  62.3300090
  34.7164460  49.7858730  60.1837760  35.4743820  49.8987610  59.6101790
  34.2541630  50.6227930  60.1381190  41.2578270  51.8998000  63.1740070
  40.4452780  51.5254890  62.8335950  41.7619910  51.1443080  63.4761260
  45.7603250  48.5640450  64.4123140  46.3632620  49.1360660  64.8871660
  45.0196240  49.1279890  64.1897040  48.9037850  48.9662010  59.6863420
  49.0988480  49.8645460  59.9530850  48.1167720  48.7349090  60.1796370
  35.6999140  64.6475180  60.1256040  35.1746760  65.0283210  59.4218000
  35.6243720  65.2725950  60.8465750  37.0889610  50.3122780  58.7239730
  37.6182370  49.5252580  58.5947680  37.7217930  50.9913970  58.9575260
  39.2827450  50.0497920  61.7785120  38.6530190  49.3485230  61.9455250
  38.7432590  50.8102050  61.5618280  42.2219400  66.6637150  74.4495730
  43.1486710  66.4281420  74.4931690  42.2069830  67.4909150  73.9681760
  39.4083010  49.3281900  74.2137610  39.1267280  49.8315500  73.4498430
  39.7902710  48.5303650  73.8479740  38.2992110  66.5957560  59.0005290
  39.0310930  66.3116840  58.4529180  38.5585780  66.3570840  59.8904670
  37.4606900  62.7122290  59.0051620  36.8315780  63.1807390  59.5537450
  37.5754730  61.8671510  59.4397810  46.0098470  48.7435480  74.7918080
  45.8963920  49.0630090  75.6869600  46.8268210  49.1447990  74.4955360
  44.9156620  56.7627950  45.1552820  44.8350670  55.8482560  44.8844530
  44.5021040  57.2595020  44.4492530  43.0474660  58.5406970  47.0362090
  42.2716760  58.0607410  47.3260660  43.6987590  57.8612620  46.8618250
  37.0640490  58.8526780  47.9137850  36.2325370  58.5975490  48.3134360
  37.6721470  58.9237550  48.6495770  47.0682090  62.9467160  45.8161220
  46.6063620  62.1754400  46.1448390  47.8807640  62.9733230  46.3213670
  37.0441750  62.8866870  48.1095870  37.3469790  61.9964610  47.9306090
  37.7885340  63.4437090  47.8818120  35.4732440  53.8128670  41.6980240
  34.5849140  54.1544640  41.5960120  35.7573630  53.6128990  40.8061070
  33.4365450  56.4134320  47.5819940  34.0081560  55.6456520  47.5823580
  33.4366990  56.7123080  46.6726550  43.2945400  65.2325170  45.4365210
  42.6756840  65.6882670  44.8659650  44.1497180  65.3876630  45.0354910
  42.4883650  61.2164160  47.0432250  42.4191930  60.2754100  46.8821380
  43.2503510  61.3065570  47.6154820  34.6790320  51.8218680  49.3688870
  34.4993160  50.9244430  49.6491630  34.2770400  52.3690550  50.0435820
  43.5188820  54.0234540  47.2701180  43.8953640  53.1506420  47.1574850
  43.4208330  54.3593240  46.3791620  37.6493830  52.3960170  42.7318620
  37.7560580  53.2963900  43.0387380  36.7386190  52.3478140  42.4413270
  47.3012940  51.5184980  44.2029520  48.1222560  51.0281550  44.2455000
  47.3347020  52.1082640  44.9561360  35.2976990  54.3179180  47.9771210
  35.9787100  54.5817550  48.5958610  34.9825040  53.4780050  48.3109220
  39.4901560  55.3646540  47.0643800  39.9979780  55.8627510  47.7048820
  40.0214800  54.5881740  46.8883160  51.5912490  53.5351730  50.7673150
  50.8864660  53.9233440  50.2488260  51.8570410  54.2302020  51.3694080
  37.7737660  50.0045100  51.3307220  37.7756100  50.5217490  50.5253120
  36.9441970  49.5275280  51.3077150  44.1608750  60.1164410  42.8297120
  43.5426020  60.5813860  42.2659840  44.6732000  60.8091890  43.2466630
  39.0240510  59.6440280  49.5080720  38.6909890  60.2709200  50.1501790
  39.2007190  60.1702160  48.7282390  47.5374420  53.4585360  46.9757060
  46.8329990  53.7470250  47.5560170  47.8986580  54.2685470  46.6156620
  37.4552990  51.7155060  49.3377670  37.7969800  52.5597110  49.0431540
  36.5168800  51.8638800  49.4543010  38.2359610  61.6121080  51.3229900
  38.8533610  62.2872160  51.0414350  37.3752730  62.0209060  51.2317400
  33.5291950  60.8020940  40.2036750  33.1519930  61.2908040  39.4721650
  33.7865020  61.4746220  40.8343280  49.1537200  63.0760490  49.2384540
  48.4700720  63.7459600  49.2301210  49.6931490  63.2741140  48.4729400
  50.6061340  52.9040150  47.3666270  49.6586250  52.9379130  47.4981700
  50.9311330  53.7179100  47.7515630  41.1380880  49.2037330  45.6622260
  41.4455860  48.6484220  44.9457760  40.2081580  49.3381790  45.4795250
  46.6895940  64.9204620  47.9529720  46.7023100  64.5166910  47.0851980
  46.1371160  65.6951910  47.8491150  47.9841360  61.6420840  43.0419890
  47.8737690  60.6995170  43.1669310  47.9809610  62.0036480  43.9282650
  46.0881380  59.8234460  49.2812330  46.5050170  59.6094570  48.4465790
  46.8121200  60.0807250  49.8520950  43.5261640  57.2686160  42.3982380
  42.5990920  57.2023540  42.6270850  43.6786460  58.2066290  42.2837620
  43.5130720  53.5403160  39.3949540  42.5734390  53.7017120  39.4802000
  43.8313980  54.2588840  38.8485530  50.0343480  58.2221680  49.3728570
  49.2062110  58.2914770  48.8978700  50.6293960  58.8075990  48.9044400
  47.5558930  58.8306460  42.9017630  46.9371350  58.4926010  42.2543930
  47.5383380  58.1866220  43.6096820  46.9985490  55.0091000  50.3183440
  46.5856670  55.8344710  50.5723430  46.2661440  54.4236040  50.1259800
  39.1318280  57.7950900  45.1802110  38.7275280  57.0828150  44.6848010
  39.2181400  57.4504140  46.0690150  39.5999980  61.4818460  47.3441320
  39.3028270  60.8763930  46.6649100  40.5499800  61.5195770  47.2330680
  37.8446900  54.5694110  48.9601150  38.3961490  54.6789450  48.1854400
  38.3590410  54.9431710  49.6756380  38.6918410  61.2200150  53.9949120
  37.7946940  61.4440120  54.2422520  38.7171280  61.3435090  53.0460520
  45.7323630  58.0693270  39.9090380  46.1716910  57.2315700  39.7628200
  46.4452050  58.7022670  39.9954520  37.5189630  58.0913470  52.5706490
  37.3797400  58.9636270  52.9393890  36.6370990  57.7486280  52.4254430
  43.8419010  63.0089340  43.8771620  44.2814920  63.7513670  43.4627010
  43.7805900  63.2515910  44.8010580  39.3169980  64.0335170  54.7791640
  39.2885410  64.4378120  53.9120070  39.1534950  63.1045530  54.6163240
  49.3140770  49.3236080  38.2231420  49.0013430  49.4162910  39.1230490
  50.0753240  49.9017110  38.1728850  35.8322910  56.6895880  42.6808760
  35.7120510  57.4157970  42.0690030  35.5223800  55.9198790  42.2036670
  33.4708280  59.8611020  48.4877400  33.5488700  59.9959790  47.5433120
  34.0849960  59.1526910  48.6805520  34.7155910  61.5611210  44.8983580
  34.3083990  61.7025800  44.0437180  35.6068920  61.2771370  44.6954790
  44.5334790  65.7103120  51.8050630  45.0479460  65.6211130  52.6073060
  43.6903870  66.0562820  52.0978540  46.5089190  65.9958460  41.2334630
  46.3490330  65.7061400  42.1316460  46.3435900  65.2198590  40.6979860
  38.9877570  65.7756990  43.0106250  38.8120050  64.8592530  42.7974050
  38.1333310  66.1344280  43.2504050  46.2115320  63.5046020  39.7932630
  45.5180480  63.5023310  39.1334910  46.9538180  63.0805340  39.3626800
  45.7765250  65.1308730  43.8681120  46.2322200  64.3498110  44.1819740
  46.1157770  65.8415550  44.4122300  33.5267800  60.9025190  51.0271860
  33.6898840  60.4330550  50.2091230  33.9920250  60.3948750  51.6920700
  38.2986570  50.0330950  46.0632430  37.8554720  50.8140490  45.7316950
  38.8571560  50.3560840  46.7703370  42.5856380  52.8999470  51.6667750
  42.1235750  53.1082490  52.4787690  42.1834490  52.0858820  51.3638420
  47.5860890  54.1208420  52.7964410  46.7354480  53.8214170  53.1173480
  47.4262680  54.3650430  51.8848230  44.6810600  55.6210170  54.8963200
  45.0064010  54.7873920  54.5565430  45.4690930  56.1438690  55.0441530
  41.4145390  49.6541650  40.9438260  40.7899570  49.6501520  41.6691570
  41.3275510  48.7872610  40.5474230  40.3362470  50.5778280  47.9222030
  40.6334800  51.4841110  47.8414050  40.8848030  50.0897060  47.3081600
  38.0900790  55.1564520  43.7913680  37.8641710  54.9401690  44.6960300
  37.3093320  55.5892980  43.4459650  45.3198550  55.1627890  42.3904330
  44.7207440  55.8863690  42.2067950  45.8678160  55.1004670  41.6080780
  40.5300000  56.0550100  54.4573950  40.4343600  55.1144830  54.3074350
  41.3731980  56.2765170  54.0622020  43.9263420  53.7991430  44.4207610
  44.3192990  54.1163630  43.6076300  44.2880270  52.9203310  44.5352130
  35.6610540  52.4663770  52.6107730  35.2673930  53.3138980  52.8180510
  34.9728940  51.8290140  52.8016370  42.2355590  52.5498740  55.6804470
  41.5453910  52.3570940  56.3150560  42.9787890  52.8333380  56.2128770
  32.9627590  50.3892230  46.6437810  32.6740640  50.9595090  47.3562790
  33.7073350  49.9096680  47.0069040  33.1497820  54.3312350  37.8540530
  33.0672490  55.2743110  37.9955520  32.7980880  54.1887260  36.9752880
  44.5118560  56.3897180  48.5158390  43.7799680  56.8983990  48.8648490
  44.1142900  55.5727160  48.2147170  40.9495950  53.0651380  46.9210880
  40.9532010  52.6241330  46.0715420  41.8447070  53.3868710  47.0282700
  36.7998330  52.9477870  45.8805090  36.4598380  53.4253100  46.6372140
  36.0375650  52.4942990  45.5206190  41.0116100  54.0663460  39.9117640
  41.1328920  54.0249940  40.8603460  40.6264610  54.9287610  39.7564370
  44.9744470  51.8430860  47.9281330  44.9917210  52.2939510  48.7723180
  44.7260050  50.9436500  48.1414770  40.0237600  56.3764600  39.3100940
  39.4554500  55.9282850  38.6836850  40.7326600  56.7357380  38.7766090
  48.4015220  49.2563040  53.7667710  48.7260990  48.5252700  54.2925690
  48.4371730  48.9376680  52.8648700  35.1006780  60.2776620  53.1867670
  34.7161570  59.6370290  53.7850630  35.4118970  60.9812740  53.7562400
  41.2503920  57.1253160  48.6676290  41.6174050  56.6511730  49.4137630
  41.0608980  57.9994730  49.0084630  34.1144410  51.8696850  44.7969760
  33.8291330  51.5052520  45.6348380  34.0523270  51.1377310  44.1832900
  39.0403290  56.1661800  50.9860500  38.7360360  57.0453780  51.2110860
  39.9949750  56.2261590  51.0217940  37.5685080  60.3722790  41.5827350
  36.7947340  59.8320410  41.4226070  38.2979710  59.8529400  41.2445110
  48.3273060  59.3688150  47.3753740  49.0472180  59.8643440  46.9849850
  48.1254880  58.6906040  46.7307610  43.7883000  50.7626110  41.5183130
  42.9747610  50.2639280  41.4428440  43.5944950  51.6024360  41.1019480
  43.7091860  59.4397210  53.2622740  43.6429170  58.5192880  53.0080330
  43.0797000  59.5372650  53.9767380  46.5031390  55.1345760  39.8145290
  47.3911010  55.4462990  39.6396630  46.4736480  54.2618010  39.4225870
  37.6122480  60.0403170  45.2206160  38.1301150  59.2371430  45.1663050
  37.1606500  59.9782310  46.0622990  42.4991980  61.3069450  40.4933460
  42.8407680  62.0511680  39.9976780  41.6704690  61.6200570  40.8558290
  35.0967020  57.0064540  52.1331860  34.7381960  57.6718390  52.7205200
  34.8021580  56.1748090  52.5044480  38.2980140  57.4648780  55.0171410
  37.9980280  57.6105960  54.1199230  39.0691380  56.9054070  54.9244800
  43.6408590  62.2617780  53.0126540  43.6553130  61.3298740  52.7945450
  42.9333690  62.3477540  53.6516310  48.7745660  56.4457600  39.2825150
  48.6909380  56.8771820  38.4321590  49.4939850  56.9055950  39.7151970
  49.8519800  58.9025120  52.3595120  49.1267990  59.4953900  52.1624510
  50.3795260  58.8948660  51.5608490  49.8032910  63.2999860  42.0107280
  49.1609070  62.6455480  42.2851000  49.4163570  63.7054950  41.2347950
  45.3819390  60.6285290  45.8578970  45.7343210  60.0313420  45.1980340
  44.4981720  60.3029520  46.0287220  41.4682670  61.3882980  43.2649380
  42.1553800  61.9352190  43.6456970  40.6815090  61.9323710  43.2998990
  33.6075070  57.0055800  38.7566460  34.4769920  57.2880600  39.0402380
  33.1165390  57.8191670  38.6415270  40.7709880  58.3929010  42.8774740
  41.2272660  59.2034260  43.1034930  40.4198090  58.0752150  43.7093230
  43.0742490  63.9035350  50.1067040  43.7184710  64.1094730  50.7840460
  43.4371930  63.1423750  49.6537890  36.6721660  48.7366660  43.3497260
  36.5436290  48.7284560  44.2982180  35.8483680  49.0749750  42.9988270
  44.3474570  61.9067700  48.8244490  44.9896800  61.2060860  48.9376660
  44.8723920  62.6866140  48.6441380  48.1930290  62.1916320  38.5483630
  47.9667870  61.4746760  39.1408270  47.8026490  61.9428760  37.7105380
  46.1212190  62.7062600  52.0280550  46.4568430  63.2929290  52.7058470
  45.2012530  62.5755310  52.2578340  33.9746320  66.2183180  39.3228090
  34.3343960  66.8172520  38.6685360  33.8338660  66.7643070  40.0963120
  33.6715590  50.4957780  52.8103960  32.9574110  50.6954700  53.4156570
  34.0910630  49.7197350  53.1818760  47.7746540  60.1088260  40.2097790
  47.4868240  60.5700950  40.9975670  48.5698710  59.6486030  40.4782010
  33.9588180  64.4838040  53.7970490  34.0679300  63.5432780  53.6565880
  33.3068740  64.7492790  53.1484220  41.9500770  62.7553930  55.1968610
  41.6297640  62.0363170  55.7414300  41.2759130  63.4309000  55.2704670
  39.9914940  63.6014380  40.1401760  39.9825040  64.3344070  39.5246270
  39.0713300  63.3545960  40.2328720  35.5921580  58.8229270  40.8848520
  34.9849530  59.5628170  40.8943820  36.0670930  58.9128630  40.0586720
  45.1654370  52.9880090  50.5605410  45.5335190  52.1675300  50.8884980
  44.3052570  53.0481980  50.9761060  48.5316400  51.9437030  41.3692970
  47.9029560  52.0482700  40.6551200  48.0368320  52.1633810  42.1586850
  42.9774540  63.6642620  38.8026950  43.0786520  63.4606610  37.8728930
  42.0776280  63.4100900  39.0074730  40.5000430  54.2222980  42.7850850
  39.7916580  54.6909320  43.2264460  40.7844910  53.5644990  43.4196040
  42.1256360  55.6419680  50.7843380  42.6241610  56.1165500  51.4495230
  42.2679310  54.7183200  50.9913410  44.5315860  50.9473640  44.2246640
  44.4083640  50.9659770  43.2756150  45.4800420  50.9952580  44.3445040
  41.6192650  66.1828940  43.4974620  41.8734150  66.1450330  42.5753990
  40.6705130  66.0562270  43.4902870  38.7035450  52.5308060  40.1601560
  39.5525980  52.9678210  40.0941750  38.3366720  52.8428320  40.9873620
  49.3323220  51.8587640  51.6271770  48.8296820  52.5993040  51.9665580
  50.1479880  52.2471640  51.3108560  47.6245230  57.1020820  45.0733130
  46.6835370  57.1171050  45.2480820  47.9389300  56.3156780  45.5193430
  37.6026870  58.7840420  38.6337090  38.3690140  58.6721780  39.1962520
  37.6801560  58.0878390  37.9813860  36.2973630  56.2165490  39.3169980
  36.3777220  55.2693000  39.4287380  37.1893380  56.5472370  39.4230640
  49.6270810  64.2729670  46.7487390  49.7518230  65.0960840  47.2211200
  50.4936370  64.0620400  46.4011540  37.0988340  66.3660880  46.4204520
  37.8350820  65.8176340  46.6913090  37.4829260  67.2316890  46.2810510
  33.9833820  62.4334450  42.2946030  33.0573600  62.6755590  42.2851440
  34.4490250  63.2608710  42.1730780  36.1046620  65.5506950  55.6090100
  36.9059350  65.8719000  56.0225500  35.5898440  65.1902530  56.3310010
  40.2090650  65.5391190  38.2430090  41.0019260  65.8280020  37.7911880
  39.6895000  65.1083360  37.5642570  44.9411250  61.6586820  55.5565510
  44.3349410  61.6818420  54.8161260  44.6365360  60.9269860  56.0932760
  46.3711620  65.3867110  54.1674920  47.3233370  65.3025130  54.1175160
  46.2239840  66.0508820  54.8408710  33.8244430  58.0380410  54.5526150
  34.3283450  57.4587690  55.1242380  33.0851850  58.3220640  55.0902520
  40.7268050  60.7594600  38.1072440  40.6218690  60.1446950  38.8333820
  40.5592270  60.2360490  37.3235450  40.8782370  59.4451400  54.0861670
  40.1128040  60.0136400  54.0016340  41.0598330  59.1527610  53.1929900
  43.9670780  59.8214630  38.7114430  43.4180880  60.2683930  39.3557170
  44.5890040  59.3163880  39.2352100  48.0205720  61.1756730  54.6436690
  48.7615190  61.5132490  54.1404150  47.2578400  61.3448790  54.0906460
  35.8567510  56.1810000  55.4476220  35.8972850  55.8823870  56.3561450
  36.7113010  56.5817610  55.2883740  39.6345900  58.7805550  40.6079730
  40.0562320  58.6145420  41.4511120  39.7596740  57.9705780  40.1134870
  37.7973320  54.7602100  53.4150710  37.2669780  54.2693050  52.7874050
  38.4661390  55.1886300  52.8808640  42.1473540  57.8043160  37.8556830
  42.6679200  57.0892180  37.4897980  42.7941940  58.4429030  38.1557340
  46.6951380  59.2271560  53.1791900  47.1092400  59.3816640  54.0282320
  45.7602380  59.3526780  53.3417680  47.1673550  56.5667720  55.1831050
  47.7494320  55.8120040  55.0951530  47.3435320  57.0975160  54.4062530
  38.2845620  51.7264470  53.4948000  38.1902490  51.1085220  52.7698870
  37.7043010  52.4530760  53.2677910  41.0507060  50.2837710  50.5275390
  40.6024360  50.3061970  49.6820940  40.4172260  49.8856730  51.1245690
  41.4566610  59.1792040  51.1487830  41.8754720  60.0224770  50.9764070
  40.5375240  59.3164080  50.9194610  43.7930510  56.9108220  52.5325670
  43.9126720  56.3149360  53.2720510  44.6524510  56.9477910  52.1126970
  46.1318410  57.4645410  51.1088180  45.6053630  57.9888030  50.5053320
  46.4749750  58.0972800  51.7397910  38.5304800  54.8538780  37.5537890
  38.3293860  53.9906140  37.9151230  38.3596850  54.7672140  36.6159490
  39.3074030  65.4845050  52.2645560  38.7695120  66.2091110  51.9454260
  39.5607990  65.0075390  51.4742900  40.5599280  53.4529570  53.7901490
  41.1498970  53.1445420  54.4779310  39.7419520  52.9809320  53.9461390
  45.3792710  53.0695380  54.0234510  44.6908230  52.4076920  53.9584500
  46.0998730  52.6233650  54.4682970  46.0093110  49.6647010  40.0824770
  46.2895400  48.8214910  40.4384190  45.2358840  49.8970120  40.5963520
  37.3287600  51.9539400  37.5415770  37.6313500  51.9606830  36.6334920
  38.0682190  51.6037260  38.0383430  42.1636240  66.7196260  52.5232210
  42.0894940  67.6231400  52.8304580  41.2615080  66.4008160  52.4954280
  40.5472530  50.8974020  38.5271970  40.1994530  50.2198010  37.9474420
  40.7485300  50.4363530  39.3415360  42.7121570  65.8854770  40.1458570
  43.6072360  66.2239740  40.1677330  42.7439200  65.1634180  39.5182850
  36.3517730  61.2581820  38.3745570  36.7892600  61.8011490  39.0303150
  36.8365460  60.4328770  38.3841910  33.5663530  64.0470850  45.8265830
  33.8966540  63.1791910  45.5944470  33.9954530  64.2529370  46.6570790
  38.1625450  62.3779860  43.4867800  37.8620990  62.2544830  44.3871710
  38.0562940  61.5188450  43.0783530  34.0553740  64.9141440  48.5647460
  33.6184730  65.0942240  49.3971610  34.6231420  65.6716060  48.4229180
  50.9317370  62.1576260  38.1894480  50.1010330  62.2252910  38.6601710
  51.1089200  63.0480380  37.8861340  50.3873830  58.9023740  40.6928680
  51.1492740  59.4720390  40.7988370  50.4028200  58.3350940  41.4636990
  33.8878170  57.4261670  44.9236340  33.2327010  57.1573310  44.2796040
  34.7256120  57.3166150  44.4738320  51.3933800  59.7573840  45.5370610
  51.7642630  58.9741160  45.1306580  52.0335730  60.4462940  45.3587910
  48.3767560  61.1410420  50.9500930  47.5627400  61.5707580  51.2126720
  48.7841760  61.7528830  50.3369980  50.4393000  59.1958110  37.8501200
  50.7141840  60.1036990  37.7220420  50.2503740  59.1320640  38.7863190
  46.8368610  52.2202960  39.1454830  47.2553490  52.0333940  38.3051490
  46.5304670  51.3682010  39.4557760  50.3358340  57.1327100  42.8430630
  49.9601940  56.3655030  42.4111920  49.6061460  57.5149800  43.3305560
  34.9254100  57.8114240  49.4639680  35.2927140  57.7241640  50.3435700
  34.3564920  57.0480790  49.3646540  49.7257960  56.2798620  52.4770150
  49.4944050  56.0511370  51.5768100  49.9862510  57.1998170  52.4315040
  34.4770100  54.7223330  53.3698100  33.5826150  54.6890090  53.7091810
  35.0167650  54.9210120  54.1349350  33.1016250  54.6360600  40.8661670
  32.1980330  54.8990800  40.6913330  33.5856870  54.9071770  40.0861630
  49.6109300  55.3584590  46.1437870  50.1346780  54.8647240  45.5128040
  50.1968720  55.4934950  46.8885440  49.7899020  55.4424460  49.6657420
  48.8401730  55.4088000  49.7802410  49.9712030  56.3524570  49.4307190
  35.6443460  53.6926140  38.7756050  36.3535160  53.2709360  38.2903330
  34.9283400  53.7601370  38.1439400  35.2917620  49.7465470  37.8158700
  36.0145750  50.2874410  38.1339920  35.5642140  49.4728890  36.9400240
  49.1009270  54.6157940  42.0830280  49.5968390  54.3828810  42.8679160
  48.9025340  53.7769780  41.6667920  34.9809810  48.9971660  47.7181320
  35.6286000  48.4469040  47.2776480  35.4011650  49.2514810  48.5397130
  50.5296430  53.2518890  44.6167960  50.4195710  53.0974930  45.5550230
  51.2904020  52.7239830  44.3743370  48.8762150  49.1913020  51.0750960
  49.5134370  49.8047160  51.4410150  49.0237040  49.2273680  50.1300190
  51.4186700  51.0826810  37.8574100  52.3436010  50.9507990  37.6492390
  51.3962490  51.1619630  38.8110550  51.4925190  51.8537470  40.4830810
  50.6976690  51.7882590  41.0123720  51.6968470  52.7888110  40.4716160
  48.4343610  65.8929020  44.4769200  49.0302680  65.5713590  43.8003620
  48.6921760  65.4200840  45.2682470  34.7341810  49.1527330  50.4606640
  34.3856630  49.6091150  51.2264820  34.4029510  48.2584460  50.5429070
  36.3406180  62.3246930  54.6259830  36.2975810  61.9539840  55.5074290
  36.4717190  63.2624500  54.7661650  40.0412210  63.8806520  50.2269550
  39.8003570  64.1481080  49.3400070  40.9814850  64.0512250  50.2820410
  42.2466630  50.3439210  53.9826060  42.1855520  50.9361040  54.7321470
  43.1867010  50.2365170  53.8376320  44.8841190  50.0009270  53.6218350
  45.4981600  50.3188560  52.9599430  45.4290750  49.5157860  54.2414210
  35.4062450  48.6803530  53.7357410  35.9545440  48.4991580  52.9723520
  35.4717760  47.8897640  54.2713720  36.1794210  65.2709180  51.7457610
  35.5854530  65.1393880  52.4847650  36.1718050  64.4347320  51.2799710
  45.6249230  48.5641410  49.9487640  44.7509070  48.8976520  49.7460570
  45.5159980  48.0914590  50.7739510  46.5321210  50.7712280  51.3329360
  46.2034570  49.9564040  50.9531090  47.4803510  50.7282090  51.2095050
  35.8106440  62.6367560  50.6965650  35.0840500  62.0172850  50.6291600
  35.8715590  63.0308170  49.8263730  39.4151540  64.8512560  47.4815060
  39.9316560  64.2399920  46.9563320  40.0648920  65.3541340  47.9726070
  42.1547040  65.7421050  48.3084040  42.4424850  65.4875350  47.4317050
  42.6670260  65.1898410  48.8989610  43.3724050  49.4811250  48.8880550
  42.5895840  49.9556750  49.1677310  43.0786980  48.5766080  48.7793730
  47.9245120  50.1834350  46.9329640  48.3653210  50.1279450  46.0851240
  47.6552710  51.0992360  47.0039820  49.7883690  49.8149590  44.9438460
  49.7272090  48.8710810  44.7969480  50.5675720  49.9229680  45.4891920
  34.0936440  65.9541950  43.9062410  33.9258480  65.3212630  44.6044300
  33.2270950  66.1601350  43.5556600  34.7164460  49.7858730  41.4094270
  35.4743820  49.8987610  40.8358300  34.2541630  50.6227930  41.3637700
  41.2578270  51.8998000  44.3996580  40.4452780  51.5254890  44.0592460
  41.7619910  51.1443080  44.7017770  45.7603250  48.5640450  45.6379650
  46.3632620  49.1360660  46.1128170  45.0196240  49.1279890  45.4153550
  48.9037850  48.9662010  40.9119930  49.0988480  49.8645460  41.1787360
  48.1167720  48.7349090  41.4052880  35.6999140  64.6475180  41.3512550
  35.1746760  65.0283210  40.6474510  35.6243720  65.2725950  42.0722260
  37.0889610  50.3122780  39.9496240  37.6182370  49.5252580  39.8204190
  37.7217930  50.9913970  40.1831770  39.2827450  50.0497920  43.0041630
  38.6530190  49.3485230  43.1711760  38.7432590  50.8102050  42.7874790
  42.2219400  66.6637150  55.6752240  43.1486710  66.4281420  55.7188200
  42.2069830  67.4909150  55.1938270  39.4083010  49.3281900  55.4394120
  39.1267280  49.8315500  54.6754940  39.7902710  48.5303650  55.0736250
  38.2992110  66.5957560  40.2261800  39.0310930  66.3116840  39.6785690
  38.5585780  66.3570840  41.1161180  37.4606900  62.7122290  40.2308130
  36.8315780  63.1807390  40.7793960  37.5754730  61.8671510  40.6654320
  46.0098470  48.7435480  56.0174590  45.8963920  49.0630090  56.9126110
  46.8268210  49.1447990  55.7211870  44.9156620  56.7627950  26.3809330
  44.8350670  55.8482560  26.1101040  44.5021040  57.2595020  25.6749040
  43.0474660  58.5406970  28.2618600  42.2716760  58.0607410  28.5517170
  43.6987590  57.8612620  28.0874760  37.0640490  58.8526780  29.1394360
  36.2325370  58.5975490  29.5390870  37.6721470  58.9237550  29.8752280
  47.0682090  62.9467160  27.0417730  46.6063620  62.1754400  27.3704900
  47.8807640  62.9733230  27.5470180  37.0441750  62.8866870  29.3352380
  37.3469790  61.9964610  29.1562600  37.7885340  63.4437090  29.1074630
  35.4732440  53.8128670  22.9236750  34.5849140  54.1544640  22.8216630
  35.7573630  53.6128990  22.0317580  33.4365450  56.4134320  28.8076450
  34.0081560  55.6456520  28.8080090  33.4366990  56.7123080  27.8983060
  43.2945400  65.2325170  26.6621720  42.6756840  65.6882670  26.0916160
  44.1497180  65.3876630  26.2611420  42.4883650  61.2164160  28.2688760
  42.4191930  60.2754100  28.1077890  43.2503510  61.3065570  28.8411330
  34.6790320  51.8218680  30.5945380  34.4993160  50.9244430  30.8748140
  34.2770400  52.3690550  31.2692330  43.5188820  54.0234540  28.4957690
  43.8953640  53.1506420  28.3831360  43.4208330  54.3593240  27.6048130
  37.6493830  52.3960170  23.9575130  37.7560580  53.2963900  24.2643890
  36.7386190  52.3478140  23.6669780  47.3012940  51.5184980  25.4286030
  48.1222560  51.0281550  25.4711510  47.3347020  52.1082640  26.1817870
  35.2976990  54.3179180  29.2027720  35.9787100  54.5817550  29.8215120
  34.9825040  53.4780050  29.5365730  39.4901560  55.3646540  28.2900310
  39.9979780  55.8627510  28.9305330  40.0214800  54.5881740  28.1139670
  51.5912490  53.5351730  31.9929660  50.8864660  53.9233440  31.4744770
  51.8570410  54.2302020  32.5950590  37.7737660  50.0045100  32.5563730
  37.7756100  50.5217490  31.7509630  36.9441970  49.5275280  32.5333660
  44.1608750  60.1164410  24.0553630  43.5426020  60.5813860  23.4916350
  44.6732000  60.8091890  24.4723140  39.0240510  59.6440280  30.7337230
  38.6909890  60.2709200  31.3758300  39.2007190  60.1702160  29.9538900
  47.5374420  53.4585360  28.2013570  46.8329990  53.7470250  28.7816680
  47.8986580  54.2685470  27.8413130  37.4552990  51.7155060  30.5634180
  37.7969800  52.5597110  30.2688050  36.5168800  51.8638800  30.6799520
  38.2359610  61.6121080  32.5486410  38.8533610  62.2872160  32.2670860
  37.3752730  62.0209060  32.4573910  33.5291950  60.8020940  21.4293260
  33.1519930  61.2908040  20.6978160  33.7865020  61.4746220  22.0599790
  49.1537200  63.0760490  30.4641050  48.4700720  63.7459600  30.4557720
  49.6931490  63.2741140  29.6985910  50.6061340  52.9040150  28.5922780
  49.6586250  52.9379130  28.7238210  50.9311330  53.7179100  28.9772140
  41.1380880  49.2037330  26.8878770  41.4455860  48.6484220  26.1714270
  40.2081580  49.3381790  26.7051760  46.6895940  64.9204620  29.1786230
  46.7023100  64.5166910  28.3108490  46.1371160  65.6951910  29.0747660
  47.9841360  61.6420840  24.2676400  47.8737690  60.6995170  24.3925820
  47.9809610  62.0036480  25.1539160  46.0881380  59.8234460  30.5068840
  46.5050170  59.6094570  29.6722300  46.8121200  60.0807250  31.0777460
  43.5261640  57.2686160  23.6238890  42.5990920  57.2023540  23.8527360
  43.6786460  58.2066290  23.5094130  43.5130720  53.5403160  20.6206050
  42.5734390  53.7017120  20.7058510  43.8313980  54.2588840  20.0742040
  50.0343480  58.2221680  30.5985080  49.2062110  58.2914770  30.1235210
  50.6293960  58.8075990  30.1300910  47.5558930  58.8306460  24.1274140
  46.9371350  58.4926010  23.4800440  47.5383380  58.1866220  24.8353330
  46.9985490  55.0091000  31.5439950  46.5856670  55.8344710  31.7979940
  46.2661440  54.4236040  31.3516310  39.1318280  57.7950900  26.4058620
  38.7275280  57.0828150  25.9104520  39.2181400  57.4504140  27.2946660
  39.5999980  61.4818460  28.5697830  39.3028270  60.8763930  27.8905610
  40.5499800  61.5195770  28.4587190  37.8446900  54.5694110  30.1857660
  38.3961490  54.6789450  29.4110910  38.3590410  54.9431710  30.9012890
  47.6885590  65.0550330  32.2320930  47.2116150  65.8622520  32.0393540
  47.0047380  64.4028660  32.3847140  38.6918410  61.2200150  35.2205630
  37.7946940  61.4440120  35.4679030  38.7171280  61.3435090  34.2717030
  45.7323630  58.0693270  21.1346890  46.1716910  57.2315700  20.9884710
  46.4452050  58.7022670  21.2211030  37.5189630  58.0913470  33.7963000
  37.3797400  58.9636270  34.1650400  36.6370990  57.7486280  33.6510940
  43.8419010  63.0089340  25.1028130  44.2814920  63.7513670  24.6883520
  43.7805900  63.2515910  26.0267090  39.3169980  64.0335170  36.0048150
  39.2885410  64.4378120  35.1376580  39.1534950  63.1045530  35.8419750
  49.3140770  49.3236080  19.4487930  49.0013430  49.4162910  20.3487000
  50.0753240  49.9017110  19.3985360  35.8322910  56.6895880  23.9065270
  35.7120510  57.4157970  23.2946540  35.5223800  55.9198790  23.4293180
  33.4708280  59.8611020  29.7133910  33.5488700  59.9959790  28.7689630
  34.0849960  59.1526910  29.9062030  34.7155910  61.5611210  26.1240090
  34.3083990  61.7025800  25.2693690  35.6068920  61.2771370  25.9211300
  50.6718050  62.0075120  34.4612330  50.7981110  61.7687000  33.5429510
  50.7139430  61.1759660  34.9334410  44.5334790  65.7103120  33.0307140
  45.0479460  65.6211130  33.8329570  43.6903870  66.0562820  33.3235050
  46.5089190  65.9958460  22.4591140  46.3490330  65.7061400  23.3572970
  46.3435900  65.2198590  21.9236370  38.9877570  65.7756990  24.2362760
  38.8120050  64.8592530  24.0230560  38.1333310  66.1344280  24.4760560
  46.2115320  63.5046020  21.0189140  45.5180480  63.5023310  20.3591420
  46.9538180  63.0805340  20.5883310  45.7765250  65.1308730  25.0937630
  46.2322200  64.3498110  25.4076250  46.1157770  65.8415550  25.6378810
  50.5242060  54.0607580  35.4262070  49.9086330  54.5687250  34.8977530
  50.2038480  53.1605910  35.3688010  33.5267800  60.9025190  32.2528370
  33.6898840  60.4330550  31.4347740  33.9920250  60.3948750  32.9177210
  38.2986570  50.0330950  27.2888940  37.8554720  50.8140490  26.9573460
  38.8571560  50.3560840  27.9959880  42.5856380  52.8999470  32.8924260
  42.1235750  53.1082490  33.7044200  42.1834490  52.0858820  32.5894930
  47.5860890  54.1208420  34.0220920  46.7354480  53.8214170  34.3429990
  47.4262680  54.3650430  33.1104740  44.6810600  55.6210170  36.1219710
  45.0064010  54.7873920  35.7821940  45.4690930  56.1438690  36.2698040
  41.4145390  49.6541650  22.1694770  40.7899570  49.6501520  22.8948080
  41.3275510  48.7872610  21.7730740  40.3362470  50.5778280  29.1478540
  40.6334800  51.4841110  29.0670560  40.8848030  50.0897060  28.5338110
  38.0900790  55.1564520  25.0170190  37.8641710  54.9401690  25.9216810
  37.3093320  55.5892980  24.6716160  45.3198550  55.1627890  23.6160840
  44.7207440  55.8863690  23.4324460  45.8678160  55.1004670  22.8337290
  40.5300000  56.0550100  35.6830460  40.4343600  55.1144830  35.5330860
  41.3731980  56.2765170  35.2878530  43.9263420  53.7991430  25.6464120
  44.3192990  54.1163630  24.8332810  44.2880270  52.9203310  25.7608640
  35.6610540  52.4663770  33.8364240  35.2673930  53.3138980  34.0437020
  34.9728940  51.8290140  34.0272880  42.2355590  52.5498740  36.9060980
  41.5453910  52.3570940  37.5407070  42.9787890  52.8333380  37.4385280
  32.9627590  50.3892230  27.8694320  32.6740640  50.9595090  28.5819300
  33.7073350  49.9096680  28.2325550  33.1497820  54.3312350  19.0797040
  33.0672490  55.2743110  19.2212030  32.7980880  54.1887260  18.2009390
  44.5118560  56.3897180  29.7414900  43.7799680  56.8983990  30.0905000
  44.1142900  55.5727160  29.4403680  40.9495950  53.0651380  28.1467390
  40.9532010  52.6241330  27.2971930  41.8447070  53.3868710  28.2539210
  36.7998330  52.9477870  27.1061600  36.4598380  53.4253100  27.8628650
  36.0375650  52.4942990  26.7462700  41.0116100  54.0663460  21.1374150
  41.1328920  54.0249940  22.0859970  40.6264610  54.9287610  20.9820880
  44.9744470  51.8430860  29.1537840  44.9917210  52.2939510  29.9979690
  44.7260050  50.9436500  29.3671280  40.0237600  56.3764600  20.5357450
  39.4554500  55.9282850  19.9093360  40.7326600  56.7357380  20.0022600
  48.4015220  49.2563040  34.9924220  48.7260990  48.5252700  35.5182200
  48.4371730  48.9376680  34.0905210  35.1006780  60.2776620  34.4124180
  34.7161570  59.6370290  35.0107140  35.4118970  60.9812740  34.9818910
  41.2503920  57.1253160  29.8932800  41.6174050  56.6511730  30.6394140
  41.0608980  57.9994730  30.2341140  34.1144410  51.8696850  26.0226270
  33.8291330  51.5052520  26.8604890  34.0523270  51.1377310  25.4089410
  39.0403290  56.1661800  32.2117010  38.7360360  57.0453780  32.4367370
  39.9949750  56.2261590  32.2474450  37.5685080  60.3722790  22.8083860
  36.7947340  59.8320410  22.6482580  38.2979710  59.8529400  22.4701620
  48.3273060  59.3688150  28.6010250  49.0472180  59.8643440  28.2106360
  48.1254880  58.6906040  27.9564120  43.7883000  50.7626110  22.7439640
  42.9747610  50.2639280  22.6684950  43.5944950  51.6024360  22.3275990
  43.7091860  59.4397210  34.4879250  43.6429170  58.5192880  34.2336840
  43.0797000  59.5372650  35.2023890  46.5031390  55.1345760  21.0401800
  47.3911010  55.4462990  20.8653140  46.4736480  54.2618010  20.6482380
  37.6122480  60.0403170  26.4462670  38.1301150  59.2371430  26.3919560
  37.1606500  59.9782310  27.2879500  42.4991980  61.3069450  21.7189970
  42.8407680  62.0511680  21.2233290  41.6704690  61.6200570  22.0814800
  35.0967020  57.0064540  33.3588370  34.7381960  57.6718390  33.9461710
  34.8021580  56.1748090  33.7300990  38.2980140  57.4648780  36.2427920
  37.9980280  57.6105960  35.3455740  39.0691380  56.9054070  36.1501310
  43.6408590  62.2617780  34.2383050  43.6553130  61.3298740  34.0201960
  42.9333690  62.3477540  34.8772820  48.7745660  56.4457600  20.5081660
  48.6909380  56.8771820  19.6578100  49.4939850  56.9055950  20.9408480
  49.8519800  58.9025120  33.5851630  49.1267990  59.4953900  33.3881020
  50.3795260  58.8948660  32.7865000  49.8032910  63.2999860  23.2363790
  49.1609070  62.6455480  23.5107510  49.4163570  63.7054950  22.4604460
  45.3819390  60.6285290  27.0835480  45.7343210  60.0313420  26.4236850
  44.4981720  60.3029520  27.2543730  41.4682670  61.3882980  24.4905890
  42.1553800  61.9352190  24.8713480  40.6815090  61.9323710  24.5255500
  33.6075070  57.0055800  19.9822970  34.4769920  57.2880600  20.2658890
  33.1165390  57.8191670  19.8671780  40.7709880  58.3929010  24.1031250
  41.2272660  59.2034260  24.3291440  40.4198090  58.0752150  24.9349740
  43.0742490  63.9035350  31.3323550  43.7184710  64.1094730  32.0096970
  43.4371930  63.1423750  30.8794400  36.6721660  48.7366660  24.5753770
  36.5436290  48.7284560  25.5238690  35.8483680  49.0749750  24.2244780
  44.3474570  61.9067700  30.0501000  44.9896800  61.2060860  30.1633170
  44.8723920  62.6866140  29.8697890  48.1930290  62.1916320  19.7740140
  47.9667870  61.4746760  20.3664780  47.8026490  61.9428760  18.9361890
  46.1212190  62.7062600  33.2537060  46.4568430  63.2929290  33.9314980
  45.2012530  62.5755310  33.4834850  33.9746320  66.2183180  20.5484600
  34.3343960  66.8172520  19.8941870  33.8338660  66.7643070  21.3219630
  33.6715590  50.4957780  34.0360470  32.9574110  50.6954700  34.6413080
  34.0910630  49.7197350  34.4075270  47.7746540  60.1088260  21.4354300
  47.4868240  60.5700950  22.2232180  48.5698710  59.6486030  21.7038520
  33.9588180  64.4838040  35.0227000  34.0679300  63.5432780  34.8822390
  33.3068740  64.7492790  34.3740730  41.9500770  62.7553930  36.4225120
  41.6297640  62.0363170  36.9670810  41.2759130  63.4309000  36.4961180
  39.9914940  63.6014380  21.3658270  39.9825040  64.3344070  20.7502780
  39.0713300  63.3545960  21.4585230  35.5921580  58.8229270  22.1105030
  34.9849530  59.5628170  22.1200330  36.0670930  58.9128630  21.2843230
  45.1654370  52.9880090  31.7861920  45.5335190  52.1675300  32.1141490
  44.3052570  53.0481980  32.2017570  48.5316400  51.9437030  22.5949480
  47.9029560  52.0482700  21.8807710  48.0368320  52.1633810  23.3843360
  42.9774540  63.6642620  20.0283460  43.0786520  63.4606610  19.0985440
  42.0776280  63.4100900  20.2331240  40.5000430  54.2222980  24.0107360
  39.7916580  54.6909320  24.4520970  40.7844910  53.5644990  24.6452550
  42.1256360  55.6419680  32.0099890  42.6241610  56.1165500  32.6751740
  42.2679310  54.7183200  32.2169920  44.5315860  50.9473640  25.4503150
  44.4083640  50.9659770  24.5012660  45.4800420  50.9952580  25.5701550
  41.6192650  66.1828940  24.7231130  41.8734150  66.1450330  23.8010500
  40.6705130  66.0562270  24.7159380  38.7035450  52.5308060  21.3858070
  39.5525980  52.9678210  21.3198260  38.3366720  52.8428320  22.2130130
  49.3323220  51.8587640  32.8528280  48.8296820  52.5993040  33.1922090
  50.1479880  52.2471640  32.5365070  47.6245230  57.1020820  26.2989640
  46.6835370  57.1171050  26.4737330  47.9389300  56.3156780  26.7449940
  37.6026870  58.7840420  19.8593600  38.3690140  58.6721780  20.4219030
  37.6801560  58.0878390  19.2070370  36.2973630  56.2165490  20.5426490
  36.3777220  55.2693000  20.6543890  37.1893380  56.5472370  20.6487150
  49.6270810  64.2729670  27.9743900  49.7518230  65.0960840  28.4467710
  50.4936370  64.0620400  27.6268050  37.0988340  66.3660880  27.6461030
  37.8350820  65.8176340  27.9169600  37.4829260  67.2316890  27.5067020
  33.9833820  62.4334450  23.5202540  33.0573600  62.6755590  23.5107950
  34.4490250  63.2608710  23.3987290  36.1046620  65.5506950  36.8346610
  36.9059350  65.8719000  37.2482010  35.5898440  65.1902530  37.5566520
  40.2090650  65.5391190  19.4686600  41.0019260  65.8280020  19.0168390
  39.6895000  65.1083360  18.7899080  44.9411250  61.6586820  36.7822020
  44.3349410  61.6818420  36.0417770  44.6365360  60.9269860  37.3189270
  46.3711620  65.3867110  35.3931430  47.3233370  65.3025130  35.3431670
  46.2239840  66.0508820  36.0665220  49.2620820  64.7661320  20.8923340
  48.9762330  64.3526460  20.0777520  49.0640370  65.6949030  20.7723860
  33.8244430  58.0380410  35.7782660  34.3283450  57.4587690  36.3498890
  33.0851850  58.3220640  36.3159030  40.7268050  60.7594600  19.3328950
  40.6218690  60.1446950  20.0590330  40.5592270  60.2360490  18.5491960
  40.8782370  59.4451400  35.3118180  40.1128040  60.0136400  35.2272850
  41.0598330  59.1527610  34.4186410  43.9670780  59.8214630  19.9370940
  43.4180880  60.2683930  20.5813680  44.5890040  59.3163880  20.4608610
  48.0205720  61.1756730  35.8693200  48.7615190  61.5132490  35.3660660
  47.2578400  61.3448790  35.3162970  35.8567510  56.1810000  36.6732730
  35.8972850  55.8823870  37.5817960  36.7113010  56.5817610  36.5140250
  39.6345900  58.7805550  21.8336240  40.0562320  58.6145420  22.6767630
  39.7596740  57.9705780  21.3391380  37.7973320  54.7602100  34.6407220
  37.2669780  54.2693050  34.0130560  38.4661390  55.1886300  34.1065150
  42.1473540  57.8043160  19.0813340  42.6679200  57.0892180  18.7154490
  42.7941940  58.4429030  19.3813850  46.6951380  59.2271560  34.4048410
  47.1092400  59.3816640  35.2538830  45.7602380  59.3526780  34.5674190
  47.1673550  56.5667720  36.4087560  47.7494320  55.8120040  36.3208040
  47.3435320  57.0975160  35.6319040  38.2845620  51.7264470  34.7204510
  38.1902490  51.1085220  33.9955380  37.7043010  52.4530760  34.4934420
  41.0507060  50.2837710  31.7531900  40.6024360  50.3061970  30.9077450
  40.4172260  49.8856730  32.3502200  41.4566610  59.1792040  32.3744340
  41.8754720  60.0224770  32.2020580  40.5375240  59.3164080  32.1451120
  43.7930510  56.9108220  33.7582180  43.9126720  56.3149360  34.4977020
  44.6524510  56.9477910  33.3383480  46.1318410  57.4645410  32.3344690
  45.6053630  57.9888030  31.7309830  46.4749750  58.0972800  32.9654420
  38.5304800  54.8538780  18.7794400  38.3293860  53.9906140  19.1407740
  38.3596850  54.7672140  17.8416000  39.3074030  65.4845050  33.4902070
  38.7695120  66.2091110  33.1710770  39.5607990  65.0075390  32.6999410
  40.5599280  53.4529570  35.0158000  41.1498970  53.1445420  35.7035820
  39.7419520  52.9809320  35.1717900  45.3792710  53.0695380  35.2491020
  44.6908230  52.4076920  35.1841010  46.0998730  52.6233650  35.6939480
  46.0093110  49.6647010  21.3081280  46.2895400  48.8214910  21.6640700
  45.2358840  49.8970120  21.8220030  37.3287600  51.9539400  18.7672280
  37.6313500  51.9606830  17.8591430  38.0682190  51.6037260  19.2639940
  42.1636240  66.7196260  33.7488720  42.0894940  67.6231400  34.0561090
  41.2615080  66.4008160  33.7210790  40.5472530  50.8974020  19.7528480
  40.1994530  50.2198010  19.1730930  40.7485300  50.4363530  20.5671870
  42.7121570  65.8854770  21.3715080  43.6072360  66.2239740  21.3933840
  42.7439200  65.1634180  20.7439360  36.3517730  61.2581820  19.6002080
  36.7892600  61.8011490  20.2559660  36.8365460  60.4328770  19.6098420
  33.5663530  64.0470850  27.0522340  33.8966540  63.1791910  26.8200980
  33.9954530  64.2529370  27.8827300  38.1625450  62.3779860  24.7124310
  37.8620990  62.2544830  25.6128220  38.0562940  61.5188450  24.3040040
  34.0553740  64.9141440  29.7903970  33.6184730  65.0942240  30.6228120
  34.6231420  65.6716060  29.6485690  49.6915920  64.4158440  34.0781280
  49.0917910  64.4751000  33.3345200  49.8209820  63.4763420  34.2078130
  50.9317370  62.1576260  19.4150990  50.1010330  62.2252910  19.8858220
  51.1089200  63.0480380  19.1117850  50.3873830  58.9023740  21.9185190
  51.1492740  59.4720390  22.0244880  50.4028200  58.3350940  22.6893500
  33.8878170  57.4261670  26.1492850  33.2327010  57.1573310  25.5052550
  34.7256120  57.3166150  25.6994830  51.3933800  59.7573840  26.7627120
  51.7642630  58.9741160  26.3563090  52.0335730  60.4462940  26.5844420
  48.3767560  61.1410420  32.1757440  47.5627400  61.5707580  32.4383230
  48.7841760  61.7528830  31.5626490  50.4393000  59.1958110  19.0757710
  50.7141840  60.1036990  18.9476930  50.2503740  59.1320640  20.0119700
  46.8368610  52.2202960  20.3711340  47.2553490  52.0333940  19.5308000
  46.5304670  51.3682010  20.6814270  50.3358340  57.1327100  24.0687140
  49.9601940  56.3655030  23.6368430  49.6061460  57.5149800  24.5562070
  34.9254100  57.8114240  30.6896190  35.2927140  57.7241640  31.5692210
  34.3564920  57.0480790  30.5903050  49.7257960  56.2798620  33.7026660
  49.4944050  56.0511370  32.8024610  49.9862510  57.1998170  33.6571550
  34.4770100  54.7223330  34.5954610  33.5826150  54.6890090  34.9348320
  35.0167650  54.9210120  35.3605860  48.1646030  51.5055050  36.4806360
  49.0416210  51.5138450  36.8640360  48.1766870  50.7685890  35.8698710
  33.1016250  54.6360600  22.0918180  32.1980330  54.8990800  21.9169840
  33.5856870  54.9071770  21.3118140  49.6109300  55.3584590  27.3694380
  50.1346780  54.8647240  26.7384550  50.1968720  55.4934950  28.1141950
  49.7899020  55.4424460  30.8913930  48.8401730  55.4088000  31.0058920
  49.9712030  56.3524570  30.6563700  35.6443460  53.6926140  20.0012560
  36.3535160  53.2709360  19.5159840  34.9283400  53.7601370  19.3695910
  35.2917620  49.7465470  19.0415210  36.0145750  50.2874410  19.3596430
  35.5642140  49.4728890  18.1656750  49.1009270  54.6157940  23.3086790
  49.5968390  54.3828810  24.0935670  48.9025340  53.7769780  22.8924430
  34.9809810  48.9971660  28.9437830  35.6286000  48.4469040  28.5032990
  35.4011650  49.2514810  29.7653640  50.5296430  53.2518890  25.8424470
  50.4195710  53.0974930  26.7806740  51.2904020  52.7239830  25.5999880
  48.8762150  49.1913020  32.3007470  49.5134370  49.8047160  32.6666660
  49.0237040  49.2273680  31.3556700  51.4186700  51.0826810  19.0830610
  52.3436010  50.9507990  18.8748900  51.3962490  51.1619630  20.0367060
  51.4925190  51.8537470  21.7087320  50.6976690  51.7882590  22.2380230
  51.6968470  52.7888110  21.6972670  48.4343610  65.8929020  25.7025710
  49.0302680  65.5713590  25.0260130  48.6921760  65.4200840  26.4938980
  34.7341810  49.1527330  31.6863150  34.3856630  49.6091150  32.4521330
  34.4029510  48.2584460  31.7685580  36.3406180  62.3246930  35.8516340
  36.2975810  61.9539840  36.7330800  36.4717190  63.2624500  35.9918160
  40.0412210  63.8806520  31.4526060  39.8003570  64.1481080  30.5656580
  40.9814850  64.0512250  31.5076920  42.2466630  50.3439210  35.2082570
  42.1855520  50.9361040  35.9577980  43.1867010  50.2365170  35.0632830
  44.8841190  50.0009270  34.8474860  45.4981600  50.3188560  34.1855940
  45.4290750  49.5157860  35.4670720  51.3016370  65.9000900  32.2536700
  50.8074650  66.2969770  31.5363830  50.6929660  65.2750110  32.6473980
  35.4062450  48.6803530  34.9613920  35.9545440  48.4991580  34.1980030
  35.4717760  47.8897640  35.4970230  36.1794210  65.2709180  32.9714120
  35.5854530  65.1393880  33.7104160  36.1718050  64.4347320  32.5056220
  45.6249230  48.5641410  31.1744150  44.7509070  48.8976520  30.9717080
  45.5159980  48.0914590  31.9996020  46.5321210  50.7712280  32.5585870
  46.2034570  49.9564040  32.1787600  47.4803510  50.7282090  32.4351560
  48.9855820  66.5424320  29.5323440  48.5258790  67.2940130  29.1581460
  48.3568280  65.8230790  29.4738240  35.8106440  62.6367560  31.9222160
  35.0840500  62.0172850  31.8548110  35.8715590  63.0308170  31.0520240
  39.4151540  64.8512560  28.7071570  39.9316560  64.2399920  28.1819830
  40.0648920  65.3541340  29.1982580  42.1547040  65.7421050  29.5340550
  42.4424850  65.4875350  28.6573560  42.6670260  65.1898410  30.1246120
  43.3724050  49.4811250  30.1137060  42.5895840  49.9556750  30.3933820
  43.0786980  48.5766080  30.0050240  47.9245120  50.1834350  28.1586150
  48.3653210  50.1279450  27.3107750  47.6552710  51.0992360  28.2296330
  49.7883690  49.8149590  26.1694970  49.7272090  48.8710810  26.0225990
  50.5675720  49.9229680  26.7148430  34.0936440  65.9541950  25.1318920
  33.9258480  65.3212630  25.8300810  33.2270950  66.1601350  24.7813110
  34.7164460  49.7858730  22.6350780  35.4743820  49.8987610  22.0614810
  34.2541630  50.6227930  22.5894210  41.2578270  51.8998000  25.6253090
  40.4452780  51.5254890  25.2848970  41.7619910  51.1443080  25.9274280
  45.7603250  48.5640450  26.8636160  46.3632620  49.1360660  27.3384680
  45.0196240  49.1279890  26.6410060  48.9037850  48.9662010  22.1376440
  49.0988480  49.8645460  22.4043870  48.1167720  48.7349090  22.6309390
  35.6999140  64.6475180  22.5769060  35.1746760  65.0283210  21.8731020
  35.6243720  65.2725950  23.2978770  37.0889610  50.3122780  21.1752750
  37.6182370  49.5252580  21.0460700  37.7217930  50.9913970  21.4088280
  39.2827450  50.0497920  24.2298140  38.6530190  49.3485230  24.3968270
  38.7432590  50.8102050  24.0131300  42.2219400  66.6637150  36.9008750
  43.1486710  66.4281420  36.9444710  42.2069830  67.4909150  36.4194780
  50.4564460  66.2062720  23.8983000  50.6316650  65.5200460  23.2543920
  49.7586030  66.7309770  23.5059670  39.4083010  49.3281900  36.6650630
  39.1267280  49.8315500  35.9011450  39.7902710  48.5303650  36.2992760
  38.2992110  66.5957560  21.4518310  39.0310930  66.3116840  20.9042200
  38.5585780  66.3570840  22.3417690  37.4606900  62.7122290  21.4564640
  36.8315780  63.1807390  22.0050470  37.5754730  61.8671510  21.8910830
  46.0098470  48.7435480  37.2431100  45.8963920  49.0630090  38.1382620
  46.8268210  49.1447990  36.9468380  48.7896960  65.8907010  36.7249790
  49.5822280  65.3956240  36.5175750  49.0830110  66.5697150  37.3325400
  44.9156620  56.7627950   7.6065840  44.8350670  55.8482560   7.3357550
  44.5021040  57.2595020   6.9005550  43.0474660  58.5406970   9.4875110
  42.2716760  58.0607410   9.7773680  43.6987590  57.8612620   9.3131270
  37.0640490  58.8526780  10.3650870  36.2325370  58.5975490  10.7647380
  37.6721470  58.9237550  11.1008790  47.0682090  62.9467160   8.2674240
  46.6063620  62.1754400   8.5961410  47.8807640  62.9733230   8.7726690
  37.0441750  62.8866870  10.5608890  37.3469790  61.9964610  10.3819110
  37.7885340  63.4437090  10.3331140  35.4732440  53.8128670   4.1493260
  34.5849140  54.1544640   4.0473140  35.7573630  53.6128990   3.2574090
  33.4365450  56.4134320  10.0332960  34.0081560  55.6456520  10.0336600
  33.4366990  56.7123080   9.1239570  43.2945400  65.2325170   7.8878230
  42.6756840  65.6882670   7.3172670  44.1497180  65.3876630   7.4867930
  42.4883650  61.2164160   9.4945270  42.4191930  60.2754100   9.3334400
  43.2503510  61.3065570  10.0667840  34.6790320  51.8218680  11.8201890
  34.4993160  50.9244430  12.1004650  34.2770400  52.3690550  12.4948840
  43.5188820  54.0234540   9.7214200  43.8953640  53.1506420   9.6087870
  43.4208330  54.3593240   8.8304640  37.6493830  52.3960170   5.1831640
  37.7560580  53.2963900   5.4900400  36.7386190  52.3478140   4.8926290
  47.3012940  51.5184980   6.6542540  48.1222560  51.0281550   6.6968020
  47.3347020  52.1082640   7.4074380  35.2976990  54.3179180  10.4284230
  35.9787100  54.5817550  11.0471630  34.9825040  53.4780050  10.7622240
  39.4901560  55.3646540   9.5156820  39.9979780  55.8627510  10.1561840
  40.0214800  54.5881740   9.3396180  51.5912490  53.5351730  13.2186170
  50.8864660  53.9233440  12.7001280  51.8570410  54.2302020  13.8207100
  37.7737660  50.0045100  13.7820240  37.7756100  50.5217490  12.9766140
  36.9441970  49.5275280  13.7590170  44.1608750  60.1164410   5.2810140
  43.5426020  60.5813860   4.7172860  44.6732000  60.8091890   5.6979650
  39.0240510  59.6440280  11.9593740  38.6909890  60.2709200  12.6014810
  39.2007190  60.1702160  11.1795410  47.5374420  53.4585360   9.4270080
  46.8329990  53.7470250  10.0073190  47.8986580  54.2685470   9.0669640
  37.4552990  51.7155060  11.7890690  37.7969800  52.5597110  11.4944560
  36.5168800  51.8638800  11.9056030  38.2359610  61.6121080  13.7742920
  38.8533610  62.2872160  13.4927370  37.3752730  62.0209060  13.6830420
  33.5291950  60.8020940   2.6549770  33.1519930  61.2908040   1.9234670
  33.7865020  61.4746220   3.2856300  49.1537200  63.0760490  11.6897560
  48.4700720  63.7459600  11.6814230  49.6931490  63.2741140  10.9242420
  50.6061340  52.9040150   9.8179290  49.6586250  52.9379130   9.9494720
  50.9311330  53.7179100  10.2028650  41.1380880  49.2037330   8.1135280
  41.4455860  48.6484220   7.3970780  40.2081580  49.3381790   7.9308270
  46.6895940  64.9204620  10.4042740  46.7023100  64.5166910   9.5365000
  46.1371160  65.6951910  10.3004170  47.9841360  61.6420840   5.4932910
  47.8737690  60.6995170   5.6182330  47.9809610  62.0036480   6.3795670
  46.0881380  59.8234460  11.7325350  46.5050170  59.6094570  10.8978810
  46.8121200  60.0807250  12.3033970  43.5261640  57.2686160   4.8495400
  42.5990920  57.2023540   5.0783870  43.6786460  58.2066290   4.7350640
  43.5130720  53.5403160   1.8462560  42.5734390  53.7017120   1.9315020
  43.8313980  54.2588840   1.2998550  50.0343480  58.2221680  11.8241590
  49.2062110  58.2914770  11.3491720  50.6293960  58.8075990  11.3557420
  47.5558930  58.8306460   5.3530650  46.9371350  58.4926010   4.7056950
  47.5383380  58.1866220   6.0609840  46.9985490  55.0091000  12.7696460
  46.5856670  55.8344710  13.0236450  46.2661440  54.4236040  12.5772820
  39.1318280  57.7950900   7.6315130  38.7275280  57.0828150   7.1361030
  39.2181400  57.4504140   8.5203170  39.5999980  61.4818460   9.7954340
  39.3028270  60.8763930   9.1162120  40.5499800  61.5195770   9.6843700
  37.8446900  54.5694110  11.4114170  38.3961490  54.6789450  10.6367420
  38.3590410  54.9431710  12.1269400  47.6885590  65.0550330  13.4577440
  47.2116150  65.8622520  13.2650050  47.0047380  64.4028660  13.6103650
  38.6918410  61.2200150  16.4462140  37.7946940  61.4440120  16.6935540
  38.7171280  61.3435090  15.4973540  45.7323630  58.0693270   2.3603400
  46.1716910  57.2315700   2.2141220  46.4452050  58.7022670   2.4467540
  37.5189630  58.0913470  15.0219510  37.3797400  58.9636270  15.3906910
  36.6370990  57.7486280  14.8767450  43.8419010  63.0089340   6.3284640
  44.2814920  63.7513670   5.9140030  43.7805900  63.2515910   7.2523600
  39.3169980  64.0335170  17.2304660  39.2885410  64.4378120  16.3633090
  39.1534950  63.1045530  17.0676260  35.8322910  56.6895880   5.1321780
  35.7120510  57.4157970   4.5203050  35.5223800  55.9198790   4.6549690
  51.2684800  64.8162270  18.5268830  51.7444520  65.2945160  19.2057910
  51.8891960  64.7479760  17.8014330  33.4708280  59.8611020  10.9390420
  33.5488700  59.9959790   9.9946140  34.0849960  59.1526910  11.1318540
  34.7155910  61.5611210   7.3496600  34.3083990  61.7025800   6.4950200
  35.6068920  61.2771370   7.1467810  50.6718050  62.0075120  15.6868840
  50.7981110  61.7687000  14.7686020  50.7139430  61.1759660  16.1590920
  44.5334790  65.7103120  14.2563650  45.0479460  65.6211130  15.0586080
  43.6903870  66.0562820  14.5491560  46.5089190  65.9958460   3.6847650
  46.3490330  65.7061400   4.5829480  46.3435900  65.2198590   3.1492880
  38.9877570  65.7756990   5.4619270  38.8120050  64.8592530   5.2487070
  38.1333310  66.1344280   5.7017070  46.2115320  63.5046020   2.2445650
  45.5180480  63.5023310   1.5847930  46.9538180  63.0805340   1.8139820
  45.7765250  65.1308730   6.3194140  46.2322200  64.3498110   6.6332760
  46.1157770  65.8415550   6.8635320  50.5242060  54.0607580  16.6518580
  49.9086330  54.5687250  16.1234040  50.2038480  53.1605910  16.5944520
  33.5267800  60.9025190  13.4784880  33.6898840  60.4330550  12.6604250
  33.9920250  60.3948750  14.1433720  38.2986570  50.0330950   8.5145450
  37.8554720  50.8140490   8.1829970  38.8571560  50.3560840   9.2216390
  42.5856380  52.8999470  14.1180770  42.1235750  53.1082490  14.9300710
  42.1834490  52.0858820  13.8151440  47.5860890  54.1208420  15.2477430
  46.7354480  53.8214170  15.5686500  47.4262680  54.3650430  14.3361250
  44.6810600  55.6210170  17.3476220  45.0064010  54.7873920  17.0078450
  45.4690930  56.1438690  17.4954550  41.4145390  49.6541650   3.3951280
  40.7899570  49.6501520   4.1204590  41.3275510  48.7872610   2.9987250
  40.3362470  50.5778280  10.3735050  40.6334800  51.4841110  10.2927070
  40.8848030  50.0897060   9.7594620  38.0900790  55.1564520   6.2426700
  37.8641710  54.9401690   7.1473320  37.3093320  55.5892980   5.8972670
  45.3198550  55.1627890   4.8417350  44.7207440  55.8863690   4.6580970
  45.8678160  55.1004670   4.0593800  40.5300000  56.0550100  16.9086970
  40.4343600  55.1144830  16.7587370  41.3731980  56.2765170  16.5135040
  43.9263420  53.7991430   6.8720630  44.3192990  54.1163630   6.0589320
  44.2880270  52.9203310   6.9865150  35.6610540  52.4663770  15.0620750
  35.2673930  53.3138980  15.2693530  34.9728940  51.8290140  15.2529390
  42.2355590  52.5498740  18.1317490  41.5453910  52.3570940  18.7663580
  42.9787890  52.8333380  18.6641790  32.9627590  50.3892230   9.0950830
  32.6740640  50.9595090   9.8075810  33.7073350  49.9096680   9.4582060
  44.5118560  56.3897180  10.9671410  43.7799680  56.8983990  11.3161510
  44.1142900  55.5727160  10.6660190  40.9495950  53.0651380   9.3723900
  40.9532010  52.6241330   8.5228440  41.8447070  53.3868710   9.4795720
  36.7998330  52.9477870   8.3318110  36.4598380  53.4253100   9.0885160
  36.0375650  52.4942990   7.9719210  41.0116100  54.0663460   2.3630660
  41.1328920  54.0249940   3.3116480  40.6264610  54.9287610   2.2077390
  44.9744470  51.8430860  10.3794350  44.9917210  52.2939510  11.2236200
  44.7260050  50.9436500  10.5927790  48.4015220  49.2563040  16.2180730
  48.7260990  48.5252700  16.7438710  48.4371730  48.9376680  15.3161720
  35.1006780  60.2776620  15.6380690  34.7161570  59.6370290  16.2363650
  35.4118970  60.9812740  16.2075420  41.2503920  57.1253160  11.1189310
  41.6174050  56.6511730  11.8650650  41.0608980  57.9994730  11.4597650
  34.1144410  51.8696850   7.2482780  33.8291330  51.5052520   8.0861400
  34.0523270  51.1377310   6.6345920  39.0403290  56.1661800  13.4373520
  38.7360360  57.0453780  13.6623880  39.9949750  56.2261590  13.4730960
  37.5685080  60.3722790   4.0340370  36.7947340  59.8320410   3.8739090
  38.2979710  59.8529400   3.6958130  48.3273060  59.3688150   9.8266760
  49.0472180  59.8643440   9.4362870  48.1254880  58.6906040   9.1820630
  43.7883000  50.7626110   3.9696150  42.9747610  50.2639280   3.8941460
  43.5944950  51.6024360   3.5532500  43.7091860  59.4397210  15.7135760
  43.6429170  58.5192880  15.4593350  43.0797000  59.5372650  16.4280400
  46.5031390  55.1345760   2.2658310  47.3911010  55.4462990   2.0909650
  46.4736480  54.2618010   1.8738890  37.6122480  60.0403170   7.6719180
  38.1301150  59.2371430   7.6176070  37.1606500  59.9782310   8.5136010
  42.4991980  61.3069450   2.9446480  42.8407680  62.0511680   2.4489800
  41.6704690  61.6200570   3.3071310  35.0967020  57.0064540  14.5844880
  34.7381960  57.6718390  15.1718220  34.8021580  56.1748090  14.9557500
  38.2980140  57.4648780  17.4684430  37.9980280  57.6105960  16.5712250
  39.0691380  56.9054070  17.3757820  43.6408590  62.2617780  15.4639560
  43.6553130  61.3298740  15.2458470  42.9333690  62.3477540  16.1029330
  49.8519800  58.9025120  14.8108140  49.1267990  59.4953900  14.6137530
  50.3795260  58.8948660  14.0121510  49.8032910  63.2999860   4.4620300
  49.1609070  62.6455480   4.7364020  49.4163570  63.7054950   3.6860970
  45.3819390  60.6285290   8.3091990  45.7343210  60.0313420   7.6493360
  44.4981720  60.3029520   8.4800240  41.4682670  61.3882980   5.7162400
  42.1553800  61.9352190   6.0969990  40.6815090  61.9323710   5.7512010
  40.7709880  58.3929010   5.3287760  41.2272660  59.2034260   5.5547950
  40.4198090  58.0752150   6.1606250  43.0742490  63.9035350  12.5580060
  43.7184710  64.1094730  13.2353480  43.4371930  63.1423750  12.1050910
  36.6721660  48.7366660   5.8010280  36.5436290  48.7284560   6.7495200
  35.8483680  49.0749750   5.4501290  44.3474570  61.9067700  11.2757510
  44.9896800  61.2060860  11.3889680  44.8723920  62.6866140  11.0954400
  46.1212190  62.7062600  14.4793570  46.4568430  63.2929290  15.1571490
  45.2012530  62.5755310  14.7091360  33.6715590  50.4957780  15.2616980
  32.9574110  50.6954700  15.8669590  34.0910630  49.7197350  15.6331780
  47.7746540  60.1088260   2.6610810  47.4868240  60.5700950   3.4488690
  48.5698710  59.6486030   2.9295030  33.9588180  64.4838040  16.2483510
  34.0679300  63.5432780  16.1078900  33.3068740  64.7492790  15.5997240
  41.9500770  62.7553930  17.6481630  41.6297640  62.0363170  18.1927320
  41.2759130  63.4309000  17.7217690  39.9914940  63.6014380   2.5914780
  39.9825040  64.3344070   1.9759290  39.0713300  63.3545960   2.6841740
  35.5921580  58.8229270   3.3361540  34.9849530  59.5628170   3.3456840
  36.0670930  58.9128630   2.5099740  45.1654370  52.9880090  13.0118430
  45.5335190  52.1675300  13.3398000  44.3052570  53.0481980  13.4274080
  48.5316400  51.9437030   3.8205990  47.9029560  52.0482700   3.1064220
  48.0368320  52.1633810   4.6099870  40.5000430  54.2222980   5.2363870
  39.7916580  54.6909320   5.6777480  40.7844910  53.5644990   5.8709060
  42.1256360  55.6419680  13.2356400  42.6241610  56.1165500  13.9008250
  42.2679310  54.7183200  13.4426430  44.5315860  50.9473640   6.6759660
  44.4083640  50.9659770   5.7269170  45.4800420  50.9952580   6.7958060
  41.6192650  66.1828940   5.9487640  41.8734150  66.1450330   5.0267010
  40.6705130  66.0562270   5.9415890  38.7035450  52.5308060   2.6114580
  39.5525980  52.9678210   2.5454770  38.3366720  52.8428320   3.4386640
  49.3323220  51.8587640  14.0784790  48.8296820  52.5993040  14.4178600
  50.1479880  52.2471640  13.7621580  47.6245230  57.1020820   7.5246150
  46.6835370  57.1171050   7.6993840  47.9389300  56.3156780   7.9706450
  36.2973630  56.2165490   1.7683000  36.3777220  55.2693000   1.8800400
  37.1893380  56.5472370   1.8743660  49.6270810  64.2729670   9.2000410
  49.7518230  65.0960840   9.6724220  50.4936370  64.0620400   8.8524560
  37.0988340  66.3660880   8.8717540  37.8350820  65.8176340   9.1426110
  37.4829260  67.2316890   8.7323530  33.9833820  62.4334450   4.7459050
  33.0573600  62.6755590   4.7364460  34.4490250  63.2608710   4.6243800
  36.1046620  65.5506950  18.0603120  36.9059350  65.8719000  18.4738520
  35.5898440  65.1902530  18.7823030  44.9411250  61.6586820  18.0078530
  44.3349410  61.6818420  17.2674280  44.6365360  60.9269860  18.5445780
  46.3711620  65.3867110  16.6187940  47.3233370  65.3025130  16.5688180
  46.2239840  66.0508820  17.2921730  49.2620820  64.7661320   2.1179850
  48.9762330  64.3526460   1.3034030  49.0640370  65.6949030   1.9980370
  33.8244430  58.0380410  17.0039170  34.3283450  57.4587690  17.5755400
  33.0851850  58.3220640  17.5415540  40.8782370  59.4451400  16.5374690
  40.1128040  60.0136400  16.4529360  41.0598330  59.1527610  15.6442920
  48.0205720  61.1756730  17.0949710  48.7615190  61.5132490  16.5917170
  47.2578400  61.3448790  16.5419480  35.8567510  56.1810000  17.8989240
  35.8972850  55.8823870  18.8074470  36.7113010  56.5817610  17.7396760
  39.6345900  58.7805550   3.0592750  40.0562320  58.6145420   3.9024140
  39.7596740  57.9705780   2.5647890  37.7973320  54.7602100  15.8663730
  37.2669780  54.2693050  15.2387070  38.4661390  55.1886300  15.3321660
  46.6951380  59.2271560  15.6304920  47.1092400  59.3816640  16.4795340
  45.7602380  59.3526780  15.7930700  47.1673550  56.5667720  17.6344070
  47.7494320  55.8120040  17.5464550  47.3435320  57.0975160  16.8575550
  38.2845620  51.7264470  15.9461020  38.1902490  51.1085220  15.2211890
  37.7043010  52.4530760  15.7190930  41.0507060  50.2837710  12.9788410
  40.6024360  50.3061970  12.1333960  40.4172260  49.8856730  13.5758710
  41.4566610  59.1792040  13.6000850  41.8754720  60.0224770  13.4277090
  40.5375240  59.3164080  13.3707630  43.7930510  56.9108220  14.9838690
  43.9126720  56.3149360  15.7233530  44.6524510  56.9477910  14.5639990
  46.1318410  57.4645410  13.5601200  45.6053630  57.9888030  12.9566340
  46.4749750  58.0972800  14.1910930  39.3074030  65.4845050  14.7158580
  38.7695120  66.2091110  14.3967280  39.5607990  65.0075390  13.9255920
  40.5599280  53.4529570  16.2414510  41.1498970  53.1445420  16.9292330
  39.7419520  52.9809320  16.3974410  45.3792710  53.0695380  16.4747530
  44.6908230  52.4076920  16.4097520  46.0998730  52.6233650  16.9195990
  46.0093110  49.6647010   2.5337790  46.2895400  48.8214910   2.8897210
  45.2358840  49.8970120   3.0476540  42.1636240  66.7196260  14.9745230
  42.0894940  67.6231400  15.2817600  41.2615080  66.4008160  14.9467300
  42.7121570  65.8854770   2.5971590  43.6072360  66.2239740   2.6190350
  42.7439200  65.1634180   1.9695870  33.5663530  64.0470850   8.2778850
  33.8966540  63.1791910   8.0457490  33.9954530  64.2529370   9.1083810
  38.1625450  62.3779860   5.9380820  37.8620990  62.2544830   6.8384730
  38.0562940  61.5188450   5.5296550  34.0553740  64.9141440  11.0160480
  33.6184730  65.0942240  11.8484630  34.6231420  65.6716060  10.8742200
  49.6915920  64.4158440  15.3037790  49.0917910  64.4751000  14.5601710
  49.8209820  63.4763420  15.4334640  50.3873830  58.9023740   3.1441700
  51.1492740  59.4720390   3.2501390  50.4028200  58.3350940   3.9150010
  33.8878170  57.4261670   7.3749360  33.2327010  57.1573310   6.7309060
  34.7256120  57.3166150   6.9251340  51.3933800  59.7573840   7.9883630
  51.7642630  58.9741160   7.5819600  52.0335730  60.4462940   7.8100930
  48.3767560  61.1410420  13.4013950  47.5627400  61.5707580  13.6639740
  48.7841760  61.7528830  12.7883000  50.3358340  57.1327100   5.2943650
  49.9601940  56.3655030   4.8624940  49.6061460  57.5149800   5.7818580
  34.9254100  57.8114240  11.9152700  35.2927140  57.7241640  12.7948720
  34.3564920  57.0480790  11.8159560  49.7257960  56.2798620  14.9283170
  49.4944050  56.0511370  14.0281120  49.9862510  57.1998170  14.8828060
  34.4770100  54.7223330  15.8211120  33.5826150  54.6890090  16.1604830
  35.0167650  54.9210120  16.5862370  48.1646030  51.5055050  17.7062870
  49.0416210  51.5138450  18.0896870  48.1766870  50.7685890  17.0955220
  33.1016250  54.6360600   3.3174690  32.1980330  54.8990800   3.1426350
  33.5856870  54.9071770   2.5374650  49.6109300  55.3584590   8.5950890
  50.1346780  54.8647240   7.9641060  50.1968720  55.4934950   9.3398460
  49.7899020  55.4424460  12.1170440  48.8401730  55.4088000  12.2315430
  49.9712030  56.3524570  11.8820210  49.1009270  54.6157940   4.5343300
  49.5968390  54.3828810   5.3192180  48.9025340  53.7769780   4.1180940
  34.9809810  48.9971660  10.1694340  35.6286000  48.4469040   9.7289500
  35.4011650  49.2514810  10.9910150  50.5296430  53.2518890   7.0680980
  50.4195710  53.0974930   8.0063250  51.2904020  52.7239830   6.8256390
  48.8762150  49.1913020  13.5263980  49.5134370  49.8047160  13.8923170
  49.0237040  49.2273680  12.5813210  51.4925190  51.8537470   2.9343830
  50.6976690  51.7882590   3.4636740  51.6968470  52.7888110   2.9229180
  48.4343610  65.8929020   6.9282220  49.0302680  65.5713590   6.2516640
  48.6921760  65.4200840   7.7195490  34.7341810  49.1527330  12.9119660
  34.3856630  49.6091150  13.6777840  34.4029510  48.2584460  12.9942090
  36.3406180  62.3246930  17.0772850  36.2975810  61.9539840  17.9587310
  36.4717190  63.2624500  17.2174670  40.0412210  63.8806520  12.6782570
  39.8003570  64.1481080  11.7913090  40.9814850  64.0512250  12.7333430
  42.2466630  50.3439210  16.4339080  42.1855520  50.9361040  17.1834490
  43.1867010  50.2365170  16.2889340  44.8841190  50.0009270  16.0731370
  45.4981600  50.3188560  15.4112450  45.4290750  49.5157860  16.6927230
  51.3016370  65.9000900  13.4793210  50.8074650  66.2969770  12.7620340
  50.6929660  65.2750110  13.8730490  35.4062450  48.6803530  16.1870430
  35.9545440  48.4991580  15.4236540  35.4717760  47.8897640  16.7226740
  36.1794210  65.2709180  14.1970630  35.5854530  65.1393880  14.9360670
  36.1718050  64.4347320  13.7312730  45.6249230  48.5641410  12.4000660
  44.7509070  48.8976520  12.1973590  45.5159980  48.0914590  13.2252530
  46.5321210  50.7712280  13.7842380  46.2034570  49.9564040  13.4044110
  47.4803510  50.7282090  13.6608070  48.9855820  66.5424320  10.7579950
  48.5258790  67.2940130  10.3837970  48.3568280  65.8230790  10.6994750
  35.8106440  62.6367560  13.1478670  35.0840500  62.0172850  13.0804620
  35.8715590  63.0308170  12.2776750  39.4151540  64.8512560   9.9328080
  39.9316560  64.2399920   9.4076340  40.0648920  65.3541340  10.4239090
  42.1547040  65.7421050  10.7597060  42.4424850  65.4875350   9.8830070
  42.6670260  65.1898410  11.3502630  43.3724050  49.4811250  11.3393570
  42.5895840  49.9556750  11.6190330  43.0786980  48.5766080  11.2306750
  47.9245120  50.1834350   9.3842660  48.3653210  50.1279450   8.5364260
  47.6552710  51.0992360   9.4552840  49.7883690  49.8149590   7.3951480
  49.7272090  48.8710810   7.2482500  50.5675720  49.9229680   7.9404940
  34.0936440  65.9541950   6.3575430  33.9258480  65.3212630   7.0557320
  33.2270950  66.1601350   6.0069620  34.7164460  49.7858730   3.8607290
  35.4743820  49.8987610   3.2871320  34.2541630  50.6227930   3.8150720
  41.2578270  51.8998000   6.8509600  40.4452780  51.5254890   6.5105480
  41.7619910  51.1443080   7.1530790  45.7603250  48.5640450   8.0892670
  46.3632620  49.1360660   8.5641190  45.0196240  49.1279890   7.8666570
  48.9037850  48.9662010   3.3632950  49.0988480  49.8645460   3.6300380
  48.1167720  48.7349090   3.8565900  35.6999140  64.6475180   3.8025570
  35.1746760  65.0283210   3.0987530  35.6243720  65.2725950   4.5235280
  37.0889610  50.3122780   2.4009260  37.6182370  49.5252580   2.2717210
  37.7217930  50.9913970   2.6344790  39.2827450  50.0497920   5.4554650
  38.6530190  49.3485230   5.6224780  38.7432590  50.8102050   5.2387810
  42.2219400  66.6637150  18.1265260  43.1486710  66.4281420  18.1701220
  42.2069830  67.4909150  17.6451290  50.4564460  66.2062720   5.1239510
  50.6316650  65.5200460   4.4800430  49.7586030  66.7309770   4.7316180
  39.4083010  49.3281900  17.8907140  39.1267280  49.8315500  17.1267960
  39.7902710  48.5303650  17.5249270  38.2992110  66.5957560   2.6774820
  39.0310930  66.3116840   2.1298710  38.5585780  66.3570840   3.5674200
  37.4606900  62.7122290   2.6821150  36.8315780  63.1807390   3.2306980
  37.5754730  61.8671510   3.1167340  46.0098470  48.7435480  18.4687610
  45.8963920  49.0630090  19.3639130  46.8268210  49.1447990  18.1724890
  48.7896960  65.8907010  17.9506300  49.5822280  65.3956240  17.7432260
  49.0830110  66.5697150  18.5581910  44.9156620  37.9884460 101.4783290
  44.8350670  37.0739070 101.2075000  44.5021040  38.4851530 100.7723000
  43.0474660  39.7663480 103.3592560  42.2716760  39.2863920 103.6491130
  43.6987590  39.0869130 103.1848720  37.0640490  40.0783290 104.2368320
  36.2325370  39.8232000 104.6364830  37.6721470  40.1494060 104.9726240
  47.0682090  44.1723670 102.1391690  46.6063620  43.4010910 102.4678860
  47.8807640  44.1989740 102.6444140  37.0441750  44.1123380 104.4326340
  37.3469790  43.2221120 104.2536560  37.7885340  44.6693600 104.2048590
  35.4732440  35.0385180  98.0210710  34.5849140  35.3801150  97.9190590
  35.7573630  34.8385500  97.1291540  33.4365450  37.6390830 103.9050410
  34.0081560  36.8713030 103.9054050  33.4366990  37.9379590 102.9957020
  43.2945400  46.4581680 101.7595680  42.6756840  46.9139180 101.1890120
  44.1497180  46.6133140 101.3585380  42.4883650  42.4420670 103.3662720
  42.4191930  41.5010610 103.2051850  43.2503510  42.5322080 103.9385290
  34.6790320  33.0475190 105.6919340  34.4993160  32.1500940 105.9722100
  34.2770400  33.5947060 106.3666290  43.5188820  35.2491050 103.5931650
  43.8953640  34.3762930 103.4805320  43.4208330  35.5849750 102.7022090
  37.6493830  33.6216680  99.0549090  37.7560580  34.5220410  99.3617850
  36.7386190  33.5734650  98.7643740  47.3012940  32.7441490 100.5259990
  48.1222560  32.2538060 100.5685470  47.3347020  33.3339150 101.2791830
  35.2976990  35.5435690 104.3001680  35.9787100  35.8074060 104.9189080
  34.9825040  34.7036560 104.6339690  39.4901560  36.5903050 103.3874270
  39.9979780  37.0884020 104.0279290  40.0214800  35.8138250 103.2113630
  51.5912490  34.7608240 107.0903620  50.8864660  35.1489950 106.5718730
  51.8570410  35.4558530 107.6924550  37.7737660  31.2301610 107.6537690
  37.7756100  31.7474000 106.8483590  36.9441970  30.7531790 107.6307620
  44.1608750  41.3420920  99.1527590  43.5426020  41.8070370  98.5890310
  44.6732000  42.0348400  99.5697100  39.0240510  40.8696790 105.8311190
  38.6909890  41.4965710 106.4732260  39.2007190  41.3958670 105.0512860
  47.5374420  34.6841870 103.2987530  46.8329990  34.9726760 103.8790640
  47.8986580  35.4941980 102.9387090  37.4552990  32.9411570 105.6608140
  37.7969800  33.7853620 105.3662010  36.5168800  33.0895310 105.7773480
  38.2359610  42.8377590 107.6460370  38.8533610  43.5128670 107.3644820
  37.3752730  43.2465570 107.5547870  33.5291950  42.0277450  96.5267220
  33.1519930  42.5164550  95.7952120  33.7865020  42.7002730  97.1573750
  49.1537200  44.3017000 105.5615010  48.4700720  44.9716110 105.5531680
  49.6931490  44.4997650 104.7959870  50.6061340  34.1296660 103.6896740
  49.6586250  34.1635640 103.8212170  50.9311330  34.9435610 104.0746100
  41.1380880  30.4293840 101.9852730  41.4455860  29.8740730 101.2688230
  40.2081580  30.5638300 101.8025720  46.6895940  46.1461130 104.2760190
  46.7023100  45.7423420 103.4082450  46.1371160  46.9208420 104.1721620
  47.9841360  42.8677350  99.3650360  47.8737690  41.9251680  99.4899780
  47.9809610  43.2292990 100.2513120  46.0881380  41.0490970 105.6042800
  46.5050170  40.8351080 104.7696260  46.8121200  41.3063760 106.1751420
  43.5261640  38.4942670  98.7212850  42.5990920  38.4280050  98.9501320
  43.6786460  39.4322800  98.6068090  50.0343480  39.4478190 105.6959040
  49.2062110  39.5171280 105.2209170  50.6293960  40.0332500 105.2274870
  47.5558930  40.0562970  99.2248100  46.9371350  39.7182520  98.5774400
  47.5383380  39.4122730  99.9327290  46.9985490  36.2347510 106.6413910
  46.5856670  37.0601220 106.8953900  46.2661440  35.6492550 106.4490270
  39.1318280  39.0207410 101.5032580  38.7275280  38.3084660 101.0078480
  39.2181400  38.6760650 102.3920620  39.5999980  42.7074970 103.6671790
  39.3028270  42.1020440 102.9879570  40.5499800  42.7452280 103.5561150
  37.8446900  35.7950620 105.2831620  38.3961490  35.9045960 104.5084870
  38.3590410  36.1688220 105.9986850  47.6885590  46.2806840 107.3294890
  47.2116150  47.0879030 107.1367500  47.0047380  45.6285170 107.4821100
  38.6918410  42.4456660 110.3179590  37.7946940  42.6696630 110.5652990
  38.7171280  42.5691600 109.3690990  45.7323630  39.2949780  96.2320850
  46.1716910  38.4572210  96.0858670  46.4452050  39.9279180  96.3184990
  37.5189630  39.3169980 108.8936960  37.3797400  40.1892780 109.2624360
  36.6370990  38.9742790 108.7484900  43.8419010  44.2345850 100.2002090
  44.2814920  44.9770180  99.7857480  43.7805900  44.4772420 101.1241050
  35.8322910  37.9152390  99.0039230  35.7120510  38.6414480  98.3920500
  35.5223800  37.1455300  98.5267140  33.4708280  41.0867530 104.8107870
  33.5488700  41.2216300 103.8663590  34.0849960  40.3783420 105.0035990
  34.7155910  42.7867720 101.2214050  34.3083990  42.9282310 100.3667650
  35.6068920  42.5027880 101.0185260  50.6718050  43.2331630 109.5586290
  50.7981110  42.9943510 108.6403470  50.7139430  42.4016170 110.0308370
  44.5334790  46.9359630 108.1281100  45.0479460  46.8467640 108.9303530
  43.6903870  47.2819330 108.4209010  46.5089190  47.2214970  97.5565100
  46.3490330  46.9317910  98.4546930  46.3435900  46.4455100  97.0210330
  38.9877570  47.0013500  99.3336720  38.8120050  46.0849040  99.1204520
  38.1333310  47.3600790  99.5734520  46.2115320  44.7302530  96.1163100
  45.5180480  44.7279820  95.4565380  46.9538180  44.3061850  95.6857270
  45.7765250  46.3565240 100.1911590  46.2322200  45.5754620 100.5050210
  46.1157770  47.0672060 100.7352770  50.5242060  35.2864090 110.5236030
  49.9086330  35.7943760 109.9951490  50.2038480  34.3862420 110.4661970
  33.5267800  42.1281700 107.3502330  33.6898840  41.6587060 106.5321700
  33.9920250  41.6205260 108.0151170  38.2986570  31.2587460 102.3862900
  37.8554720  32.0397000 102.0547420  38.8571560  31.5817350 103.0933840
  42.5856380  34.1255980 107.9898220  42.1235750  34.3339000 108.8018160
  42.1834490  33.3115330 107.6868890  47.5860890  35.3464930 109.1194880
  46.7354480  35.0470680 109.4403950  47.4262680  35.5906940 108.2078700
  40.3362470  31.8034790 104.2452500  40.6334800  32.7097620 104.1644520
  40.8848030  31.3153570 103.6312070  38.0900790  36.3821030 100.1144150
  37.8641710  36.1658200 101.0190770  37.3093320  36.8149490  99.7690120
  45.3198550  36.3884400  98.7134800  44.7207440  37.1120200  98.5298420
  45.8678160  36.3261180  97.9311250  40.5300000  37.2806610 110.7804420
  40.4343600  36.3401340 110.6304820  41.3731980  37.5021680 110.3852490
  43.9263420  35.0247940 100.7438080  44.3192990  35.3420140  99.9306770
  44.2880270  34.1459820 100.8582600  35.6610540  33.6920280 108.9338200
  35.2673930  34.5395490 109.1410980  34.9728940  33.0546650 109.1246840
  32.9627590  31.6148740 102.9668280  32.6740640  32.1851600 103.6793260
  33.7073350  31.1353190 103.3299510  33.1497820  35.5568860  94.1771000
  33.0672490  36.4999620  94.3185990  32.7980880  35.4143770  93.2983350
  44.5118560  37.6153690 104.8388860  43.7799680  38.1240500 105.1878960
  44.1142900  36.7983670 104.5377640  40.9495950  34.2907890 103.2441350
  40.9532010  33.8497840 102.3945890  41.8447070  34.6125220 103.3513170
  36.7998330  34.1734380 102.2035560  36.4598380  34.6509610 102.9602610
  36.0375650  33.7199500 101.8436660  44.9744470  33.0687370 104.2511800
  44.9917210  33.5196020 105.0953650  44.7260050  32.1693010 104.4645240
  40.0237600  37.6021110  95.6331410  39.4554500  37.1539360  95.0067320
  40.7326600  37.9613890  95.0996560  48.4015220  30.4819550 110.0898180
  48.7260990  29.7509210 110.6156160  48.4371730  30.1633190 109.1879170
  35.1006780  41.5033130 109.5098140  34.7161570  40.8626800 110.1081100
  35.4118970  42.2069250 110.0792870  41.2503920  38.3509670 104.9906760
  41.6174050  37.8768240 105.7368100  41.0608980  39.2251240 105.3315100
  34.1144410  33.0953360 101.1200230  33.8291330  32.7309030 101.9578850
  34.0523270  32.3633820 100.5063370  39.0403290  37.3918310 107.3090970
  38.7360360  38.2710290 107.5341330  39.9949750  37.4518100 107.3448410
  37.5685080  41.5979300  97.9057820  36.7947340  41.0576920  97.7456540
  38.2979710  41.0785910  97.5675580  48.3273060  40.5944660 103.6984210
  49.0472180  41.0899950 103.3080320  48.1254880  39.9162550 103.0538080
  43.7091860  40.6653720 109.5853210  43.6429170  39.7449390 109.3310800
  43.0797000  40.7629160 110.2997850  37.6122480  41.2659680 101.5436630
  38.1301150  40.4627940 101.4893520  37.1606500  41.2038820 102.3853460
  42.4991980  42.5325960  96.8163930  42.8407680  43.2768190  96.3207250
  41.6704690  42.8457080  97.1788760  35.0967020  38.2321050 108.4562330
  34.7381960  38.8974900 109.0435670  34.8021580  37.4004600 108.8274950
  43.6408590  43.4874290 109.3357010  43.6553130  42.5555250 109.1175920
  42.9333690  43.5734050 109.9746780  49.8519800  40.1281630 108.6825590
  49.1267990  40.7210410 108.4854980  50.3795260  40.1205170 107.8838960
  49.8032910  44.5256370  98.3337750  49.1609070  43.8711990  98.6081470
  49.4163570  44.9311460  97.5578420  45.3819390  41.8541800 102.1809440
  45.7343210  41.2569930 101.5210810  44.4981720  41.5286030 102.3517690
  41.4682670  42.6139490  99.5879850  42.1553800  43.1608700  99.9687440
  40.6815090  43.1580220  99.6229460  33.6075070  38.2312310  95.0796930
  34.4769920  38.5137110  95.3632850  33.1165390  39.0448180  94.9645740
  40.7709880  39.6185520  99.2005210  41.2272660  40.4290770  99.4265400
  40.4198090  39.3008660 100.0323700  43.0742490  45.1291860 106.4297510
  43.7184710  45.3351240 107.1070930  43.4371930  44.3680260 105.9768360
  44.3474570  43.1324210 105.1474960  44.9896800  42.4317370 105.2607130
  44.8723920  43.9122650 104.9671850  48.1930290  43.4172830  94.8714100
  47.9667870  42.7003270  95.4638740  47.8026490  43.1685270  94.0335850
  46.1212190  43.9319110 108.3511020  46.4568430  44.5185800 109.0288940
  45.2012530  43.8011820 108.5808810  33.9746320  47.4439690  95.6458560
  34.3343960  48.0429030  94.9915830  33.8338660  47.9899580  96.4193590
  33.6715590  31.7214290 109.1334430  32.9574110  31.9211210 109.7387040
  34.0910630  30.9453860 109.5049230  47.7746540  41.3344770  96.5328260
  47.4868240  41.7957460  97.3206140  48.5698710  40.8742540  96.8012480
  33.9588180  45.7094550 110.1200960  34.0679300  44.7689290 109.9796350
  33.3068740  45.9749300 109.4714690  39.9914940  44.8270890  96.4632230
  39.9825040  45.5600580  95.8476740  39.0713300  44.5802470  96.5559190
  35.5921580  40.0485780  97.2078990  34.9849530  40.7884680  97.2174290
  36.0670930  40.1385140  96.3817190  45.1654370  34.2136600 106.8835880
  45.5335190  33.3931810 107.2115450  44.3052570  34.2738490 107.2991530
  42.9774540  44.8899130  95.1257420  43.0786520  44.6863120  94.1959400
  42.0776280  44.6357410  95.3305200  40.5000430  35.4479490  99.1081320
  39.7916580  35.9165830  99.5494930  40.7844910  34.7901500  99.7426510
  42.1256360  36.8676190 107.1073850  42.6241610  37.3422010 107.7725700
  42.2679310  35.9439710 107.3143880  44.5315860  32.1730150 100.5477110
  44.4083640  32.1916280  99.5986620  45.4800420  32.2209090 100.6675510
  41.6192650  47.4085450  99.8205090  41.8734150  47.3706840  98.8984460
  40.6705130  47.2818780  99.8133340  38.7035450  33.7564570  96.4832030
  39.5525980  34.1934720  96.4172220  38.3366720  34.0684830  97.3104090
  49.3323220  33.0844150 107.9502240  48.8296820  33.8249550 108.2896050
  50.1479880  33.4728150 107.6339030  47.6245230  38.3277330 101.3963600
  46.6835370  38.3427560 101.5711290  47.9389300  37.5413290 101.8423900
  37.6026870  40.0096930  94.9567560  38.3690140  39.8978290  95.5192990
  37.6801560  39.3134900  94.3044330  36.2973630  37.4422000  95.6400450
  36.3777220  36.4949510  95.7517850  37.1893380  37.7728880  95.7461110
  49.6270810  45.4986180 103.0717860  49.7518230  46.3217350 103.5441670
  50.4936370  45.2876910 102.7242010  37.0988340  47.5917390 102.7434990
  37.8350820  47.0432850 103.0143560  37.4829260  48.4573400 102.6040980
  33.9833820  43.6590960  98.6176500  33.0573600  43.9012100  98.6081910
  34.4490250  44.4865220  98.4961250  40.2090650  46.7647700  94.5660560
  41.0019260  47.0536530  94.1142350  39.6895000  46.3339870  93.8873040
  49.2620820  45.9917830  95.9897300  48.9762330  45.5782970  95.1751480
  49.0640370  46.9205540  95.8697820  40.7268050  41.9851110  94.4302910
  40.6218690  41.3703460  95.1564290  40.5592270  41.4617000  93.6465920
  40.8782370  40.6707910 110.4092140  40.1128040  41.2392910 110.3246810
  41.0598330  40.3784120 109.5160370  43.9670780  41.0471140  95.0344900
  43.4180880  41.4940440  95.6787640  44.5890040  40.5420390  95.5582570
  48.0205720  42.4013240 110.9667160  48.7615190  42.7389000 110.4634620
  47.2578400  42.5705300 110.4136930  39.6345900  40.0062060  96.9310200
  40.0562320  39.8401930  97.7741590  39.7596740  39.1962290  96.4365340
  37.7973320  35.9858610 109.7381180  37.2669780  35.4949560 109.1104520
  38.4661390  36.4142810 109.2039110  42.1473540  39.0299670  94.1787300
  42.6679200  38.3148690  93.8128450  42.7941940  39.6685540  94.4787810
  46.6951380  40.4528070 109.5022370  47.1092400  40.6073150 110.3512790
  45.7602380  40.5783290 109.6648150  38.2845620  32.9520980 109.8178470
  38.1902490  32.3341730 109.0929340  37.7043010  33.6787270 109.5908380
  41.0507060  31.5094220 106.8505860  40.6024360  31.5318480 106.0051410
  40.4172260  31.1113240 107.4476160  41.4566610  40.4048550 107.4718300
  41.8754720  41.2481280 107.2994540  40.5375240  40.5420590 107.2425080
  43.7930510  38.1364730 108.8556140  43.9126720  37.5405870 109.5950980
  44.6524510  38.1734420 108.4357440  46.1318410  38.6901920 107.4318650
  45.6053630  39.2144540 106.8283790  46.4749750  39.3229310 108.0628380
  39.3074030  46.7101560 108.5876030  38.7695120  47.4347620 108.2684730
  39.5607990  46.2331900 107.7973370  40.5599280  34.6786080 110.1131960
  41.1498970  34.3701930 110.8009780  39.7419520  34.2065830 110.2691860
  45.3792710  34.2951890 110.3464980  44.6908230  33.6333430 110.2814970
  46.0998730  33.8490160 110.7913440  42.1636240  47.9452770 108.8462680
  42.0894940  48.8487910 109.1535050  41.2615080  47.6264670 108.8184750
  42.7121570  47.1111280  96.4689040  43.6072360  47.4496250  96.4907800
  42.7439200  46.3890690  95.8413320  36.3517730  42.4838330  94.6976040
  36.7892600  43.0268000  95.3533620  36.8365460  41.6585280  94.7072380
  33.5663530  45.2727360 102.1496300  33.8966540  44.4048420 101.9174940
  33.9954530  45.4785880 102.9801260  38.1625450  43.6036370  99.8098270
  37.8620990  43.4801340 100.7102180  38.0562940  42.7444960  99.4014000
  34.0553740  46.1397950 104.8877930  33.6184730  46.3198750 105.7202080
  34.6231420  46.8972570 104.7459650  49.6915920  45.6414950 109.1755240
  49.0917910  45.7007510 108.4319160  49.8209820  44.7019930 109.3052090
  50.9317370  43.3832770  94.5124950  50.1010330  43.4509420  94.9832180
  51.1089200  44.2736890  94.2091810  50.3873830  40.1280250  97.0159150
  51.1492740  40.6976900  97.1218840  50.4028200  39.5607450  97.7867460
  33.8878170  38.6518180 101.2466810  33.2327010  38.3829820 100.6026510
  34.7256120  38.5422660 100.7968790  51.3933800  40.9830350 101.8601080
  51.7642630  40.1997670 101.4537050  52.0335730  41.6719450 101.6818380
  48.3767560  42.3666930 107.2731400  47.5627400  42.7964090 107.5357190
  48.7841760  42.9785340 106.6600450  50.4393000  40.4214620  94.1731670
  50.7141840  41.3293500  94.0450890  50.2503740  40.3577150  95.1093660
  50.3358340  38.3583610  99.1661100  49.9601940  37.5911540  98.7342390
  49.6061460  38.7406310  99.6536030  34.9254100  39.0370750 105.7870150
  35.2927140  38.9498150 106.6666170  34.3564920  38.2737300 105.6877010
  49.7257960  37.5055130 108.8000620  49.4944050  37.2767880 107.8998570
  49.9862510  38.4254680 108.7545510  34.4770100  35.9479840 109.6928570
  33.5826150  35.9146600 110.0322280  35.0167650  36.1466630 110.4579820
  33.1016250  35.8617110  97.1892140  32.1980330  36.1247310  97.0143800
  33.5856870  36.1328280  96.4092100  49.6109300  36.5841100 102.4668340
  50.1346780  36.0903750 101.8358510  50.1968720  36.7191460 103.2115910
  49.7899020  36.6680970 105.9887890  48.8401730  36.6344510 106.1032880
  49.9712030  37.5781080 105.7537660  49.1009270  35.8414450  98.4060750
  49.5968390  35.6085320  99.1909630  48.9025340  35.0026290  97.9898390
  34.9809810  30.2228170 104.0411790  35.6286000  29.6725550 103.6006950
  35.4011650  30.4771320 104.8627600  50.5296430  34.4775400 100.9398430
  50.4195710  34.3231440 101.8780700  51.2904020  33.9496340 100.6973840
  48.8762150  30.4169530 107.3981430  49.5134370  31.0303670 107.7640620
  49.0237040  30.4530190 106.4530660  51.4186700  32.3083320  94.1804570
  52.3436010  32.1764500  93.9722860  51.3962490  32.3876140  95.1341020
  51.4925190  33.0793980  96.8061280  50.6976690  33.0139100  97.3354190
  51.6968470  34.0144620  96.7946630  48.4343610  47.1185530 100.7999670
  49.0302680  46.7970100 100.1234090  48.6921760  46.6457350 101.5912940
  34.7341810  30.3783840 106.7837110  34.3856630  30.8347660 107.5495290
  34.4029510  29.4840970 106.8659540  40.0412210  45.1063030 106.5500020
  39.8003570  45.3737590 105.6630540  40.9814850  45.2768760 106.6050880
  44.8841190  31.2265780 109.9448820  45.4981600  31.5445070 109.2829900
  45.4290750  30.7414370 110.5644680  51.3016370  47.1257410 107.3510660
  50.8074650  47.5226280 106.6337790  50.6929660  46.5006620 107.7447940
  35.4062450  29.9060040 110.0587880  35.9545440  29.7248090 109.2953990
  35.4717760  29.1154150 110.5944190  36.1794210  46.4965690 108.0688080
  35.5854530  46.3650390 108.8078120  36.1718050  45.6603830 107.6030180
  45.6249230  29.7897920 106.2718110  44.7509070  30.1233030 106.0691040
  45.5159980  29.3171100 107.0969980  46.5321210  31.9968790 107.6559830
  46.2034570  31.1820550 107.2761560  47.4803510  31.9538600 107.5325520
  48.9855820  47.7680830 104.6297400  48.5258790  48.5196640 104.2555420
  48.3568280  47.0487300 104.5712200  35.8106440  43.8624070 107.0196120
  35.0840500  43.2429360 106.9522070  35.8715590  44.2564680 106.1494200
  39.4151540  46.0769070 103.8045530  39.9316560  45.4656430 103.2793790
  40.0648920  46.5797850 104.2956540  42.1547040  46.9677560 104.6314510
  42.4424850  46.7131860 103.7547520  42.6670260  46.4154920 105.2220080
  43.3724050  30.7067760 105.2111020  42.5895840  31.1813260 105.4907780
  43.0786980  29.8022590 105.1024200  47.9245120  31.4090860 103.2560110
  48.3653210  31.3535960 102.4081710  47.6552710  32.3248870 103.3270290
  49.7883690  31.0406100 101.2668930  49.7272090  30.0967320 101.1199950
  50.5675720  31.1486190 101.8122390  34.0936440  47.1798460 100.2292880
  33.9258480  46.5469140 100.9274770  33.2270950  47.3857860  99.8787070
  34.7164460  31.0115240  97.7324740  35.4743820  31.1244120  97.1588770
  34.2541630  31.8484440  97.6868170  41.2578270  33.1254510 100.7227050
  40.4452780  32.7511400 100.3822930  41.7619910  32.3699590 101.0248240
  45.7603250  29.7896960 101.9610120  46.3632620  30.3617170 102.4358640
  45.0196240  30.3536400 101.7384020  35.6999140  45.8731690  97.6743020
  35.1746760  46.2539720  96.9704980  35.6243720  46.4982460  98.3952730
  50.4564460  47.4319230  98.9956960  50.6316650  46.7456970  98.3517880
  49.7586030  47.9566280  98.6033630  38.2992110  47.8214070  96.5492270
  39.0310930  47.5373350  96.0016160  38.5585780  47.5827350  97.4391650
  37.4606900  43.9378800  96.5538600  36.8315780  44.4063900  97.1024430
  37.5754730  43.0928020  96.9884790  37.0640490  40.0783290  85.4624830
  36.2325370  39.8232000  85.8621340  37.6721470  40.1494060  86.1982750
  37.0441750  44.1123380  85.6582850  37.3469790  43.2221120  85.4793070
  37.7885340  44.6693600  85.4305100  33.4365450  37.6390830  85.1306920
  34.0081560  36.8713030  85.1310560  33.4366990  37.9379590  84.2213530
  37.6493830  33.6216680  80.2805600  37.7560580  34.5220410  80.5874360
  36.7386190  33.5734650  79.9900250  35.2976990  35.5435690  85.5258190
  35.9787100  35.8074060  86.1445590  34.9825040  34.7036560  85.8596200
  39.4901560  36.5903050  84.6130780  39.9979780  37.0884020  85.2535800
  40.0214800  35.8138250  84.4370140  39.0240510  40.8696790  87.0567700
  38.6909890  41.4965710  87.6988770  39.2007190  41.3958670  86.2769370
  38.2359610  42.8377590  88.8716880  38.8533610  43.5128670  88.5901330
  37.3752730  43.2465570  88.7804380  46.6895940  46.1461130  85.5016700
  46.7023100  45.7423420  84.6338960  46.1371160  46.9208420  85.3978130
  39.5999980  42.7074970  84.8928300  39.3028270  42.1020440  84.2136080
  40.5499800  42.7452280  84.7817660  47.6885590  46.2806840  88.5551400
  47.2116150  47.0879030  88.3624010  47.0047380  45.6285170  88.7077610
  38.6918410  42.4456660  91.5436100  37.7946940  42.6696630  91.7909500
  38.7171280  42.5691600  90.5947500  37.5189630  39.3169980  90.1193470
  37.3797400  40.1892780  90.4880870  36.6370990  38.9742790  89.9741410
  39.3169980  45.2591680  92.3278620  39.2885410  45.6634630  91.4607050
  39.1534950  44.3302040  92.1650220  35.8322910  37.9152390  80.2295740
  35.7120510  38.6414480  79.6177010  35.5223800  37.1455300  79.7523650
  51.2684800  46.0418780  93.6242790  51.7444520  46.5201670  94.3031870
  51.8891960  45.9736270  92.8988290  33.4708280  41.0867530  86.0364380
  33.5488700  41.2216300  85.0920100  34.0849960  40.3783420  86.2292500
  34.7155910  42.7867720  82.4470560  34.3083990  42.9282310  81.5924160
  35.6068920  42.5027880  82.2441770  50.6718050  43.2331630  90.7842800
  50.7981110  42.9943510  89.8659980  50.7139430  42.4016170  91.2564880
  44.5334790  46.9359630  89.3537610  45.0479460  46.8467640  90.1560040
  43.6903870  47.2819330  89.6465520  46.5089190  47.2214970  78.7821610
  46.3490330  46.9317910  79.6803440  46.3435900  46.4455100  78.2466840
  38.9877570  47.0013500  80.5593230  38.8120050  46.0849040  80.3461030
  38.1333310  47.3600790  80.7991030  33.5267800  42.1281700  88.5758840
  33.6898840  41.6587060  87.7578210  33.9920250  41.6205260  89.2407680
  44.6810600  36.8466680  92.4450180  45.0064010  36.0130430  92.1052410
  45.4690930  37.3695200  92.5928510  36.7998330  34.1734380  83.4292070
  36.4598380  34.6509610  84.1859120  36.0375650  33.7199500  83.0693170
  35.1006780  41.5033130  90.7354650  34.7161570  40.8626800  91.3337610
  35.4118970  42.2069250  91.3049380  41.2503920  38.3509670  86.2163270
  41.6174050  37.8768240  86.9624610  41.0608980  39.2251240  86.5571610
  34.1144410  33.0953360  82.3456740  33.8291330  32.7309030  83.1835360
  34.0523270  32.3633820  81.7319880  43.7091860  40.6653720  90.8109720
  43.6429170  39.7449390  90.5567310  43.0797000  40.7629160  91.5254360
  43.6408590  43.4874290  90.5613520  43.6553130  42.5555250  90.3432430
  42.9333690  43.5734050  91.2003290  43.0742490  45.1291860  87.6554020
  43.7184710  45.3351240  88.3327440  43.4371930  44.3680260  87.2024870
  46.1212190  43.9319110  89.5767530  46.4568430  44.5185800  90.2545450
  45.2012530  43.8011820  89.8065320  33.9588180  45.7094550  91.3457470
  34.0679300  44.7689290  91.2052860  33.3068740  45.9749300  90.6971200
  41.9500770  43.9810440  92.7455590  41.6297640  43.2619680  93.2901280
  41.2759130  44.6565510  92.8191650  39.9914940  44.8270890  77.6888740
  39.9825040  45.5600580  77.0733250  39.0713300  44.5802470  77.7815700
  35.5921580  40.0485780  78.4335500  34.9849530  40.7884680  78.4430800
  36.0670930  40.1385140  77.6073700  42.1256360  36.8676190  88.3330360
  42.6241610  37.3422010  88.9982210  42.2679310  35.9439710  88.5400390
  41.6192650  47.4085450  81.0461600  41.8734150  47.3706840  80.1240970
  40.6705130  47.2818780  81.0389850  38.7035450  33.7564570  77.7088540
  39.5525980  34.1934720  77.6428730  38.3366720  34.0684830  78.5360600
  49.6270810  45.4986180  84.2974370  49.7518230  46.3217350  84.7698180
  50.4936370  45.2876910  83.9498520  37.0988340  47.5917390  83.9691500
  37.8350820  47.0432850  84.2400070  37.4829260  48.4573400  83.8297490
  36.1046620  46.7763460  93.1577080  36.9059350  47.0975510  93.5712480
  35.5898440  46.4159040  93.8796990  44.9411250  42.8843330  93.1052490
  44.3349410  42.9074930  92.3648240  44.6365360  42.1526370  93.6419740
  46.3711620  46.6123620  91.7161900  47.3233370  46.5281640  91.6662140
  46.2239840  47.2765330  92.3895690  49.2620820  45.9917830  77.2153810
  48.9762330  45.5782970  76.4007990  49.0640370  46.9205540  77.0954330
  40.8782370  40.6707910  91.6348650  40.1128040  41.2392910  91.5503320
  41.0598330  40.3784120  90.7416880  48.0205720  42.4013240  92.1923670
  48.7615190  42.7389000  91.6891130  47.2578400  42.5705300  91.6393440
  46.6951380  40.4528070  90.7278880  47.1092400  40.6073150  91.5769300
  45.7602380  40.5783290  90.8904660  41.4566610  40.4048550  88.6974810
  41.8754720  41.2481280  88.5251050  40.5375240  40.5420590  88.4681590
  43.7930510  38.1364730  90.0812650  43.9126720  37.5405870  90.8207490
  44.6524510  38.1734420  89.6613950  39.3074030  46.7101560  89.8132540
  38.7695120  47.4347620  89.4941240  39.5607990  46.2331900  89.0229880
  46.0093110  30.8903520  77.6311750  46.2895400  30.0471420  77.9871170
  45.2358840  31.1226630  78.1450500  42.1636240  47.9452770  90.0719190
  42.0894940  48.8487910  90.3791560  41.2615080  47.6264670  90.0441260
  40.5472530  32.1230530  76.0758950  40.1994530  31.4454520  75.4961400
  40.7485300  31.6620040  76.8902340  33.5663530  45.2727360  83.3752810
  33.8966540  44.4048420  83.1431450  33.9954530  45.4785880  84.2057770
  38.1625450  43.6036370  81.0354780  37.8620990  43.4801340  81.9358690
  38.0562940  42.7444960  80.6270510  34.0553740  46.1397950  86.1134440
  33.6184730  46.3198750  86.9458590  34.6231420  46.8972570  85.9716160
  49.6915920  45.6414950  90.4011750  49.0917910  45.7007510  89.6575670
  49.8209820  44.7019930  90.5308600  33.8878170  38.6518180  82.4723320
  33.2327010  38.3829820  81.8283020  34.7256120  38.5422660  82.0225300
  34.9254100  39.0370750  87.0126660  35.2927140  38.9498150  87.8922680
  34.3564920  38.2737300  86.9133520  48.4343610  47.1185530  82.0256180
  49.0302680  46.7970100  81.3490600  48.6921760  46.6457350  82.8169450
  36.3406180  43.5503440  92.1746810  36.2975810  43.1796350  93.0561270
  36.4717190  44.4881010  92.3148630  40.0412210  45.1063030  87.7756530
  39.8003570  45.3737590  86.8887050  40.9814850  45.2768760  87.8307390
  51.3016370  47.1257410  88.5767170  50.8074650  47.5226280  87.8594300
  50.6929660  46.5006620  88.9704450  36.1794210  46.4965690  89.2944590
  35.5854530  46.3650390  90.0334630  36.1718050  45.6603830  88.8286690
  48.9855820  47.7680830  85.8553910  48.5258790  48.5196640  85.4811930
  48.3568280  47.0487300  85.7968710  35.8106440  43.8624070  88.2452630
  35.0840500  43.2429360  88.1778580  35.8715590  44.2564680  87.3750710
  39.4151540  46.0769070  85.0302040  39.9316560  45.4656430  84.5050300
  40.0648920  46.5797850  85.5213050  42.1547040  46.9677560  85.8571020
  42.4424850  46.7131860  84.9804030  42.6670260  46.4154920  86.4476590
  34.0936440  47.1798460  81.4549390  33.9258480  46.5469140  82.1531280
  33.2270950  47.3857860  81.1043580  48.9037850  30.1918520  78.4606910
  49.0988480  31.0901970  78.7274340  48.1167720  29.9605600  78.9539860
  42.2219400  47.8893660  93.2239220  43.1486710  47.6537930  93.2675180
  42.2069830  48.7165660  92.7425250  50.4564460  47.4319230  80.2213470
  50.6316650  46.7456970  79.5774390  49.7586030  47.9566280  79.8290140
  38.2992110  47.8214070  77.7748780  39.0310930  47.5373350  77.2272670
  38.5585780  47.5827350  78.6648160  48.7896960  47.1163520  93.0480260
  49.5822280  46.6212750  92.8406220  49.0830110  47.7953660  93.6555870
  47.0682090  44.1723670  64.5904710  46.6063620  43.4010910  64.9191880
  47.8807640  44.1989740  65.0957160  43.2945400  46.4581680  64.2108700
  42.6756840  46.9139180  63.6403140  44.1497180  46.6133140  63.8098400
  51.5912490  34.7608240  69.5416640  50.8864660  35.1489950  69.0231750
  51.8570410  35.4558530  70.1437570  37.7737660  31.2301610  70.1050710
  37.7756100  31.7474000  69.2996610  36.9441970  30.7531790  70.0820640
  46.6895940  46.1461130  66.7273210  46.7023100  45.7423420  65.8595470
  46.1371160  46.9208420  66.6234640  47.9841360  42.8677350  61.8163380
  47.8737690  41.9251680  61.9412800  47.9809610  43.2292990  62.7026140
  50.0343480  39.4478190  68.1472060  49.2062110  39.5171280  67.6722190
  50.6293960  40.0332500  67.6787890  43.8419010  44.2345850  62.6515110
  44.2814920  44.9770180  62.2370500  43.7805900  44.4772420  63.5754070
  51.2684800  46.0418780  74.8499300  51.7444520  46.5201670  75.5288380
  51.8891960  45.9736270  74.1244800  46.5089190  47.2214970  60.0078120
  46.3490330  46.9317910  60.9059950  46.3435900  46.4455100  59.4723350
  38.9877570  47.0013500  61.7849740  38.8120050  46.0849040  61.5717540
  38.1333310  47.3600790  62.0247540  46.2115320  44.7302530  58.5676120
  45.5180480  44.7279820  57.9078400  46.9538180  44.3061850  58.1370290
  45.7765250  46.3565240  62.6424610  46.2322200  45.5754620  62.9563230
  46.1157770  47.0672060  63.1865790  32.9627590  31.6148740  65.4181300
  32.6740640  32.1851600  66.1306280  33.7073350  31.1353190  65.7812530
  48.3273060  40.5944660  66.1497230  49.0472180  41.0899950  65.7593340
  48.1254880  39.9162550  65.5051100  49.8032910  44.5256370  60.7850770
  49.1609070  43.8711990  61.0594490  49.4163570  44.9311460  60.0091440
  36.6721660  29.9623170  62.1240750  36.5436290  29.9541070  63.0725670
  35.8483680  30.3006260  61.7731760  48.1930290  43.4172830  57.3227120
  47.9667870  42.7003270  57.9151760  47.8026490  43.1685270  56.4848870
  41.6192650  47.4085450  62.2718110  41.8734150  47.3706840  61.3497480
  40.6705130  47.2818780  62.2646360  49.6270810  45.4986180  65.5230880
  49.7518230  46.3217350  65.9954690  50.4936370  45.2876910  65.1755030
  49.2620820  45.9917830  58.4410320  48.9762330  45.5782970  57.6264500
  49.0640370  46.9205540  58.3210840  38.2845620  32.9520980  72.2691490
  38.1902490  32.3341730  71.5442360  37.7043010  33.6787270  72.0421400
  42.7121570  47.1111280  58.9202060  43.6072360  47.4496250  58.9420820
  42.7439200  46.3890690  58.2926340  50.9317370  43.3832770  56.9637970
  50.1010330  43.4509420  57.4345200  51.1089200  44.2736890  56.6604830
  51.3933800  40.9830350  64.3114100  51.7642630  40.1997670  63.9050070
  52.0335730  41.6719450  64.1331400  50.3358340  38.3583610  61.6174120
  49.9601940  37.5911540  61.1855410  49.6061460  38.7406310  62.1049050
  49.7899020  36.6680970  68.4400910  48.8401730  36.6344510  68.5545900
  49.9712030  37.5781080  68.2050680  34.9809810  30.2228170  66.4924810
  35.6286000  29.6725550  66.0519970  35.4011650  30.4771320  67.3140620
  48.8762150  30.4169530  69.8494450  49.5134370  31.0303670  70.2153640
  49.0237040  30.4530190  68.9043680  48.4343610  47.1185530  63.2512690
  49.0302680  46.7970100  62.5747110  48.6921760  46.6457350  64.0425960
  42.2466630  31.5695720  72.7569550  42.1855520  32.1617550  73.5064960
  43.1867010  31.4621680  72.6119810  44.8841190  31.2265780  72.3961840
  45.4981600  31.5445070  71.7342920  45.4290750  30.7414370  73.0157700
  51.3016370  47.1257410  69.8023680  50.8074650  47.5226280  69.0850810
  50.6929660  46.5006620  70.1960960  46.5321210  31.9968790  70.1072850
  46.2034570  31.1820550  69.7274580  47.4803510  31.9538600  69.9838540
  48.9855820  47.7680830  67.0810420  48.5258790  48.5196640  66.7068440
  48.3568280  47.0487300  67.0225220  50.4564460  47.4319230  61.4469980
  50.6316650  46.7456970  60.8030900  49.7586030  47.9566280  61.0546650
  48.7896960  47.1163520  74.2736770  49.5822280  46.6212750  74.0662730
  49.0830110  47.7953660  74.8812380  47.0682090  44.1723670  45.8161220
  46.6063620  43.4010910  46.1448390  47.8807640  44.1989740  46.3213670
  37.0441750  44.1123380  48.1095870  37.3469790  43.2221120  47.9306090
  37.7885340  44.6693600  47.8818120  35.4732440  35.0385180  41.6980240
  34.5849140  35.3801150  41.5960120  35.7573630  34.8385500  40.8061070
  33.4365450  37.6390830  47.5819940  34.0081560  36.8713030  47.5823580
  33.4366990  37.9379590  46.6726550  43.2945400  46.4581680  45.4365210
  42.6756840  46.9139180  44.8659650  44.1497180  46.6133140  45.0354910
  42.4883650  42.4420670  47.0432250  42.4191930  41.5010610  46.8821380
  43.2503510  42.5322080  47.6154820  37.6493830  33.6216680  42.7318620
  37.7560580  34.5220410  43.0387380  36.7386190  33.5734650  42.4413270
  39.4901560  36.5903050  47.0643800  39.9979780  37.0884020  47.7048820
  40.0214800  35.8138250  46.8883160  44.1608750  41.3420920  42.8297120
  43.5426020  41.8070370  42.2659840  44.6732000  42.0348400  43.2466630
  33.5291950  42.0277450  40.2036750  33.1519930  42.5164550  39.4721650
  33.7865020  42.7002730  40.8343280  49.1537200  44.3017000  49.2384540
  48.4700720  44.9716110  49.2301210  49.6931490  44.4997650  48.4729400
  46.6895940  46.1461130  47.9529720  46.7023100  45.7423420  47.0851980
  46.1371160  46.9208420  47.8491150  47.9841360  42.8677350  43.0419890
  47.8737690  41.9251680  43.1669310  47.9809610  43.2292990  43.9282650
  43.5261640  38.4942670  42.3982380  42.5990920  38.4280050  42.6270850
  43.6786460  39.4322800  42.2837620  43.5130720  34.7659670  39.3949540
  42.5734390  34.9273630  39.4802000  43.8313980  35.4845350  38.8485530
  47.5558930  40.0562970  42.9017630  46.9371350  39.7182520  42.2543930
  47.5383380  39.4122730  43.6096820  39.1318280  39.0207410  45.1802110
  38.7275280  38.3084660  44.6848010  39.2181400  38.6760650  46.0690150
  39.5999980  42.7074970  47.3441320  39.3028270  42.1020440  46.6649100
  40.5499800  42.7452280  47.2330680  47.6885590  46.2806840  51.0064420
  47.2116150  47.0879030  50.8137030  47.0047380  45.6285170  51.1590630
  45.7323630  39.2949780  39.9090380  46.1716910  38.4572210  39.7628200
  46.4452050  39.9279180  39.9954520  43.8419010  44.2345850  43.8771620
  44.2814920  44.9770180  43.4627010  43.7805900  44.4772420  44.8010580
  49.3140770  30.5492590  38.2231420  49.0013430  30.6419420  39.1230490
  50.0753240  31.1273620  38.1728850  35.8322910  37.9152390  42.6808760
  35.7120510  38.6414480  42.0690030  35.5223800  37.1455300  42.2036670
  51.2684800  46.0418780  56.0755810  51.7444520  46.5201670  56.7544890
  51.8891960  45.9736270  55.3501310  33.4708280  41.0867530  48.4877400
  33.5488700  41.2216300  47.5433120  34.0849960  40.3783420  48.6805520
  34.7155910  42.7867720  44.8983580  34.3083990  42.9282310  44.0437180
  35.6068920  42.5027880  44.6954790  50.6718050  43.2331630  53.2355820
  50.7981110  42.9943510  52.3173000  50.7139430  42.4016170  53.7077900
  44.5334790  46.9359630  51.8050630  45.0479460  46.8467640  52.6073060
  43.6903870  47.2819330  52.0978540  46.5089190  47.2214970  41.2334630
  46.3490330  46.9317910  42.1316460  46.3435900  46.4455100  40.6979860
  38.9877570  47.0013500  43.0106250  38.8120050  46.0849040  42.7974050
  38.1333310  47.3600790  43.2504050  46.2115320  44.7302530  39.7932630
  45.5180480  44.7279820  39.1334910  46.9538180  44.3061850  39.3626800
  45.7765250  46.3565240  43.8681120  46.2322200  45.5754620  44.1819740
  46.1157770  47.0672060  44.4122300  41.4145390  30.8798160  40.9438260
  40.7899570  30.8758030  41.6691570  41.3275510  30.0129120  40.5474230
  38.0900790  36.3821030  43.7913680  37.8641710  36.1658200  44.6960300
  37.3093320  36.8149490  43.4459650  45.3198550  36.3884400  42.3904330
  44.7207440  37.1120200  42.2067950  45.8678160  36.3261180  41.6080780
  43.9263420  35.0247940  44.4207610  44.3192990  35.3420140  43.6076300
  44.2880270  34.1459820  44.5352130  32.9627590  31.6148740  46.6437810
  32.6740640  32.1851600  47.3562790  33.7073350  31.1353190  47.0069040
  33.1497820  35.5568860  37.8540530  33.0672490  36.4999620  37.9955520
  32.7980880  35.4143770  36.9752880  41.0116100  35.2919970  39.9117640
  41.1328920  35.2506450  40.8603460  40.6264610  36.1544120  39.7564370
  40.0237600  37.6021110  39.3100940  39.4554500  37.1539360  38.6836850
  40.7326600  37.9613890  38.7766090  34.1144410  33.0953360  44.7969760
  33.8291330  32.7309030  45.6348380  34.0523270  32.3633820  44.1832900
  37.5685080  41.5979300  41.5827350  36.7947340  41.0576920  41.4226070
  38.2979710  41.0785910  41.2445110  48.3273060  40.5944660  47.3753740
  49.0472180  41.0899950  46.9849850  48.1254880  39.9162550  46.7307610
  43.7883000  31.9882620  41.5183130  42.9747610  31.4895790  41.4428440
  43.5944950  32.8280870  41.1019480  46.5031390  36.3602270  39.8145290
  47.3911010  36.6719500  39.6396630  46.4736480  35.4874520  39.4225870
  37.6122480  41.2659680  45.2206160  38.1301150  40.4627940  45.1663050
  37.1606500  41.2038820  46.0622990  42.4991980  42.5325960  40.4933460
  42.8407680  43.2768190  39.9976780  41.6704690  42.8457080  40.8558290
  43.6408590  43.4874290  53.0126540  43.6553130  42.5555250  52.7945450
  42.9333690  43.5734050  53.6516310  48.7745660  37.6714110  39.2825150
  48.6909380  38.1028330  38.4321590  49.4939850  38.1312460  39.7151970
  49.8519800  40.1281630  52.3595120  49.1267990  40.7210410  52.1624510
  50.3795260  40.1205170  51.5608490  49.8032910  44.5256370  42.0107280
  49.1609070  43.8711990  42.2851000  49.4163570  44.9311460  41.2347950
  45.3819390  41.8541800  45.8578970  45.7343210  41.2569930  45.1980340
  44.4981720  41.5286030  46.0287220  41.4682670  42.6139490  43.2649380
  42.1553800  43.1608700  43.6456970  40.6815090  43.1580220  43.2998990
  33.6075070  38.2312310  38.7566460  34.4769920  38.5137110  39.0402380
  33.1165390  39.0448180  38.6415270  40.7709880  39.6185520  42.8774740
  41.2272660  40.4290770  43.1034930  40.4198090  39.3008660  43.7093230
  43.0742490  45.1291860  50.1067040  43.7184710  45.3351240  50.7840460
  43.4371930  44.3680260  49.6537890  36.6721660  29.9623170  43.3497260
  36.5436290  29.9541070  44.2982180  35.8483680  30.3006260  42.9988270
  44.3474570  43.1324210  48.8244490  44.9896800  42.4317370  48.9376660
  44.8723920  43.9122650  48.6441380  48.1930290  43.4172830  38.5483630
  47.9667870  42.7003270  39.1408270  47.8026490  43.1685270  37.7105380
  46.1212190  43.9319110  52.0280550  46.4568430  44.5185800  52.7058470
  45.2012530  43.8011820  52.2578340  33.9746320  47.4439690  39.3228090
  34.3343960  48.0429030  38.6685360  33.8338660  47.9899580  40.0963120
  47.7746540  41.3344770  40.2097790  47.4868240  41.7957460  40.9975670
  48.5698710  40.8742540  40.4782010  41.9500770  43.9810440  55.1968610
  41.6297640  43.2619680  55.7414300  41.2759130  44.6565510  55.2704670
  39.9914940  44.8270890  40.1401760  39.9825040  45.5600580  39.5246270
  39.0713300  44.5802470  40.2328720  35.5921580  40.0485780  40.8848520
  34.9849530  40.7884680  40.8943820  36.0670930  40.1385140  40.0586720
  42.9774540  44.8899130  38.8026950  43.0786520  44.6863120  37.8728930
  42.0776280  44.6357410  39.0074730  40.5000430  35.4479490  42.7850850
  39.7916580  35.9165830  43.2264460  40.7844910  34.7901500  43.4196040
  41.6192650  47.4085450  43.4974620  41.8734150  47.3706840  42.5753990
  40.6705130  47.2818780  43.4902870  38.7035450  33.7564570  40.1601560
  39.5525980  34.1934720  40.0941750  38.3366720  34.0684830  40.9873620
  37.6026870  40.0096930  38.6337090  38.3690140  39.8978290  39.1962520
  37.6801560  39.3134900  37.9813860  36.2973630  37.4422000  39.3169980
  36.3777220  36.4949510  39.4287380  37.1893380  37.7728880  39.4230640
  49.6270810  45.4986180  46.7487390  49.7518230  46.3217350  47.2211200
  50.4936370  45.2876910  46.4011540  37.0988340  47.5917390  46.4204520
  37.8350820  47.0432850  46.6913090  37.4829260  48.4573400  46.2810510
  33.9833820  43.6590960  42.2946030  33.0573600  43.9012100  42.2851440
  34.4490250  44.4865220  42.1730780  40.2090650  46.7647700  38.2430090
  41.0019260  47.0536530  37.7911880  39.6895000  46.3339870  37.5642570
  46.3711620  46.6123620  54.1674920  47.3233370  46.5281640  54.1175160
  46.2239840  47.2765330  54.8408710  49.2620820  45.9917830  39.6666830
  48.9762330  45.5782970  38.8521010  49.0640370  46.9205540  39.5467350
  40.7268050  41.9851110  38.1072440  40.6218690  41.3703460  38.8333820
  40.5592270  41.4617000  37.3235450  43.9670780  41.0471140  38.7114430
  43.4180880  41.4940440  39.3557170  44.5890040  40.5420390  39.2352100
  48.0205720  42.4013240  54.6436690  48.7615190  42.7389000  54.1404150
  47.2578400  42.5705300  54.0906460  39.6345900  40.0062060  40.6079730
  40.0562320  39.8401930  41.4511120  39.7596740  39.1962290  40.1134870
  42.1473540  39.0299670  37.8556830  42.6679200  38.3148690  37.4897980
  42.7941940  39.6685540  38.1557340  38.5304800  36.0795290  37.5537890
  38.3293860  35.2162650  37.9151230  38.3596850  35.9928650  36.6159490
  39.3074030  46.7101560  52.2645560  38.7695120  47.4347620  51.9454260
  39.5607990  46.2331900  51.4742900  46.0093110  30.8903520  40.0824770
  46.2895400  30.0471420  40.4384190  45.2358840  31.1226630  40.5963520
  37.3287600  33.1795910  37.5415770  37.6313500  33.1863340  36.6334920
  38.0682190  32.8293770  38.0383430  42.1636240  47.9452770  52.5232210
  42.0894940  48.8487910  52.8304580  41.2615080  47.6264670  52.4954280
  40.5472530  32.1230530  38.5271970  40.1994530  31.4454520  37.9474420
  40.7485300  31.6620040  39.3415360  42.7121570  47.1111280  40.1458570
  43.6072360  47.4496250  40.1677330  42.7439200  46.3890690  39.5182850
  36.3517730  42.4838330  38.3745570  36.7892600  43.0268000  39.0303150
  36.8365460  41.6585280  38.3841910  33.5663530  45.2727360  45.8265830
  33.8966540  44.4048420  45.5944470  33.9954530  45.4785880  46.6570790
  38.1625450  43.6036370  43.4867800  37.8620990  43.4801340  44.3871710
  38.0562940  42.7444960  43.0783530  34.0553740  46.1397950  48.5647460
  33.6184730  46.3198750  49.3971610  34.6231420  46.8972570  48.4229180
  49.6915920  45.6414950  52.8524770  49.0917910  45.7007510  52.1088690
  49.8209820  44.7019930  52.9821620  50.9317370  43.3832770  38.1894480
  50.1010330  43.4509420  38.6601710  51.1089200  44.2736890  37.8861340
  50.3873830  40.1280250  40.6928680  51.1492740  40.6976900  40.7988370
  50.4028200  39.5607450  41.4636990  33.8878170  38.6518180  44.9236340
  33.2327010  38.3829820  44.2796040  34.7256120  38.5422660  44.4738320
  51.3933800  40.9830350  45.5370610  51.7642630  40.1997670  45.1306580
  52.0335730  41.6719450  45.3587910  48.3767560  42.3666930  50.9500930
  47.5627400  42.7964090  51.2126720  48.7841760  42.9785340  50.3369980
  50.4393000  40.4214620  37.8501200  50.7141840  41.3293500  37.7220420
  50.2503740  40.3577150  38.7863190  46.8368610  33.4459470  39.1454830
  47.2553490  33.2590450  38.3051490  46.5304670  32.5938520  39.4557760
  50.3358340  38.3583610  42.8430630  49.9601940  37.5911540  42.4111920
  49.6061460  38.7406310  43.3305560  33.1016250  35.8617110  40.8661670
  32.1980330  36.1247310  40.6913330  33.5856870  36.1328280  40.0861630
  35.6443460  34.9182650  38.7756050  36.3535160  34.4965870  38.2903330
  34.9283400  34.9857880  38.1439400  35.2917620  30.9721980  37.8158700
  36.0145750  31.5130920  38.1339920  35.5642140  30.6985400  36.9400240
  51.4186700  32.3083320  37.8574100  52.3436010  32.1764500  37.6492390
  51.3962490  32.3876140  38.8110550  51.4925190  33.0793980  40.4830810
  50.6976690  33.0139100  41.0123720  51.6968470  34.0144620  40.4716160
  48.4343610  47.1185530  44.4769200  49.0302680  46.7970100  43.8003620
  48.6921760  46.6457350  45.2682470  40.0412210  45.1063030  50.2269550
  39.8003570  45.3737590  49.3400070  40.9814850  45.2768760  50.2820410
  51.3016370  47.1257410  51.0280190  50.8074650  47.5226280  50.3107320
  50.6929660  46.5006620  51.4217470  36.1794210  46.4965690  51.7457610
  35.5854530  46.3650390  52.4847650  36.1718050  45.6603830  51.2799710
  48.9855820  47.7680830  48.3066930  48.5258790  48.5196640  47.9324950
  48.3568280  47.0487300  48.2481730  35.8106440  43.8624070  50.6965650
  35.0840500  43.2429360  50.6291600  35.8715590  44.2564680  49.8263730
  39.4151540  46.0769070  47.4815060  39.9316560  45.4656430  46.9563320
  40.0648920  46.5797850  47.9726070  42.1547040  46.9677560  48.3084040
  42.4424850  46.7131860  47.4317050  42.6670260  46.4154920  48.8989610
  34.0936440  47.1798460  43.9062410  33.9258480  46.5469140  44.6044300
  33.2270950  47.3857860  43.5556600  34.7164460  31.0115240  41.4094270
  35.4743820  31.1244120  40.8358300  34.2541630  31.8484440  41.3637700
  48.9037850  30.1918520  40.9119930  49.0988480  31.0901970  41.1787360
  48.1167720  29.9605600  41.4052880  35.6999140  45.8731690  41.3512550
  35.1746760  46.2539720  40.6474510  35.6243720  46.4982460  42.0722260
  37.0889610  31.5379290  39.9496240  37.6182370  30.7509090  39.8204190
  37.7217930  32.2170480  40.1831770  42.2219400  47.8893660  55.6752240
  43.1486710  47.6537930  55.7188200  42.2069830  48.7165660  55.1938270
  50.4564460  47.4319230  42.6726490  50.6316650  46.7456970  42.0287410
  49.7586030  47.9566280  42.2803160  38.2992110  47.8214070  40.2261800
  39.0310930  47.5373350  39.6785690  38.5585780  47.5827350  41.1161180
  37.4606900  43.9378800  40.2308130  36.8315780  44.4063900  40.7793960
  37.5754730  43.0928020  40.6654320  48.7896960  47.1163520  55.4993280
  49.5822280  46.6212750  55.2919240  49.0830110  47.7953660  56.1068890
  44.9156620  37.9884460  26.3809330  44.8350670  37.0739070  26.1101040
  44.5021040  38.4851530  25.6749040  43.0474660  39.7663480  28.2618600
  42.2716760  39.2863920  28.5517170  43.6987590  39.0869130  28.0874760
  37.0640490  40.0783290  29.1394360  36.2325370  39.8232000  29.5390870
  37.6721470  40.1494060  29.8752280  47.0682090  44.1723670  27.0417730
  46.6063620  43.4010910  27.3704900  47.8807640  44.1989740  27.5470180
  37.0441750  44.1123380  29.3352380  37.3469790  43.2221120  29.1562600
  37.7885340  44.6693600  29.1074630  35.4732440  35.0385180  22.9236750
  34.5849140  35.3801150  22.8216630  35.7573630  34.8385500  22.0317580
  33.4365450  37.6390830  28.8076450  34.0081560  36.8713030  28.8080090
  33.4366990  37.9379590  27.8983060  43.2945400  46.4581680  26.6621720
  42.6756840  46.9139180  26.0916160  44.1497180  46.6133140  26.2611420
  42.4883650  42.4420670  28.2688760  42.4191930  41.5010610  28.1077890
  43.2503510  42.5322080  28.8411330  34.6790320  33.0475190  30.5945380
  34.4993160  32.1500940  30.8748140  34.2770400  33.5947060  31.2692330
  43.5188820  35.2491050  28.4957690  43.8953640  34.3762930  28.3831360
  43.4208330  35.5849750  27.6048130  37.6493830  33.6216680  23.9575130
  37.7560580  34.5220410  24.2643890  36.7386190  33.5734650  23.6669780
  47.3012940  32.7441490  25.4286030  48.1222560  32.2538060  25.4711510
  47.3347020  33.3339150  26.1817870  35.2976990  35.5435690  29.2027720
  35.9787100  35.8074060  29.8215120  34.9825040  34.7036560  29.5365730
  39.4901560  36.5903050  28.2900310  39.9979780  37.0884020  28.9305330
  40.0214800  35.8138250  28.1139670  51.5912490  34.7608240  31.9929660
  50.8864660  35.1489950  31.4744770  51.8570410  35.4558530  32.5950590
  37.7737660  31.2301610  32.5563730  37.7756100  31.7474000  31.7509630
  36.9441970  30.7531790  32.5333660  44.1608750  41.3420920  24.0553630
  43.5426020  41.8070370  23.4916350  44.6732000  42.0348400  24.4723140
  39.0240510  40.8696790  30.7337230  38.6909890  41.4965710  31.3758300
  39.2007190  41.3958670  29.9538900  47.5374420  34.6841870  28.2013570
  46.8329990  34.9726760  28.7816680  47.8986580  35.4941980  27.8413130
  37.4552990  32.9411570  30.5634180  37.7969800  33.7853620  30.2688050
  36.5168800  33.0895310  30.6799520  38.2359610  42.8377590  32.5486410
  38.8533610  43.5128670  32.2670860  37.3752730  43.2465570  32.4573910
  33.5291950  42.0277450  21.4293260  33.1519930  42.5164550  20.6978160
  33.7865020  42.7002730  22.0599790  49.1537200  44.3017000  30.4641050
  48.4700720  44.9716110  30.4557720  49.6931490  44.4997650  29.6985910
  50.6061340  34.1296660  28.5922780  49.6586250  34.1635640  28.7238210
  50.9311330  34.9435610  28.9772140  41.1380880  30.4293840  26.8878770
  41.4455860  29.8740730  26.1714270  40.2081580  30.5638300  26.7051760
  46.6895940  46.1461130  29.1786230  46.7023100  45.7423420  28.3108490
  46.1371160  46.9208420  29.0747660  47.9841360  42.8677350  24.2676400
  47.8737690  41.9251680  24.3925820  47.9809610  43.2292990  25.1539160
  46.0881380  41.0490970  30.5068840  46.5050170  40.8351080  29.6722300
  46.8121200  41.3063760  31.0777460  43.5261640  38.4942670  23.6238890
  42.5990920  38.4280050  23.8527360  43.6786460  39.4322800  23.5094130
  43.5130720  34.7659670  20.6206050  42.5734390  34.9273630  20.7058510
  43.8313980  35.4845350  20.0742040  50.0343480  39.4478190  30.5985080
  49.2062110  39.5171280  30.1235210  50.6293960  40.0332500  30.1300910
  47.5558930  40.0562970  24.1274140  46.9371350  39.7182520  23.4800440
  47.5383380  39.4122730  24.8353330  46.9985490  36.2347510  31.5439950
  46.5856670  37.0601220  31.7979940  46.2661440  35.6492550  31.3516310
  39.1318280  39.0207410  26.4058620  38.7275280  38.3084660  25.9104520
  39.2181400  38.6760650  27.2946660  39.5999980  42.7074970  28.5697830
  39.3028270  42.1020440  27.8905610  40.5499800  42.7452280  28.4587190
  37.8446900  35.7950620  30.1857660  38.3961490  35.9045960  29.4110910
  38.3590410  36.1688220  30.9012890  47.6885590  46.2806840  32.2320930
  47.2116150  47.0879030  32.0393540  47.0047380  45.6285170  32.3847140
  38.6918410  42.4456660  35.2205630  37.7946940  42.6696630  35.4679030
  38.7171280  42.5691600  34.2717030  45.7323630  39.2949780  21.1346890
  46.1716910  38.4572210  20.9884710  46.4452050  39.9279180  21.2211030
  37.5189630  39.3169980  33.7963000  37.3797400  40.1892780  34.1650400
  36.6370990  38.9742790  33.6510940  43.8419010  44.2345850  25.1028130
  44.2814920  44.9770180  24.6883520  43.7805900  44.4772420  26.0267090
  39.3169980  45.2591680  36.0048150  39.2885410  45.6634630  35.1376580
  39.1534950  44.3302040  35.8419750  49.3140770  30.5492590  19.4487930
  49.0013430  30.6419420  20.3487000  50.0753240  31.1273620  19.3985360
  35.8322910  37.9152390  23.9065270  35.7120510  38.6414480  23.2946540
  35.5223800  37.1455300  23.4293180  51.2684800  46.0418780  37.3012320
  51.7444520  46.5201670  37.9801400  51.8891960  45.9736270  36.5757820
  33.4708280  41.0867530  29.7133910  33.5488700  41.2216300  28.7689630
  34.0849960  40.3783420  29.9062030  34.7155910  42.7867720  26.1240090
  34.3083990  42.9282310  25.2693690  35.6068920  42.5027880  25.9211300
  50.6718050  43.2331630  34.4612330  50.7981110  42.9943510  33.5429510
  50.7139430  42.4016170  34.9334410  44.5334790  46.9359630  33.0307140
  45.0479460  46.8467640  33.8329570  43.6903870  47.2819330  33.3235050
  46.5089190  47.2214970  22.4591140  46.3490330  46.9317910  23.3572970
  46.3435900  46.4455100  21.9236370  38.9877570  47.0013500  24.2362760
  38.8120050  46.0849040  24.0230560  38.1333310  47.3600790  24.4760560
  46.2115320  44.7302530  21.0189140  45.5180480  44.7279820  20.3591420
  46.9538180  44.3061850  20.5883310  45.7765250  46.3565240  25.0937630
  46.2322200  45.5754620  25.4076250  46.1157770  47.0672060  25.6378810
  50.5242060  35.2864090  35.4262070  49.9086330  35.7943760  34.8977530
  50.2038480  34.3862420  35.3688010  33.5267800  42.1281700  32.2528370
  33.6898840  41.6587060  31.4347740  33.9920250  41.6205260  32.9177210
  38.2986570  31.2587460  27.2888940  37.8554720  32.0397000  26.9573460
  38.8571560  31.5817350  27.9959880  42.5856380  34.1255980  32.8924260
  42.1235750  34.3339000  33.7044200  42.1834490  33.3115330  32.5894930
  47.5860890  35.3464930  34.0220920  46.7354480  35.0470680  34.3429990
  47.4262680  35.5906940  33.1104740  44.6810600  36.8466680  36.1219710
  45.0064010  36.0130430  35.7821940  45.4690930  37.3695200  36.2698040
  41.4145390  30.8798160  22.1694770  40.7899570  30.8758030  22.8948080
  41.3275510  30.0129120  21.7730740  40.3362470  31.8034790  29.1478540
  40.6334800  32.7097620  29.0670560  40.8848030  31.3153570  28.5338110
  38.0900790  36.3821030  25.0170190  37.8641710  36.1658200  25.9216810
  37.3093320  36.8149490  24.6716160  45.3198550  36.3884400  23.6160840
  44.7207440  37.1120200  23.4324460  45.8678160  36.3261180  22.8337290
  40.5300000  37.2806610  35.6830460  40.4343600  36.3401340  35.5330860
  41.3731980  37.5021680  35.2878530  43.9263420  35.0247940  25.6464120
  44.3192990  35.3420140  24.8332810  44.2880270  34.1459820  25.7608640
  35.6610540  33.6920280  33.8364240  35.2673930  34.5395490  34.0437020
  34.9728940  33.0546650  34.0272880  42.2355590  33.7755250  36.9060980
  41.5453910  33.5827450  37.5407070  42.9787890  34.0589890  37.4385280
  32.9627590  31.6148740  27.8694320  32.6740640  32.1851600  28.5819300
  33.7073350  31.1353190  28.2325550  33.1497820  35.5568860  19.0797040
  33.0672490  36.4999620  19.2212030  32.7980880  35.4143770  18.2009390
  44.5118560  37.6153690  29.7414900  43.7799680  38.1240500  30.0905000
  44.1142900  36.7983670  29.4403680  40.9495950  34.2907890  28.1467390
  40.9532010  33.8497840  27.2971930  41.8447070  34.6125220  28.2539210
  36.7998330  34.1734380  27.1061600  36.4598380  34.6509610  27.8628650
  36.0375650  33.7199500  26.7462700  41.0116100  35.2919970  21.1374150
  41.1328920  35.2506450  22.0859970  40.6264610  36.1544120  20.9820880
  44.9744470  33.0687370  29.1537840  44.9917210  33.5196020  29.9979690
  44.7260050  32.1693010  29.3671280  40.0237600  37.6021110  20.5357450
  39.4554500  37.1539360  19.9093360  40.7326600  37.9613890  20.0022600
  48.4015220  30.4819550  34.9924220  48.7260990  29.7509210  35.5182200
  48.4371730  30.1633190  34.0905210  35.1006780  41.5033130  34.4124180
  34.7161570  40.8626800  35.0107140  35.4118970  42.2069250  34.9818910
  41.2503920  38.3509670  29.8932800  41.6174050  37.8768240  30.6394140
  41.0608980  39.2251240  30.2341140  34.1144410  33.0953360  26.0226270
  33.8291330  32.7309030  26.8604890  34.0523270  32.3633820  25.4089410
  39.0403290  37.3918310  32.2117010  38.7360360  38.2710290  32.4367370
  39.9949750  37.4518100  32.2474450  37.5685080  41.5979300  22.8083860
  36.7947340  41.0576920  22.6482580  38.2979710  41.0785910  22.4701620
  48.3273060  40.5944660  28.6010250  49.0472180  41.0899950  28.2106360
  48.1254880  39.9162550  27.9564120  43.7883000  31.9882620  22.7439640
  42.9747610  31.4895790  22.6684950  43.5944950  32.8280870  22.3275990
  43.7091860  40.6653720  34.4879250  43.6429170  39.7449390  34.2336840
  43.0797000  40.7629160  35.2023890  46.5031390  36.3602270  21.0401800
  47.3911010  36.6719500  20.8653140  46.4736480  35.4874520  20.6482380
  37.6122480  41.2659680  26.4462670  38.1301150  40.4627940  26.3919560
  37.1606500  41.2038820  27.2879500  42.4991980  42.5325960  21.7189970
  42.8407680  43.2768190  21.2233290  41.6704690  42.8457080  22.0814800
  35.0967020  38.2321050  33.3588370  34.7381960  38.8974900  33.9461710
  34.8021580  37.4004600  33.7300990  38.2980140  38.6905290  36.2427920
  37.9980280  38.8362470  35.3455740  39.0691380  38.1310580  36.1501310
  43.6408590  43.4874290  34.2383050  43.6553130  42.5555250  34.0201960
  42.9333690  43.5734050  34.8772820  48.7745660  37.6714110  20.5081660
  48.6909380  38.1028330  19.6578100  49.4939850  38.1312460  20.9408480
  49.8519800  40.1281630  33.5851630  49.1267990  40.7210410  33.3881020
  50.3795260  40.1205170  32.7865000  49.8032910  44.5256370  23.2363790
  49.1609070  43.8711990  23.5107510  49.4163570  44.9311460  22.4604460
  45.3819390  41.8541800  27.0835480  45.7343210  41.2569930  26.4236850
  44.4981720  41.5286030  27.2543730  41.4682670  42.6139490  24.4905890
  42.1553800  43.1608700  24.8713480  40.6815090  43.1580220  24.5255500
  33.6075070  38.2312310  19.9822970  34.4769920  38.5137110  20.2658890
  33.1165390  39.0448180  19.8671780  40.7709880  39.6185520  24.1031250
  41.2272660  40.4290770  24.3291440  40.4198090  39.3008660  24.9349740
  43.0742490  45.1291860  31.3323550  43.7184710  45.3351240  32.0096970
  43.4371930  44.3680260  30.8794400  36.6721660  29.9623170  24.5753770
  36.5436290  29.9541070  25.5238690  35.8483680  30.3006260  24.2244780
  44.3474570  43.1324210  30.0501000  44.9896800  42.4317370  30.1633170
  44.8723920  43.9122650  29.8697890  48.1930290  43.4172830  19.7740140
  47.9667870  42.7003270  20.3664780  47.8026490  43.1685270  18.9361890
  46.1212190  43.9319110  33.2537060  46.4568430  44.5185800  33.9314980
  45.2012530  43.8011820  33.4834850  33.9746320  47.4439690  20.5484600
  34.3343960  48.0429030  19.8941870  33.8338660  47.9899580  21.3219630
  33.6715590  31.7214290  34.0360470  32.9574110  31.9211210  34.6413080
  34.0910630  30.9453860  34.4075270  47.7746540  41.3344770  21.4354300
  47.4868240  41.7957460  22.2232180  48.5698710  40.8742540  21.7038520
  33.9588180  45.7094550  35.0227000  34.0679300  44.7689290  34.8822390
  33.3068740  45.9749300  34.3740730  41.9500770  43.9810440  36.4225120
  41.6297640  43.2619680  36.9670810  41.2759130  44.6565510  36.4961180
  39.9914940  44.8270890  21.3658270  39.9825040  45.5600580  20.7502780
  39.0713300  44.5802470  21.4585230  35.5921580  40.0485780  22.1105030
  34.9849530  40.7884680  22.1200330  36.0670930  40.1385140  21.2843230
  45.1654370  34.2136600  31.7861920  45.5335190  33.3931810  32.1141490
  44.3052570  34.2738490  32.2017570  48.5316400  33.1693540  22.5949480
  47.9029560  33.2739210  21.8807710  48.0368320  33.3890320  23.3843360
  42.9774540  44.8899130  20.0283460  43.0786520  44.6863120  19.0985440
  42.0776280  44.6357410  20.2331240  40.5000430  35.4479490  24.0107360
  39.7916580  35.9165830  24.4520970  40.7844910  34.7901500  24.6452550
  42.1256360  36.8676190  32.0099890  42.6241610  37.3422010  32.6751740
  42.2679310  35.9439710  32.2169920  44.5315860  32.1730150  25.4503150
  44.4083640  32.1916280  24.5012660  45.4800420  32.2209090  25.5701550
  41.6192650  47.4085450  24.7231130  41.8734150  47.3706840  23.8010500
  40.6705130  47.2818780  24.7159380  38.7035450  33.7564570  21.3858070
  39.5525980  34.1934720  21.3198260  38.3366720  34.0684830  22.2130130
  49.3323220  33.0844150  32.8528280  48.8296820  33.8249550  33.1922090
  50.1479880  33.4728150  32.5365070  47.6245230  38.3277330  26.2989640
  46.6835370  38.3427560  26.4737330  47.9389300  37.5413290  26.7449940
  37.6026870  40.0096930  19.8593600  38.3690140  39.8978290  20.4219030
  37.6801560  39.3134900  19.2070370  36.2973630  37.4422000  20.5426490
  36.3777220  36.4949510  20.6543890  37.1893380  37.7728880  20.6487150
  49.6270810  45.4986180  27.9743900  49.7518230  46.3217350  28.4467710
  50.4936370  45.2876910  27.6268050  37.0988340  47.5917390  27.6461030
  37.8350820  47.0432850  27.9169600  37.4829260  48.4573400  27.5067020
  33.9833820  43.6590960  23.5202540  33.0573600  43.9012100  23.5107950
  34.4490250  44.4865220  23.3987290  36.1046620  46.7763460  36.8346610
  36.9059350  47.0975510  37.2482010  35.5898440  46.4159040  37.5566520
  40.2090650  46.7647700  19.4686600  41.0019260  47.0536530  19.0168390
  39.6895000  46.3339870  18.7899080  44.9411250  42.8843330  36.7822020
  44.3349410  42.9074930  36.0417770  44.6365360  42.1526370  37.3189270
  46.3711620  46.6123620  35.3931430  47.3233370  46.5281640  35.3431670
  46.2239840  47.2765330  36.0665220  49.2620820  45.9917830  20.8923340
  48.9762330  45.5782970  20.0777520  49.0640370  46.9205540  20.7723860
  33.8244430  39.2636920  35.7782660  34.3283450  38.6844200  36.3498890
  33.0851850  39.5477150  36.3159030  40.7268050  41.9851110  19.3328950
  40.6218690  41.3703460  20.0590330  40.5592270  41.4617000  18.5491960
  40.8782370  40.6707910  35.3118180  40.1128040  41.2392910  35.2272850
  41.0598330  40.3784120  34.4186410  43.9670780  41.0471140  19.9370940
  43.4180880  41.4940440  20.5813680  44.5890040  40.5420390  20.4608610
  48.0205720  42.4013240  35.8693200  48.7615190  42.7389000  35.3660660
  47.2578400  42.5705300  35.3162970  35.8567510  37.4066510  36.6732730
  35.8972850  37.1080380  37.5817960  36.7113010  37.8074120  36.5140250
  39.6345900  40.0062060  21.8336240  40.0562320  39.8401930  22.6767630
  39.7596740  39.1962290  21.3391380  37.7973320  35.9858610  34.6407220
  37.2669780  35.4949560  34.0130560  38.4661390  36.4142810  34.1065150
  42.1473540  39.0299670  19.0813340  42.6679200  38.3148690  18.7154490
  42.7941940  39.6685540  19.3813850  46.6951380  40.4528070  34.4048410
  47.1092400  40.6073150  35.2538830  45.7602380  40.5783290  34.5674190
  47.1673550  37.7924230  36.4087560  47.7494320  37.0376550  36.3208040
  47.3435320  38.3231670  35.6319040  38.2845620  32.9520980  34.7204510
  38.1902490  32.3341730  33.9955380  37.7043010  33.6787270  34.4934420
  41.0507060  31.5094220  31.7531900  40.6024360  31.5318480  30.9077450
  40.4172260  31.1113240  32.3502200  41.4566610  40.4048550  32.3744340
  41.8754720  41.2481280  32.2020580  40.5375240  40.5420590  32.1451120
  43.7930510  38.1364730  33.7582180  43.9126720  37.5405870  34.4977020
  44.6524510  38.1734420  33.3383480  46.1318410  38.6901920  32.3344690
  45.6053630  39.2144540  31.7309830  46.4749750  39.3229310  32.9654420
  38.5304800  36.0795290  18.7794400  38.3293860  35.2162650  19.1407740
  38.3596850  35.9928650  17.8416000  39.3074030  46.7101560  33.4902070
  38.7695120  47.4347620  33.1710770  39.5607990  46.2331900  32.6999410
  40.5599280  34.6786080  35.0158000  41.1498970  34.3701930  35.7035820
  39.7419520  34.2065830  35.1717900  45.3792710  34.2951890  35.2491020
  44.6908230  33.6333430  35.1841010  46.0998730  33.8490160  35.6939480
  46.0093110  30.8903520  21.3081280  46.2895400  30.0471420  21.6640700
  45.2358840  31.1226630  21.8220030  37.3287600  33.1795910  18.7672280
  37.6313500  33.1863340  17.8591430  38.0682190  32.8293770  19.2639940
  42.1636240  47.9452770  33.7488720  42.0894940  48.8487910  34.0561090
  41.2615080  47.6264670  33.7210790  40.5472530  32.1230530  19.7528480
  40.1994530  31.4454520  19.1730930  40.7485300  31.6620040  20.5671870
  42.7121570  47.1111280  21.3715080  43.6072360  47.4496250  21.3933840
  42.7439200  46.3890690  20.7439360  36.3517730  42.4838330  19.6002080
  36.7892600  43.0268000  20.2559660  36.8365460  41.6585280  19.6098420
  33.5663530  45.2727360  27.0522340  33.8966540  44.4048420  26.8200980
  33.9954530  45.4785880  27.8827300  38.1625450  43.6036370  24.7124310
  37.8620990  43.4801340  25.6128220  38.0562940  42.7444960  24.3040040
  34.0553740  46.1397950  29.7903970  33.6184730  46.3198750  30.6228120
  34.6231420  46.8972570  29.6485690  49.6915920  45.6414950  34.0781280
  49.0917910  45.7007510  33.3345200  49.8209820  44.7019930  34.2078130
  50.9317370  43.3832770  19.4150990  50.1010330  43.4509420  19.8858220
  51.1089200  44.2736890  19.1117850  50.3873830  40.1280250  21.9185190
  51.1492740  40.6976900  22.0244880  50.4028200  39.5607450  22.6893500
  33.8878170  38.6518180  26.1492850  33.2327010  38.3829820  25.5052550
  34.7256120  38.5422660  25.6994830  51.3933800  40.9830350  26.7627120
  51.7642630  40.1997670  26.3563090  52.0335730  41.6719450  26.5844420
  48.3767560  42.3666930  32.1757440  47.5627400  42.7964090  32.4383230
  48.7841760  42.9785340  31.5626490  50.4393000  40.4214620  19.0757710
  50.7141840  41.3293500  18.9476930  50.2503740  40.3577150  20.0119700
  46.8368610  33.4459470  20.3711340  47.2553490  33.2590450  19.5308000
  46.5304670  32.5938520  20.6814270  50.3358340  38.3583610  24.0687140
  49.9601940  37.5911540  23.6368430  49.6061460  38.7406310  24.5562070
  34.9254100  39.0370750  30.6896190  35.2927140  38.9498150  31.5692210
  34.3564920  38.2737300  30.5903050  49.7257960  37.5055130  33.7026660
  49.4944050  37.2767880  32.8024610  49.9862510  38.4254680  33.6571550
  34.4770100  35.9479840  34.5954610  33.5826150  35.9146600  34.9348320
  35.0167650  36.1466630  35.3605860  48.1646030  32.7311560  36.4806360
  49.0416210  32.7394960  36.8640360  48.1766870  31.9942400  35.8698710
  33.1016250  35.8617110  22.0918180  32.1980330  36.1247310  21.9169840
  33.5856870  36.1328280  21.3118140  49.6109300  36.5841100  27.3694380
  50.1346780  36.0903750  26.7384550  50.1968720  36.7191460  28.1141950
  49.7899020  36.6680970  30.8913930  48.8401730  36.6344510  31.0058920
  49.9712030  37.5781080  30.6563700  35.6443460  34.9182650  20.0012560
  36.3535160  34.4965870  19.5159840  34.9283400  34.9857880  19.3695910
  35.2917620  30.9721980  19.0415210  36.0145750  31.5130920  19.3596430
  35.5642140  30.6985400  18.1656750  49.1009270  35.8414450  23.3086790
  49.5968390  35.6085320  24.0935670  48.9025340  35.0026290  22.8924430
  34.9809810  30.2228170  28.9437830  35.6286000  29.6725550  28.5032990
  35.4011650  30.4771320  29.7653640  50.5296430  34.4775400  25.8424470
  50.4195710  34.3231440  26.7806740  51.2904020  33.9496340  25.5999880
  48.8762150  30.4169530  32.3007470  49.5134370  31.0303670  32.6666660
  49.0237040  30.4530190  31.3556700  51.4186700  32.3083320  19.0830610
  52.3436010  32.1764500  18.8748900  51.3962490  32.3876140  20.0367060
  51.4925190  33.0793980  21.7087320  50.6976690  33.0139100  22.2380230
  51.6968470  34.0144620  21.6972670  48.4343610  47.1185530  25.7025710
  49.0302680  46.7970100  25.0260130  48.6921760  46.6457350  26.4938980
  34.7341810  30.3783840  31.6863150  34.3856630  30.8347660  32.4521330
  34.4029510  29.4840970  31.7685580  36.3406180  43.5503440  35.8516340
  36.2975810  43.1796350  36.7330800  36.4717190  44.4881010  35.9918160
  40.0412210  45.1063030  31.4526060  39.8003570  45.3737590  30.5656580
  40.9814850  45.2768760  31.5076920  42.2466630  31.5695720  35.2082570
  42.1855520  32.1617550  35.9577980  43.1867010  31.4621680  35.0632830
  44.8841190  31.2265780  34.8474860  45.4981600  31.5445070  34.1855940
  45.4290750  30.7414370  35.4670720  51.3016370  47.1257410  32.2536700
  50.8074650  47.5226280  31.5363830  50.6929660  46.5006620  32.6473980
  35.4062450  29.9060040  34.9613920  35.9545440  29.7248090  34.1980030
  35.4717760  29.1154150  35.4970230  36.1794210  46.4965690  32.9714120
  35.5854530  46.3650390  33.7104160  36.1718050  45.6603830  32.5056220
  45.6249230  29.7897920  31.1744150  44.7509070  30.1233030  30.9717080
  45.5159980  29.3171100  31.9996020  46.5321210  31.9968790  32.5585870
  46.2034570  31.1820550  32.1787600  47.4803510  31.9538600  32.4351560
  48.9855820  47.7680830  29.5323440  48.5258790  48.5196640  29.1581460
  48.3568280  47.0487300  29.4738240  35.8106440  43.8624070  31.9222160
  35.0840500  43.2429360  31.8548110  35.8715590  44.2564680  31.0520240
  39.4151540  46.0769070  28.7071570  39.9316560  45.4656430  28.1819830
  40.0648920  46.5797850  29.1982580  42.1547040  46.9677560  29.5340550
  42.4424850  46.7131860  28.6573560  42.6670260  46.4154920  30.1246120
  43.3724050  30.7067760  30.1137060  42.5895840  31.1813260  30.3933820
  43.0786980  29.8022590  30.0050240  47.9245120  31.4090860  28.1586150
  48.3653210  31.3535960  27.3107750  47.6552710  32.3248870  28.2296330
  49.7883690  31.0406100  26.1694970  49.7272090  30.0967320  26.0225990
  50.5675720  31.1486190  26.7148430  34.0936440  47.1798460  25.1318920
  33.9258480  46.5469140  25.8300810  33.2270950  47.3857860  24.7813110
  34.7164460  31.0115240  22.6350780  35.4743820  31.1244120  22.0614810
  34.2541630  31.8484440  22.5894210  41.2578270  33.1254510  25.6253090
  40.4452780  32.7511400  25.2848970  41.7619910  32.3699590  25.9274280
  45.7603250  29.7896960  26.8636160  46.3632620  30.3617170  27.3384680
  45.0196240  30.3536400  26.6410060  48.9037850  30.1918520  22.1376440
  49.0988480  31.0901970  22.4043870  48.1167720  29.9605600  22.6309390
  35.6999140  45.8731690  22.5769060  35.1746760  46.2539720  21.8731020
  35.6243720  46.4982460  23.2978770  37.0889610  31.5379290  21.1752750
  37.6182370  30.7509090  21.0460700  37.7217930  32.2170480  21.4088280
  39.2827450  31.2754430  24.2298140  38.6530190  30.5741740  24.3968270
  38.7432590  32.0358560  24.0131300  42.2219400  47.8893660  36.9008750
  43.1486710  47.6537930  36.9444710  42.2069830  48.7165660  36.4194780
  50.4564460  47.4319230  23.8983000  50.6316650  46.7456970  23.2543920
  49.7586030  47.9566280  23.5059670  39.4083010  30.5538410  36.6650630
  39.1267280  31.0572010  35.9011450  39.7902710  29.7560160  36.2992760
  38.2992110  47.8214070  21.4518310  39.0310930  47.5373350  20.9042200
  38.5585780  47.5827350  22.3417690  37.4606900  43.9378800  21.4564640
  36.8315780  44.4063900  22.0050470  37.5754730  43.0928020  21.8910830
  46.0098470  29.9691990  37.2431100  45.8963920  30.2886600  38.1382620
  46.8268210  30.3704500  36.9468380  48.7896960  47.1163520  36.7249790
  49.5822280  46.6212750  36.5175750  49.0830110  47.7953660  37.3325400
  44.9156620  37.9884460   7.6065840  44.8350670  37.0739070   7.3357550
  44.5021040  38.4851530   6.9005550  43.0474660  39.7663480   9.4875110
  42.2716760  39.2863920   9.7773680  43.6987590  39.0869130   9.3131270
  37.0640490  40.0783290  10.3650870  36.2325370  39.8232000  10.7647380
  37.6721470  40.1494060  11.1008790  47.0682090  44.1723670   8.2674240
  46.6063620  43.4010910   8.5961410  47.8807640  44.1989740   8.7726690
  37.0441750  44.1123380  10.5608890  37.3469790  43.2221120  10.3819110
  37.7885340  44.6693600  10.3331140  35.4732440  35.0385180   4.1493260
  34.5849140  35.3801150   4.0473140  35.7573630  34.8385500   3.2574090
  33.4365450  37.6390830  10.0332960  34.0081560  36.8713030  10.0336600
  33.4366990  37.9379590   9.1239570  43.2945400  46.4581680   7.8878230
  42.6756840  46.9139180   7.3172670  44.1497180  46.6133140   7.4867930
  42.4883650  42.4420670   9.4945270  42.4191930  41.5010610   9.3334400
  43.2503510  42.5322080  10.0667840  34.6790320  33.0475190  11.8201890
  34.4993160  32.1500940  12.1004650  34.2770400  33.5947060  12.4948840
  43.5188820  35.2491050   9.7214200  43.8953640  34.3762930   9.6087870
  43.4208330  35.5849750   8.8304640  37.6493830  33.6216680   5.1831640
  37.7560580  34.5220410   5.4900400  36.7386190  33.5734650   4.8926290
  47.3012940  32.7441490   6.6542540  48.1222560  32.2538060   6.6968020
  47.3347020  33.3339150   7.4074380  35.2976990  35.5435690  10.4284230
  35.9787100  35.8074060  11.0471630  34.9825040  34.7036560  10.7622240
  39.4901560  36.5903050   9.5156820  39.9979780  37.0884020  10.1561840
  40.0214800  35.8138250   9.3396180  51.5912490  34.7608240  13.2186170
  50.8864660  35.1489950  12.7001280  51.8570410  35.4558530  13.8207100
  37.7737660  31.2301610  13.7820240  37.7756100  31.7474000  12.9766140
  36.9441970  30.7531790  13.7590170  44.1608750  41.3420920   5.2810140
  43.5426020  41.8070370   4.7172860  44.6732000  42.0348400   5.6979650
  39.0240510  40.8696790  11.9593740  38.6909890  41.4965710  12.6014810
  39.2007190  41.3958670  11.1795410  47.5374420  34.6841870   9.4270080
  46.8329990  34.9726760  10.0073190  47.8986580  35.4941980   9.0669640
  37.4552990  32.9411570  11.7890690  37.7969800  33.7853620  11.4944560
  36.5168800  33.0895310  11.9056030  38.2359610  42.8377590  13.7742920
  38.8533610  43.5128670  13.4927370  37.3752730  43.2465570  13.6830420
  33.5291950  42.0277450   2.6549770  33.1519930  42.5164550   1.9234670
  33.7865020  42.7002730   3.2856300  49.1537200  44.3017000  11.6897560
  48.4700720  44.9716110  11.6814230  49.6931490  44.4997650  10.9242420
  50.6061340  34.1296660   9.8179290  49.6586250  34.1635640   9.9494720
  50.9311330  34.9435610  10.2028650  41.1380880  30.4293840   8.1135280
  41.4455860  29.8740730   7.3970780  40.2081580  30.5638300   7.9308270
  46.6895940  46.1461130  10.4042740  46.7023100  45.7423420   9.5365000
  46.1371160  46.9208420  10.3004170  47.9841360  42.8677350   5.4932910
  47.8737690  41.9251680   5.6182330  47.9809610  43.2292990   6.3795670
  46.0881380  41.0490970  11.7325350  46.5050170  40.8351080  10.8978810
  46.8121200  41.3063760  12.3033970  43.5261640  38.4942670   4.8495400
  42.5990920  38.4280050   5.0783870  43.6786460  39.4322800   4.7350640
  43.5130720  34.7659670   1.8462560  42.5734390  34.9273630   1.9315020
  43.8313980  35.4845350   1.2998550  50.0343480  39.4478190  11.8241590
  49.2062110  39.5171280  11.3491720  50.6293960  40.0332500  11.3557420
  47.5558930  40.0562970   5.3530650  46.9371350  39.7182520   4.7056950
  47.5383380  39.4122730   6.0609840  46.9985490  36.2347510  12.7696460
  46.5856670  37.0601220  13.0236450  46.2661440  35.6492550  12.5772820
  39.1318280  39.0207410   7.6315130  38.7275280  38.3084660   7.1361030
  39.2181400  38.6760650   8.5203170  39.5999980  42.7074970   9.7954340
  39.3028270  42.1020440   9.1162120  40.5499800  42.7452280   9.6843700
  37.8446900  35.7950620  11.4114170  38.3961490  35.9045960  10.6367420
  38.3590410  36.1688220  12.1269400  47.6885590  46.2806840  13.4577440
  47.2116150  47.0879030  13.2650050  47.0047380  45.6285170  13.6103650
  38.6918410  42.4456660  16.4462140  37.7946940  42.6696630  16.6935540
  38.7171280  42.5691600  15.4973540  45.7323630  39.2949780   2.3603400
  46.1716910  38.4572210   2.2141220  46.4452050  39.9279180   2.4467540
  37.5189630  39.3169980  15.0219510  37.3797400  40.1892780  15.3906910
  36.6370990  38.9742790  14.8767450  43.8419010  44.2345850   6.3284640
  44.2814920  44.9770180   5.9140030  43.7805900  44.4772420   7.2523600
  39.3169980  45.2591680  17.2304660  39.2885410  45.6634630  16.3633090
  39.1534950  44.3302040  17.0676260  35.8322910  37.9152390   5.1321780
  35.7120510  38.6414480   4.5203050  35.5223800  37.1455300   4.6549690
  51.2684800  46.0418780  18.5268830  51.7444520  46.5201670  19.2057910
  51.8891960  45.9736270  17.8014330  33.4708280  41.0867530  10.9390420
  33.5488700  41.2216300   9.9946140  34.0849960  40.3783420  11.1318540
  34.7155910  42.7867720   7.3496600  34.3083990  42.9282310   6.4950200
  35.6068920  42.5027880   7.1467810  50.6718050  43.2331630  15.6868840
  50.7981110  42.9943510  14.7686020  50.7139430  42.4016170  16.1590920
  44.5334790  46.9359630  14.2563650  45.0479460  46.8467640  15.0586080
  43.6903870  47.2819330  14.5491560  46.5089190  47.2214970   3.6847650
  46.3490330  46.9317910   4.5829480  46.3435900  46.4455100   3.1492880
  38.9877570  47.0013500   5.4619270  38.8120050  46.0849040   5.2487070
  38.1333310  47.3600790   5.7017070  46.2115320  44.7302530   2.2445650
  45.5180480  44.7279820   1.5847930  46.9538180  44.3061850   1.8139820
  45.7765250  46.3565240   6.3194140  46.2322200  45.5754620   6.6332760
  46.1157770  47.0672060   6.8635320  50.5242060  35.2864090  16.6518580
  49.9086330  35.7943760  16.1234040  50.2038480  34.3862420  16.5944520
  33.5267800  42.1281700  13.4784880  33.6898840  41.6587060  12.6604250
  33.9920250  41.6205260  14.1433720  38.2986570  31.2587460   8.5145450
  37.8554720  32.0397000   8.1829970  38.8571560  31.5817350   9.2216390
  42.5856380  34.1255980  14.1180770  42.1235750  34.3339000  14.9300710
  42.1834490  33.3115330  13.8151440  47.5860890  35.3464930  15.2477430
  46.7354480  35.0470680  15.5686500  47.4262680  35.5906940  14.3361250
  44.6810600  36.8466680  17.3476220  45.0064010  36.0130430  17.0078450
  45.4690930  37.3695200  17.4954550  41.4145390  30.8798160   3.3951280
  40.7899570  30.8758030   4.1204590  41.3275510  30.0129120   2.9987250
  40.3362470  31.8034790  10.3735050  40.6334800  32.7097620  10.2927070
  40.8848030  31.3153570   9.7594620  38.0900790  36.3821030   6.2426700
  37.8641710  36.1658200   7.1473320  37.3093320  36.8149490   5.8972670
  45.3198550  36.3884400   4.8417350  44.7207440  37.1120200   4.6580970
  45.8678160  36.3261180   4.0593800  40.5300000  37.2806610  16.9086970
  40.4343600  36.3401340  16.7587370  41.3731980  37.5021680  16.5135040
  43.9263420  35.0247940   6.8720630  44.3192990  35.3420140   6.0589320
  44.2880270  34.1459820   6.9865150  35.6610540  33.6920280  15.0620750
  35.2673930  34.5395490  15.2693530  34.9728940  33.0546650  15.2529390
  42.2355590  33.7755250  18.1317490  41.5453910  33.5827450  18.7663580
  42.9787890  34.0589890  18.6641790  32.9627590  31.6148740   9.0950830
  32.6740640  32.1851600   9.8075810  33.7073350  31.1353190   9.4582060
  44.5118560  37.6153690  10.9671410  43.7799680  38.1240500  11.3161510
  44.1142900  36.7983670  10.6660190  40.9495950  34.2907890   9.3723900
  40.9532010  33.8497840   8.5228440  41.8447070  34.6125220   9.4795720
  36.7998330  34.1734380   8.3318110  36.4598380  34.6509610   9.0885160
  36.0375650  33.7199500   7.9719210  41.0116100  35.2919970   2.3630660
  41.1328920  35.2506450   3.3116480  40.6264610  36.1544120   2.2077390
  44.9744470  33.0687370  10.3794350  44.9917210  33.5196020  11.2236200
  44.7260050  32.1693010  10.5927790  48.4015220  30.4819550  16.2180730
  48.7260990  29.7509210  16.7438710  48.4371730  30.1633190  15.3161720
  35.1006780  41.5033130  15.6380690  34.7161570  40.8626800  16.2363650
  35.4118970  42.2069250  16.2075420  41.2503920  38.3509670  11.1189310
  41.6174050  37.8768240  11.8650650  41.0608980  39.2251240  11.4597650
  34.1144410  33.0953360   7.2482780  33.8291330  32.7309030   8.0861400
  34.0523270  32.3633820   6.6345920  39.0403290  37.3918310  13.4373520
  38.7360360  38.2710290  13.6623880  39.9949750  37.4518100  13.4730960
  37.5685080  41.5979300   4.0340370  36.7947340  41.0576920   3.8739090
  38.2979710  41.0785910   3.6958130  48.3273060  40.5944660   9.8266760
  49.0472180  41.0899950   9.4362870  48.1254880  39.9162550   9.1820630
  43.7883000  31.9882620   3.9696150  42.9747610  31.4895790   3.8941460
  43.5944950  32.8280870   3.5532500  43.7091860  40.6653720  15.7135760
  43.6429170  39.7449390  15.4593350  43.0797000  40.7629160  16.4280400
  46.5031390  36.3602270   2.2658310  47.3911010  36.6719500   2.0909650
  46.4736480  35.4874520   1.8738890  37.6122480  41.2659680   7.6719180
  38.1301150  40.4627940   7.6176070  37.1606500  41.2038820   8.5136010
  42.4991980  42.5325960   2.9446480  42.8407680  43.2768190   2.4489800
  41.6704690  42.8457080   3.3071310  35.0967020  38.2321050  14.5844880
  34.7381960  38.8974900  15.1718220  34.8021580  37.4004600  14.9557500
  38.2980140  38.6905290  17.4684430  37.9980280  38.8362470  16.5712250
  39.0691380  38.1310580  17.3757820  43.6408590  43.4874290  15.4639560
  43.6553130  42.5555250  15.2458470  42.9333690  43.5734050  16.1029330
  49.8519800  40.1281630  14.8108140  49.1267990  40.7210410  14.6137530
  50.3795260  40.1205170  14.0121510  49.8032910  44.5256370   4.4620300
  49.1609070  43.8711990   4.7364020  49.4163570  44.9311460   3.6860970
  45.3819390  41.8541800   8.3091990  45.7343210  41.2569930   7.6493360
  44.4981720  41.5286030   8.4800240  41.4682670  42.6139490   5.7162400
  42.1553800  43.1608700   6.0969990  40.6815090  43.1580220   5.7512010
  40.7709880  39.6185520   5.3287760  41.2272660  40.4290770   5.5547950
  40.4198090  39.3008660   6.1606250  43.0742490  45.1291860  12.5580060
  43.7184710  45.3351240  13.2353480  43.4371930  44.3680260  12.1050910
  36.6721660  29.9623170   5.8010280  36.5436290  29.9541070   6.7495200
  35.8483680  30.3006260   5.4501290  44.3474570  43.1324210  11.2757510
  44.9896800  42.4317370  11.3889680  44.8723920  43.9122650  11.0954400
  46.1212190  43.9319110  14.4793570  46.4568430  44.5185800  15.1571490
  45.2012530  43.8011820  14.7091360  33.6715590  31.7214290  15.2616980
  32.9574110  31.9211210  15.8669590  34.0910630  30.9453860  15.6331780
  47.7746540  41.3344770   2.6610810  47.4868240  41.7957460   3.4488690
  48.5698710  40.8742540   2.9295030  33.9588180  45.7094550  16.2483510
  34.0679300  44.7689290  16.1078900  33.3068740  45.9749300  15.5997240
  41.9500770  43.9810440  17.6481630  41.6297640  43.2619680  18.1927320
  41.2759130  44.6565510  17.7217690  39.9914940  44.8270890   2.5914780
  39.9825040  45.5600580   1.9759290  39.0713300  44.5802470   2.6841740
  35.5921580  40.0485780   3.3361540  34.9849530  40.7884680   3.3456840
  36.0670930  40.1385140   2.5099740  45.1654370  34.2136600  13.0118430
  45.5335190  33.3931810  13.3398000  44.3052570  34.2738490  13.4274080
  48.5316400  33.1693540   3.8205990  47.9029560  33.2739210   3.1064220
  48.0368320  33.3890320   4.6099870  40.5000430  35.4479490   5.2363870
  39.7916580  35.9165830   5.6777480  40.7844910  34.7901500   5.8709060
  42.1256360  36.8676190  13.2356400  42.6241610  37.3422010  13.9008250
  42.2679310  35.9439710  13.4426430  44.5315860  32.1730150   6.6759660
  44.4083640  32.1916280   5.7269170  45.4800420  32.2209090   6.7958060
  41.6192650  47.4085450   5.9487640  41.8734150  47.3706840   5.0267010
  40.6705130  47.2818780   5.9415890  38.7035450  33.7564570   2.6114580
  39.5525980  34.1934720   2.5454770  38.3366720  34.0684830   3.4386640
  49.3323220  33.0844150  14.0784790  48.8296820  33.8249550  14.4178600
  50.1479880  33.4728150  13.7621580  47.6245230  38.3277330   7.5246150
  46.6835370  38.3427560   7.6993840  47.9389300  37.5413290   7.9706450
  36.2973630  37.4422000   1.7683000  36.3777220  36.4949510   1.8800400
  37.1893380  37.7728880   1.8743660  49.6270810  45.4986180   9.2000410
  49.7518230  46.3217350   9.6724220  50.4936370  45.2876910   8.8524560
  37.0988340  47.5917390   8.8717540  37.8350820  47.0432850   9.1426110
  37.4829260  48.4573400   8.7323530  33.9833820  43.6590960   4.7459050
  33.0573600  43.9012100   4.7364460  34.4490250  44.4865220   4.6243800
  36.1046620  46.7763460  18.0603120  36.9059350  47.0975510  18.4738520
  35.5898440  46.4159040  18.7823030  44.9411250  42.8843330  18.0078530
  44.3349410  42.9074930  17.2674280  44.6365360  42.1526370  18.5445780
  46.3711620  46.6123620  16.6187940  47.3233370  46.5281640  16.5688180
  46.2239840  47.2765330  17.2921730  49.2620820  45.9917830   2.1179850
  48.9762330  45.5782970   1.3034030  49.0640370  46.9205540   1.9980370
  33.8244430  39.2636920  17.0039170  34.3283450  38.6844200  17.5755400
  33.0851850  39.5477150  17.5415540  40.8782370  40.6707910  16.5374690
  40.1128040  41.2392910  16.4529360  41.0598330  40.3784120  15.6442920
  48.0205720  42.4013240  17.0949710  48.7615190  42.7389000  16.5917170
  47.2578400  42.5705300  16.5419480  35.8567510  37.4066510  17.8989240
  35.8972850  37.1080380  18.8074470  36.7113010  37.8074120  17.7396760
  39.6345900  40.0062060   3.0592750  40.0562320  39.8401930   3.9024140
  39.7596740  39.1962290   2.5647890  37.7973320  35.9858610  15.8663730
  37.2669780  35.4949560  15.2387070  38.4661390  36.4142810  15.3321660
  46.6951380  40.4528070  15.6304920  47.1092400  40.6073150  16.4795340
  45.7602380  40.5783290  15.7930700  47.1673550  37.7924230  17.6344070
  47.7494320  37.0376550  17.5464550  47.3435320  38.3231670  16.8575550
  38.2845620  32.9520980  15.9461020  38.1902490  32.3341730  15.2211890
  37.7043010  33.6787270  15.7190930  41.0507060  31.5094220  12.9788410
  40.6024360  31.5318480  12.1333960  40.4172260  31.1113240  13.5758710
  41.4566610  40.4048550  13.6000850  41.8754720  41.2481280  13.4277090
  40.5375240  40.5420590  13.3707630  43.7930510  38.1364730  14.9838690
  43.9126720  37.5405870  15.7233530  44.6524510  38.1734420  14.5639990
  46.1318410  38.6901920  13.5601200  45.6053630  39.2144540  12.9566340
  46.4749750  39.3229310  14.1910930  39.3074030  46.7101560  14.7158580
  38.7695120  47.4347620  14.3967280  39.5607990  46.2331900  13.9255920
  40.5599280  34.6786080  16.2414510  41.1498970  34.3701930  16.9292330
  39.7419520  34.2065830  16.3974410  45.3792710  34.2951890  16.4747530
  44.6908230  33.6333430  16.4097520  46.0998730  33.8490160  16.9195990
  46.0093110  30.8903520   2.5337790  46.2895400  30.0471420   2.8897210
  45.2358840  31.1226630   3.0476540  42.1636240  47.9452770  14.9745230
  42.0894940  48.8487910  15.2817600  41.2615080  47.6264670  14.9467300
  42.7121570  47.1111280   2.5971590  43.6072360  47.4496250   2.6190350
  42.7439200  46.3890690   1.9695870  33.5663530  45.2727360   8.2778850
  33.8966540  44.4048420   8.0457490  33.9954530  45.4785880   9.1083810
  38.1625450  43.6036370   5.9380820  37.8620990  43.4801340   6.8384730
  38.0562940  42.7444960   5.5296550  34.0553740  46.1397950  11.0160480
  33.6184730  46.3198750  11.8484630  34.6231420  46.8972570  10.8742200
  49.6915920  45.6414950  15.3037790  49.0917910  45.7007510  14.5601710
  49.8209820  44.7019930  15.4334640  50.3873830  40.1280250   3.1441700
  51.1492740  40.6976900   3.2501390  50.4028200  39.5607450   3.9150010
  33.8878170  38.6518180   7.3749360  33.2327010  38.3829820   6.7309060
  34.7256120  38.5422660   6.9251340  51.3933800  40.9830350   7.9883630
  51.7642630  40.1997670   7.5819600  52.0335730  41.6719450   7.8100930
  48.3767560  42.3666930  13.4013950  47.5627400  42.7964090  13.6639740
  48.7841760  42.9785340  12.7883000  50.3358340  38.3583610   5.2943650
  49.9601940  37.5911540   4.8624940  49.6061460  38.7406310   5.7818580
  34.9254100  39.0370750  11.9152700  35.2927140  38.9498150  12.7948720
  34.3564920  38.2737300  11.8159560  49.7257960  37.5055130  14.9283170
  49.4944050  37.2767880  14.0281120  49.9862510  38.4254680  14.8828060
  34.4770100  35.9479840  15.8211120  33.5826150  35.9146600  16.1604830
  35.0167650  36.1466630  16.5862370  48.1646030  32.7311560  17.7062870
  49.0416210  32.7394960  18.0896870  48.1766870  31.9942400  17.0955220
  33.1016250  35.8617110   3.3174690  32.1980330  36.1247310   3.1426350
  33.5856870  36.1328280   2.5374650  49.6109300  36.5841100   8.5950890
  50.1346780  36.0903750   7.9641060  50.1968720  36.7191460   9.3398460
  49.7899020  36.6680970  12.1170440  48.8401730  36.6344510  12.2315430
  49.9712030  37.5781080  11.8820210  49.1009270  35.8414450   4.5343300
  49.5968390  35.6085320   5.3192180  48.9025340  35.0026290   4.1180940
  34.9809810  30.2228170  10.1694340  35.6286000  29.6725550   9.7289500
  35.4011650  30.4771320  10.9910150  50.5296430  34.4775400   7.0680980
  50.4195710  34.3231440   8.0063250  51.2904020  33.9496340   6.8256390
  48.8762150  30.4169530  13.5263980  49.5134370  31.0303670  13.8923170
  49.0237040  30.4530190  12.5813210  51.4925190  33.0793980   2.9343830
  50.6976690  33.0139100   3.4636740  51.6968470  34.0144620   2.9229180
  48.4343610  47.1185530   6.9282220  49.0302680  46.7970100   6.2516640
  48.6921760  46.6457350   7.7195490  34.7341810  30.3783840  12.9119660
  34.3856630  30.8347660  13.6777840  34.4029510  29.4840970  12.9942090
  36.3406180  43.5503440  17.0772850  36.2975810  43.1796350  17.9587310
  36.4717190  44.4881010  17.2174670  40.0412210  45.1063030  12.6782570
  39.8003570  45.3737590  11.7913090  40.9814850  45.2768760  12.7333430
  42.2466630  31.5695720  16.4339080  42.1855520  32.1617550  17.1834490
  43.1867010  31.4621680  16.2889340  44.8841190  31.2265780  16.0731370
  45.4981600  31.5445070  15.4112450  45.4290750  30.7414370  16.6927230
  51.3016370  47.1257410  13.4793210  50.8074650  47.5226280  12.7620340
  50.6929660  46.5006620  13.8730490  35.4062450  29.9060040  16.1870430
  35.9545440  29.7248090  15.4236540  35.4717760  29.1154150  16.7226740
  36.1794210  46.4965690  14.1970630  35.5854530  46.3650390  14.9360670
  36.1718050  45.6603830  13.7312730  45.6249230  29.7897920  12.4000660
  44.7509070  30.1233030  12.1973590  45.5159980  29.3171100  13.2252530
  46.5321210  31.9968790  13.7842380  46.2034570  31.1820550  13.4044110
  47.4803510  31.9538600  13.6608070  48.9855820  47.7680830  10.7579950
  48.5258790  48.5196640  10.3837970  48.3568280  47.0487300  10.6994750
  35.8106440  43.8624070  13.1478670  35.0840500  43.2429360  13.0804620
  35.8715590  44.2564680  12.2776750  39.4151540  46.0769070   9.9328080
  39.9316560  45.4656430   9.4076340  40.0648920  46.5797850  10.4239090
  42.1547040  46.9677560  10.7597060  42.4424850  46.7131860   9.8830070
  42.6670260  46.4154920  11.3502630  43.3724050  30.7067760  11.3393570
  42.5895840  31.1813260  11.6190330  43.0786980  29.8022590  11.2306750
  47.9245120  31.4090860   9.3842660  48.3653210  31.3535960   8.5364260
  47.6552710  32.3248870   9.4552840  49.7883690  31.0406100   7.3951480
  49.7272090  30.0967320   7.2482500  50.5675720  31.1486190   7.9404940
  34.0936440  47.1798460   6.3575430  33.9258480  46.5469140   7.0557320
  33.2270950  47.3857860   6.0069620  34.7164460  31.0115240   3.8607290
  35.4743820  31.1244120   3.2871320  34.2541630  31.8484440   3.8150720
  41.2578270  33.1254510   6.8509600  40.4452780  32.7511400   6.5105480
  41.7619910  32.3699590   7.1530790  45.7603250  29.7896960   8.0892670
  46.3632620  30.3617170   8.5641190  45.0196240  30.3536400   7.8666570
  48.9037850  30.1918520   3.3632950  49.0988480  31.0901970   3.6300380
  48.1167720  29.9605600   3.8565900  35.6999140  45.8731690   3.8025570
  35.1746760  46.2539720   3.0987530  35.6243720  46.4982460   4.5235280
  37.0889610  31.5379290   2.4009260  37.6182370  30.7509090   2.2717210
  37.7217930  32.2170480   2.6344790  39.2827450  31.2754430   5.4554650
  38.6530190  30.5741740   5.6224780  38.7432590  32.0358560   5.2387810
  42.2219400  47.8893660  18.1265260  43.1486710  47.6537930  18.1701220
  42.2069830  48.7165660  17.6451290  50.4564460  47.4319230   5.1239510
  50.6316650  46.7456970   4.4800430  49.7586030  47.9566280   4.7316180
  39.4083010  30.5538410  17.8907140  39.1267280  31.0572010  17.1267960
  39.7902710  29.7560160  17.5249270  38.2992110  47.8214070   2.6774820
  39.0310930  47.5373350   2.1298710  38.5585780  47.5827350   3.5674200
  37.4606900  43.9378800   2.6821150  36.8315780  44.4063900   3.2306980
  37.5754730  43.0928020   3.1167340  46.0098470  29.9691990  18.4687610
  45.8963920  30.2886600  19.3639130  46.8268210  30.3704500  18.1724890
  48.7896960  47.1163520  17.9506300  49.5822280  46.6212750  17.7432260
  49.0830110  47.7953660  18.5581910  44.9156620  19.2140970 101.4783290
  44.8350670  18.2995580 101.2075000  44.5021040  19.7108040 100.7723000
  43.0474660  20.9919990 103.3592560  42.2716760  20.5120430 103.6491130
  43.6987590  20.3125640 103.1848720  37.0640490  21.3039800 104.2368320
  36.2325370  21.0488510 104.6364830  37.6721470  21.3750570 104.9726240
  47.0682090  25.3980180 102.1391690  46.6063620  24.6267420 102.4678860
  47.8807640  25.4246250 102.6444140  37.0441750  25.3379890 104.4326340
  37.3469790  24.4477630 104.2536560  37.7885340  25.8950110 104.2048590
  33.4365450  18.8647340 103.9050410  34.0081560  18.0969540 103.9054050
  33.4366990  19.1636100 102.9957020  43.2945400  27.6838190 101.7595680
  42.6756840  28.1395690 101.1890120  44.1497180  27.8389650 101.3585380
  42.4883650  23.6677180 103.3662720  42.4191930  22.7267120 103.2051850
  43.2503510  23.7578590 103.9385290  34.6790320  14.2731700 105.6919340
  34.4993160  13.3757450 105.9722100  34.2770400  14.8203570 106.3666290
  43.5188820  16.4747560 103.5931650  43.8953640  15.6019440 103.4805320
  43.4208330  16.8106260 102.7022090  47.3012940  13.9698000 100.5259990
  48.1222560  13.4794570 100.5685470  47.3347020  14.5595660 101.2791830
  35.2976990  16.7692200 104.3001680  35.9787100  17.0330570 104.9189080
  34.9825040  15.9293070 104.6339690  39.4901560  17.8159560 103.3874270
  39.9979780  18.3140530 104.0279290  40.0214800  17.0394760 103.2113630
  51.5912490  15.9864750 107.0903620  50.8864660  16.3746460 106.5718730
  51.8570410  16.6815040 107.6924550  37.7737660  12.4558120 107.6537690
  37.7756100  12.9730510 106.8483590  36.9441970  11.9788300 107.6307620
  39.0240510  22.0953300 105.8311190  38.6909890  22.7222220 106.4732260
  39.2007190  22.6215180 105.0512860  47.5374420  15.9098380 103.2987530
  46.8329990  16.1983270 103.8790640  47.8986580  16.7198490 102.9387090
  37.4552990  14.1668080 105.6608140  37.7969800  15.0110130 105.3662010
  36.5168800  14.3151820 105.7773480  38.2359610  24.0634100 107.6460370
  38.8533610  24.7385180 107.3644820  37.3752730  24.4722080 107.5547870
  49.1537200  25.5273510 105.5615010  48.4700720  26.1972620 105.5531680
  49.6931490  25.7254160 104.7959870  50.6061340  15.3553170 103.6896740
  49.6586250  15.3892150 103.8212170  50.9311330  16.1692120 104.0746100
  41.1380880  11.6550350 101.9852730  41.4455860  11.0997240 101.2688230
  40.2081580  11.7894810 101.8025720  46.6895940  27.3717640 104.2760190
  46.7023100  26.9679930 103.4082450  46.1371160  28.1464930 104.1721620
  46.0881380  22.2747480 105.6042800  46.5050170  22.0607590 104.7696260
  46.8121200  22.5320270 106.1751420  43.5261640  19.7199180  98.7212850
  42.5990920  19.6536560  98.9501320  43.6786460  20.6579310  98.6068090
  43.5130720  15.9916180  95.7180010  42.5734390  16.1530140  95.8032470
  43.8313980  16.7101860  95.1716000  50.0343480  20.6734700 105.6959040
  49.2062110  20.7427790 105.2209170  50.6293960  21.2589010 105.2274870
  46.9985490  17.4604020 106.6413910  46.5856670  18.2857730 106.8953900
  46.2661440  16.8749060 106.4490270  39.1318280  20.2463920 101.5032580
  38.7275280  19.5341170 101.0078480  39.2181400  19.9017160 102.3920620
  39.5999980  23.9331480 103.6671790  39.3028270  23.3276950 102.9879570
  40.5499800  23.9708790 103.5561150  37.8446900  17.0207130 105.2831620
  38.3961490  17.1302470 104.5084870  38.3590410  17.3944730 105.9986850
  47.6885590  27.5063350 107.3294890  47.2116150  28.3135540 107.1367500
  47.0047380  26.8541680 107.4821100  38.6918410  23.6713170 110.3179590
  37.7946940  23.8953140 110.5652990  38.7171280  23.7948110 109.3690990
  37.5189630  20.5426490 108.8936960  37.3797400  21.4149290 109.2624360
  36.6370990  20.1999300 108.7484900  43.8419010  25.4602360 100.2002090
  44.2814920  26.2026690  99.7857480  43.7805900  25.7028930 101.1241050
  49.3140770  11.7749100  94.5461890  49.0013430  11.8675930  95.4460960
  50.0753240  12.3530130  94.4959320  33.4708280  22.3124040 104.8107870
  33.5488700  22.4472810 103.8663590  34.0849960  21.6039930 105.0035990
  34.7155910  24.0124230 101.2214050  34.3083990  24.1538820 100.3667650
  35.6068920  23.7284390 101.0185260  50.6718050  24.4588140 109.5586290
  50.7981110  24.2200020 108.6403470  50.7139430  23.6272680 110.0308370
  44.5334790  28.1616140 108.1281100  45.0479460  28.0724150 108.9303530
  43.6903870  28.5075840 108.4209010  50.5242060  16.5120600 110.5236030
  49.9086330  17.0200270 109.9951490  50.2038480  15.6118930 110.4661970
  33.5267800  23.3538210 107.3502330  33.6898840  22.8843570 106.5321700
  33.9920250  22.8461770 108.0151170  38.2986570  12.4843970 102.3862900
  37.8554720  13.2653510 102.0547420  38.8571560  12.8073860 103.0933840
  42.5856380  15.3512490 107.9898220  42.1235750  15.5595510 108.8018160
  42.1834490  14.5371840 107.6868890  47.5860890  16.5721440 109.1194880
  46.7354480  16.2727190 109.4403950  47.4262680  16.8163450 108.2078700
  41.4145390  12.1054670  97.2668730  40.7899570  12.1014540  97.9922040
  41.3275510  11.2385630  96.8704700  40.3362470  13.0291300 104.2452500
  40.6334800  13.9354130 104.1644520  40.8848030  12.5410080 103.6312070
  45.3198550  17.6140910  98.7134800  44.7207440  18.3376710  98.5298420
  45.8678160  17.5517690  97.9311250  40.5300000  18.5063120 110.7804420
  40.4343600  17.5657850 110.6304820  41.3731980  18.7278190 110.3852490
  43.9263420  16.2504450 100.7438080  44.3192990  16.5676650  99.9306770
  44.2880270  15.3716330 100.8582600  35.6610540  14.9176790 108.9338200
  35.2673930  15.7652000 109.1410980  34.9728940  14.2803160 109.1246840
  32.9627590  12.8405250 102.9668280  32.6740640  13.4108110 103.6793260
  33.7073350  12.3609700 103.3299510  44.5118560  18.8410200 104.8388860
  43.7799680  19.3497010 105.1878960  44.1142900  18.0240180 104.5377640
  40.9495950  15.5164400 103.2441350  40.9532010  15.0754350 102.3945890
  41.8447070  15.8381730 103.3513170  36.7998330  15.3990890 102.2035560
  36.4598380  15.8766120 102.9602610  36.0375650  14.9456010 101.8436660
  41.0116100  16.5176480  96.2348110  41.1328920  16.4762960  97.1833930
  40.6264610  17.3800630  96.0794840  44.9744470  14.2943880 104.2511800
  44.9917210  14.7452530 105.0953650  44.7260050  13.3949520 104.4645240
  40.0237600  18.8277620  95.6331410  39.4554500  18.3795870  95.0067320
  40.7326600  19.1870400  95.0996560  48.4015220  11.7076060 110.0898180
  48.7260990  10.9765720 110.6156160  48.4371730  11.3889700 109.1879170
  35.1006780  22.7289640 109.5098140  34.7161570  22.0883310 110.1081100
  35.4118970  23.4325760 110.0792870  41.2503920  19.5766180 104.9906760
  41.6174050  19.1024750 105.7368100  41.0608980  20.4507750 105.3315100
  39.0403290  18.6174820 107.3090970  38.7360360  19.4966800 107.5341330
  39.9949750  18.6774610 107.3448410  37.5685080  22.8235810  97.9057820
  36.7947340  22.2833430  97.7456540  38.2979710  22.3042420  97.5675580
  48.3273060  21.8201170 103.6984210  49.0472180  22.3156460 103.3080320
  48.1254880  21.1419060 103.0538080  43.7883000  13.2139130  97.8413600
  42.9747610  12.7152300  97.7658910  43.5944950  14.0537380  97.4249950
  43.7091860  21.8910230 109.5853210  43.6429170  20.9705900 109.3310800
  43.0797000  21.9885670 110.2997850  46.5031390  17.5858780  96.1375760
  47.3911010  17.8976010  95.9627100  46.4736480  16.7131030  95.7456340
  37.6122480  22.4916190 101.5436630  38.1301150  21.6884450 101.4893520
  37.1606500  22.4295330 102.3853460  42.4991980  23.7582470  96.8163930
  42.8407680  24.5024700  96.3207250  41.6704690  24.0713590  97.1788760
  35.0967020  19.4577560 108.4562330  34.7381960  20.1231410 109.0435670
  34.8021580  18.6261110 108.8274950  43.6408590  24.7130800 109.3357010
  43.6553130  23.7811760 109.1175920  42.9333690  24.7990560 109.9746780
  48.7745660  18.8970620  95.6055620  48.6909380  19.3284840  94.7552060
  49.4939850  19.3568970  96.0382440  49.8519800  21.3538140 108.6825590
  49.1267990  21.9466920 108.4854980  50.3795260  21.3461680 107.8838960
  45.3819390  23.0798310 102.1809440  45.7343210  22.4826440 101.5210810
  44.4981720  22.7542540 102.3517690  41.4682670  23.8396000  99.5879850
  42.1553800  24.3865210  99.9687440  40.6815090  24.3836730  99.6229460
  40.7709880  20.8442030  99.2005210  41.2272660  21.6547280  99.4265400
  40.4198090  20.5265170 100.0323700  43.0742490  26.3548370 106.4297510
  43.7184710  26.5607750 107.1070930  43.4371930  25.5936770 105.9768360
  36.6721660  11.1879680  99.6727730  36.5436290  11.1797580 100.6212650
  35.8483680  11.5262770  99.3218740  44.3474570  24.3580720 105.1474960
  44.9896800  23.6573880 105.2607130  44.8723920  25.1379160 104.9671850
  46.1212190  25.1575620 108.3511020  46.4568430  25.7442310 109.0288940
  45.2012530  25.0268330 108.5808810  33.9746320  28.6696200  95.6458560
  34.3343960  29.2685540  94.9915830  33.8338660  29.2156090  96.4193590
  33.6715590  12.9470800 109.1334430  32.9574110  13.1467720 109.7387040
  34.0910630  12.1710370 109.5049230  33.9588180  26.9351060 110.1200960
  34.0679300  25.9945800 109.9796350  33.3068740  27.2005810 109.4714690
  39.9914940  26.0527400  96.4632230  39.9825040  26.7857090  95.8476740
  39.0713300  25.8058980  96.5559190  45.1654370  15.4393110 106.8835880
  45.5335190  14.6188320 107.2115450  44.3052570  15.4995000 107.2991530
  48.5316400  14.3950050  97.6923440  47.9029560  14.4995720  96.9781670
  48.0368320  14.6146830  98.4817320  40.5000430  16.6736000  99.1081320
  39.7916580  17.1422340  99.5494930  40.7844910  16.0158010  99.7426510
  42.1256360  18.0932700 107.1073850  42.6241610  18.5678520 107.7725700
  42.2679310  17.1696220 107.3143880  44.5315860  13.3986660 100.5477110
  44.4083640  13.4172790  99.5986620  45.4800420  13.4465600 100.6675510
  41.6192650  28.6341960  99.8205090  41.8734150  28.5963350  98.8984460
  40.6705130  28.5075290  99.8133340  49.3323220  14.3100660 107.9502240
  48.8296820  15.0506060 108.2896050  50.1479880  14.6984660 107.6339030
  47.6245230  19.5533840 101.3963600  46.6835370  19.5684070 101.5711290
  47.9389300  18.7669800 101.8423900  49.6270810  26.7242690 103.0717860
  49.7518230  27.5473860 103.5441670  50.4936370  26.5133420 102.7242010
  37.0988340  28.8173900 102.7434990  37.8350820  28.2689360 103.0143560
  37.4829260  29.6829910 102.6040980  33.9833820  24.8847470  98.6176500
  33.0573600  25.1268610  98.6081910  34.4490250  25.7121730  98.4961250
  40.8782370  21.8964420 110.4092140  40.1128040  22.4649420 110.3246810
  41.0598330  21.6040630 109.5160370  43.9670780  22.2727650  95.0344900
  43.4180880  22.7196950  95.6787640  44.5890040  21.7676900  95.5582570
  48.0205720  23.6269750 110.9667160  48.7615190  23.9645510 110.4634620
  47.2578400  23.7961810 110.4136930  39.6345900  21.2318570  96.9310200
  40.0562320  21.0658440  97.7741590  39.7596740  20.4218800  96.4365340
  37.7973320  17.2115120 109.7381180  37.2669780  16.7206070 109.1104520
  38.4661390  17.6399320 109.2039110  46.6951380  21.6784580 109.5022370
  47.1092400  21.8329660 110.3512790  45.7602380  21.8039800 109.6648150
  38.2845620  14.1777490 109.8178470  38.1902490  13.5598240 109.0929340
  37.7043010  14.9043780 109.5908380  41.0507060  12.7350730 106.8505860
  40.6024360  12.7574990 106.0051410  40.4172260  12.3369750 107.4476160
  41.4566610  21.6305060 107.4718300  41.8754720  22.4737790 107.2994540
  40.5375240  21.7677100 107.2425080  43.7930510  19.3621240 108.8556140
  43.9126720  18.7662380 109.5950980  44.6524510  19.3990930 108.4357440
  46.1318410  19.9158430 107.4318650  45.6053630  20.4401050 106.8283790
  46.4749750  20.5485820 108.0628380  39.3074030  27.9358070 108.5876030
  38.7695120  28.6604130 108.2684730  39.5607990  27.4588410 107.7973370
  40.5599280  15.9042590 110.1131960  41.1498970  15.5958440 110.8009780
  39.7419520  15.4322340 110.2691860  45.3792710  15.5208400 110.3464980
  44.6908230  14.8589940 110.2814970  46.0998730  15.0746670 110.7913440
  46.0093110  12.1160030  96.4055240  46.2895400  11.2727930  96.7614660
  45.2358840  12.3483140  96.9193990  42.1636240  29.1709280 108.8462680
  42.0894940  30.0744420 109.1535050  41.2615080  28.8521180 108.8184750
  33.5663530  26.4983870 102.1496300  33.8966540  25.6304930 101.9174940
  33.9954530  26.7042390 102.9801260  38.1625450  24.8292880  99.8098270
  37.8620990  24.7057850 100.7102180  38.0562940  23.9701470  99.4014000
  34.0553740  27.3654460 104.8877930  33.6184730  27.5455260 105.7202080
  34.6231420  28.1229080 104.7459650  49.6915920  26.8671460 109.1755240
  49.0917910  26.9264020 108.4319160  49.8209820  25.9276440 109.3052090
  33.8878170  19.8774690 101.2466810  33.2327010  19.6086330 100.6026510
  34.7256120  19.7679170 100.7968790  51.3933800  22.2086860 101.8601080
  51.7642630  21.4254180 101.4537050  52.0335730  22.8975960 101.6818380
  48.3767560  23.5923440 107.2731400  47.5627400  24.0220600 107.5357190
  48.7841760  24.2041850 106.6600450  46.8368610  14.6715980  95.4685300
  47.2553490  14.4846960  94.6281960  46.5304670  13.8195030  95.7788230
  50.3358340  19.5840120  99.1661100  49.9601940  18.8168050  98.7342390
  49.6061460  19.9662820  99.6536030  34.9254100  20.2627260 105.7870150
  35.2927140  20.1754660 106.6666170  34.3564920  19.4993810 105.6877010
  49.7257960  18.7311640 108.8000620  49.4944050  18.5024390 107.8998570
  49.9862510  19.6511190 108.7545510  34.4770100  17.1736350 109.6928570
  33.5826150  17.1403110 110.0322280  35.0167650  17.3723140 110.4579820
  49.6109300  17.8097610 102.4668340  50.1346780  17.3160260 101.8358510
  50.1968720  17.9447970 103.2115910  49.7899020  17.8937480 105.9887890
  48.8401730  17.8601020 106.1032880  49.9712030  18.8037590 105.7537660
  49.1009270  17.0670960  98.4060750  49.5968390  16.8341830  99.1909630
  48.9025340  16.2282800  97.9898390  34.9809810  11.4484680 104.0411790
  35.6286000  10.8982060 103.6006950  35.4011650  11.7027830 104.8627600
  50.5296430  15.7031910 100.9398430  50.4195710  15.5487950 101.8780700
  51.2904020  15.1752850 100.6973840  48.8762150  11.6426040 107.3981430
  49.5134370  12.2560180 107.7640620  49.0237040  11.6786700 106.4530660
  51.4186700  13.5339830  94.1804570  52.3436010  13.4021010  93.9722860
  51.3962490  13.6132650  95.1341020  51.4925190  14.3050490  96.8061280
  50.6976690  14.2395610  97.3354190  51.6968470  15.2401130  96.7946630
  34.7341810  11.6040350 106.7837110  34.3856630  12.0604170 107.5495290
  34.4029510  10.7097480 106.8659540  40.0412210  26.3319540 106.5500020
  39.8003570  26.5994100 105.6630540  40.9814850  26.5025270 106.6050880
  44.8841190  12.4522290 109.9448820  45.4981600  12.7701580 109.2829900
  45.4290750  11.9670880 110.5644680  51.3016370  28.3513920 107.3510660
  50.8074650  28.7482790 106.6337790  50.6929660  27.7263130 107.7447940
  35.4062450  11.1316550 110.0587880  35.9545440  10.9504600 109.2953990
  35.4717760  10.3410660 110.5944190  36.1794210  27.7222200 108.0688080
  35.5854530  27.5906900 108.8078120  36.1718050  26.8860340 107.6030180
  45.6249230  11.0154430 106.2718110  44.7509070  11.3489540 106.0691040
  45.5159980  10.5427610 107.0969980  46.5321210  13.2225300 107.6559830
  46.2034570  12.4077060 107.2761560  47.4803510  13.1795110 107.5325520
  48.9855820  28.9937340 104.6297400  48.5258790  29.7453150 104.2555420
  48.3568280  28.2743810 104.5712200  35.8106440  25.0880580 107.0196120
  35.0840500  24.4685870 106.9522070  35.8715590  25.4821190 106.1494200
  39.4151540  27.3025580 103.8045530  39.9316560  26.6912940 103.2793790
  40.0648920  27.8054360 104.2956540  42.1547040  28.1934070 104.6314510
  42.4424850  27.9388370 103.7547520  42.6670260  27.6411430 105.2220080
  43.3724050  11.9324270 105.2111020  42.5895840  12.4069770 105.4907780
  43.0786980  11.0279100 105.1024200  47.9245120  12.6347370 103.2560110
  48.3653210  12.5792470 102.4081710  47.6552710  13.5505380 103.3270290
  49.7883690  12.2662610 101.2668930  49.7272090  11.3223830 101.1199950
  50.5675720  12.3742700 101.8122390  34.0936440  28.4054970 100.2292880
  33.9258480  27.7725650 100.9274770  33.2270950  28.6114370  99.8787070
  41.2578270  14.3511020 100.7227050  40.4452780  13.9767910 100.3822930
  41.7619910  13.5956100 101.0248240  45.7603250  11.0153470 101.9610120
  46.3632620  11.5873680 102.4358640  45.0196240  11.5792910 101.7384020
  48.9037850  11.4175030  97.2350400  49.0988480  12.3158480  97.5017830
  48.1167720  11.1862110  97.7283350  35.6999140  27.0988200  97.6743020
  35.1746760  27.4796230  96.9704980  35.6243720  27.7238970  98.3952730
  39.2827450  12.5010940  99.3272100  38.6530190  11.7998250  99.4942230
  38.7432590  13.2615070  99.1105260  37.4606900  25.1635310  96.5538600
  36.8315780  25.6320410  97.1024430  37.5754730  24.3184530  96.9884790
  44.9156620  19.2140970  82.7039800  44.8350670  18.2995580  82.4331510
  44.5021040  19.7108040  81.9979510  35.4732440  16.2641690  79.2467220
  34.5849140  16.6057660  79.1447100  35.7573630  16.0642010  78.3548050
  47.3012940  13.9698000  81.7516500  48.1222560  13.4794570  81.7941980
  47.3347020  14.5595660  82.5048340  47.5374420  15.9098380  84.5244040
  46.8329990  16.1983270  85.1047150  47.8986580  16.7198490  84.1643600
  50.6061340  15.3553170  84.9153250  49.6586250  15.3892150  85.0468680
  50.9311330  16.1692120  85.3002610  41.1380880  11.6550350  83.2109240
  41.4455860  11.0997240  82.4944740  40.2081580  11.7894810  83.0282230
  43.5261640  19.7199180  79.9469360  42.5990920  19.6536560  80.1757830
  43.6786460  20.6579310  79.8324600  43.5130720  15.9916180  76.9436520
  42.5734390  16.1530140  77.0288980  43.8313980  16.7101860  76.3972510
  47.5558930  21.2819480  80.4504610  46.9371350  20.9439030  79.8030910
  47.5383380  20.6379240  81.1583800  45.7323630  20.5206290  77.4577360
  46.1716910  19.6828720  77.3115180  46.4452050  21.1535690  77.5441500
  49.3140770  11.7749100  75.7718400  49.0013430  11.8675930  76.6717470
  50.0753240  12.3530130  75.7215830  46.5089190  28.4471480  78.7821610
  46.3490330  28.1574420  79.6803440  46.3435900  27.6711610  78.2466840
  50.5242060  16.5120600  91.7492540  49.9086330  17.0200270  91.2208000
  50.2038480  15.6118930  91.6918480  38.2986570  12.4843970  83.6119410
  37.8554720  13.2653510  83.2803930  38.8571560  12.8073860  84.3190350
  42.5856380  15.3512490  89.2154730  42.1235750  15.5595510  90.0274670
  42.1834490  14.5371840  88.9125400  47.5860890  16.5721440  90.3451390
  46.7354480  16.2727190  90.6660460  47.4262680  16.8163450  89.4335210
  44.6810600  18.0723190  92.4450180  45.0064010  17.2386940  92.1052410
  45.4690930  18.5951710  92.5928510  41.4145390  12.1054670  78.4925240
  40.7899570  12.1014540  79.2178550  41.3275510  11.2385630  78.0961210
  40.3362470  13.0291300  85.4709010  40.6334800  13.9354130  85.3901030
  40.8848030  12.5410080  84.8568580  45.3198550  17.6140910  79.9391310
  44.7207440  18.3376710  79.7554930  45.8678160  17.5517690  79.1567760
  43.9263420  16.2504450  81.9694590  44.3192990  16.5676650  81.1563280
  44.2880270  15.3716330  82.0839110  42.2355590  15.0011760  93.2291450
  41.5453910  14.8083960  93.8637540  42.9787890  15.2846400  93.7615750
  32.9627590  12.8405250  84.1924790  32.6740640  13.4108110  84.9049770
  33.7073350  12.3609700  84.5556020  33.1497820  16.7825370  75.4027510
  33.0672490  17.7256130  75.5442500  32.7980880  16.6400280  74.5239860
  41.0116100  16.5176480  77.4604620  41.1328920  16.4762960  78.4090440
  40.6264610  17.3800630  77.3051350  44.9744470  14.2943880  85.4768310
  44.9917210  14.7452530  86.3210160  44.7260050  13.3949520  85.6901750
  40.0237600  18.8277620  76.8587920  39.4554500  18.3795870  76.2323830
  40.7326600  19.1870400  76.3253070  48.4015220  11.7076060  91.3154690
  48.7260990  10.9765720  91.8412670  48.4371730  11.3889700  90.4135680
  34.1144410  14.3209870  82.3456740  33.8291330  13.9565540  83.1835360
  34.0523270  13.5890330  81.7319880  48.3273060  21.8201170  84.9240720
  49.0472180  22.3156460  84.5336830  48.1254880  21.1419060  84.2794590
  43.7883000  13.2139130  79.0670110  42.9747610  12.7152300  78.9915420
  43.5944950  14.0537380  78.6506460  46.5031390  17.5858780  77.3632270
  47.3911010  17.8976010  77.1883610  46.4736480  16.7131030  76.9712850
  48.7745660  18.8970620  76.8312130  48.6909380  19.3284840  75.9808570
  49.4939850  19.3568970  77.2638950  33.6075070  19.4568820  76.3053440
  34.4769920  19.7393620  76.5889360  33.1165390  20.2704690  76.1902250
  36.6721660  11.1879680  80.8984240  36.5436290  11.1797580  81.8469160
  35.8483680  11.5262770  80.5475250  47.7746540  22.5601280  77.7584770
  47.4868240  23.0213970  78.5462650  48.5698710  22.0999050  78.0268990
  48.5316400  14.3950050  78.9179950  47.9029560  14.4995720  78.2038180
  48.0368320  14.6146830  79.7073830  42.9774540  26.1155640  76.3513930
  43.0786520  25.9119630  75.4215910  42.0776280  25.8613920  76.5561710
  44.5315860  13.3986660  81.7733620  44.4083640  13.4172790  80.8243130
  45.4800420  13.4465600  81.8932020  38.7035450  14.9821080  77.7088540
  39.5525980  15.4191230  77.6428730  38.3366720  15.2941340  78.5360600
  49.3323220  14.3100660  89.1758750  48.8296820  15.0506060  89.5152560
  50.1479880  14.6984660  88.8595540  47.6245230  19.5533840  82.6220110
  46.6835370  19.5684070  82.7967800  47.9389300  18.7669800  83.0680410
  37.6026870  21.2353440  76.1824070  38.3690140  21.1234800  76.7449500
  37.6801560  20.5391410  75.5300840  36.2973630  18.6678510  76.8656960
  36.3777220  17.7206020  76.9774360  37.1893380  18.9985390  76.9717620
  40.2090650  27.9904210  75.7917070  41.0019260  28.2793040  75.3398860
  39.6895000  27.5596380  75.1129550  40.7268050  23.2107620  75.6559420
  40.6218690  22.5959970  76.3820800  40.5592270  22.6873510  74.8722430
  43.9670780  22.2727650  76.2601410  43.4180880  22.7196950  76.9044150
  44.5890040  21.7676900  76.7839080  42.1473540  20.2556180  75.4043810
  42.6679200  19.5405200  75.0384960  42.7941940  20.8942050  75.7044320
  41.0507060  12.7350730  88.0762370  40.6024360  12.7574990  87.2307920
  40.4172260  12.3369750  88.6732670  43.7930510  19.3621240  90.0812650
  43.9126720  18.7662380  90.8207490  44.6524510  19.3990930  89.6613950
  38.5304800  17.3051800  75.1024870  38.3293860  16.4419160  75.4638210
  38.3596850  17.2185160  74.1646470  45.3792710  15.5208400  91.5721490
  44.6908230  14.8589940  91.5071480  46.0998730  15.0746670  92.0169950
  46.0093110  12.1160030  77.6311750  46.2895400  11.2727930  77.9871170
  45.2358840  12.3483140  78.1450500  37.3287600  14.4052420  75.0902750
  37.6313500  14.4119850  74.1821900  38.0682190  14.0550280  75.5870410
  40.5472530  13.3487040  76.0758950  40.1994530  12.6711030  75.4961400
  40.7485300  12.8876550  76.8902340  36.3517730  23.7094840  75.9232550
  36.7892600  24.2524510  76.5790130  36.8365460  22.8841790  75.9328890
  50.9317370  24.6089280  75.7381460  50.1010330  24.6765930  76.2088690
  51.1089200  25.4993400  75.4348320  50.3873830  21.3536760  78.2415660
  51.1492740  21.9233410  78.3475350  50.4028200  20.7863960  79.0123970
  50.4393000  21.6471130  75.3988180  50.7141840  22.5550010  75.2707400
  50.2503740  21.5833660  76.3350170  46.8368610  14.6715980  76.6941810
  47.2553490  14.4846960  75.8538470  46.5304670  13.8195030  77.0044740
  50.3358340  19.5840120  80.3917610  49.9601940  18.8168050  79.9598900
  49.6061460  19.9662820  80.8792540  48.1646030  13.9568070  92.8036830
  49.0416210  13.9651470  93.1870830  48.1766870  13.2198910  92.1929180
  33.1016250  17.0873620  78.4148650  32.1980330  17.3503820  78.2400310
  33.5856870  17.3584790  77.6348610  49.6109300  17.8097610  83.6924850
  50.1346780  17.3160260  83.0615020  50.1968720  17.9447970  84.4372420
  49.7899020  17.8937480  87.2144400  48.8401730  17.8601020  87.3289390
  49.9712030  18.8037590  86.9794170  35.6443460  16.1439160  76.3243030
  36.3535160  15.7222380  75.8390310  34.9283400  16.2114390  75.6926380
  35.2917620  12.1978490  75.3645680  36.0145750  12.7387430  75.6826900
  35.5642140  11.9241910  74.4887220  49.1009270  17.0670960  79.6317260
  49.5968390  16.8341830  80.4166140  48.9025340  16.2282800  79.2154900
  50.5296430  15.7031910  82.1654940  50.4195710  15.5487950  83.1037210
  51.2904020  15.1752850  81.9230350  48.8762150  11.6426040  88.6237940
  49.5134370  12.2560180  88.9897130  49.0237040  11.6786700  87.6787170
  51.4186700  13.5339830  75.4061080  52.3436010  13.4021010  75.1979370
  51.3962490  13.6132650  76.3597530  51.4925190  14.3050490  78.0317790
  50.6976690  14.2395610  78.5610700  51.6968470  15.2401130  78.0203140
  42.2466630  12.7952230  91.5313040  42.1855520  13.3874060  92.2808450
  43.1867010  12.6878190  91.3863300  44.8841190  12.4522290  91.1705330
  45.4981600  12.7701580  90.5086410  45.4290750  11.9670880  91.7901190
  45.6249230  11.0154430  87.4974620  44.7509070  11.3489540  87.2947550
  45.5159980  10.5427610  88.3226490  46.5321210  13.2225300  88.8816340
  46.2034570  12.4077060  88.5018070  47.4803510  13.1795110  88.7582030
  43.3724050  11.9324270  86.4367530  42.5895840  12.4069770  86.7164290
  43.0786980  11.0279100  86.3280710  47.9245120  12.6347370  84.4816620
  48.3653210  12.5792470  83.6338220  47.6552710  13.5505380  84.5526800
  49.7883690  12.2662610  82.4925440  49.7272090  11.3223830  82.3456460
  50.5675720  12.3742700  83.0378900  34.0936440  28.4054970  81.4549390
  33.9258480  27.7725650  82.1531280  33.2270950  28.6114370  81.1043580
  34.7164460  12.2371750  78.9581250  35.4743820  12.3500630  78.3845280
  34.2541630  13.0740950  78.9124680  41.2578270  14.3511020  81.9483560
  40.4452780  13.9767910  81.6079440  41.7619910  13.5956100  82.2504750
  45.7603250  11.0153470  83.1866630  46.3632620  11.5873680  83.6615150
  45.0196240  11.5792910  82.9640530  48.9037850  11.4175030  78.4606910
  49.0988480  12.3158480  78.7274340  48.1167720  11.1862110  78.9539860
  35.6999140  27.0988200  78.8999530  35.1746760  27.4796230  78.1961490
  35.6243720  27.7238970  79.6209240  37.0889610  12.7635800  77.4983220
  37.6182370  11.9765600  77.3691170  37.7217930  13.4426990  77.7318750
  39.2827450  12.5010940  80.5528610  38.6530190  11.7998250  80.7198740
  38.7432590  13.2615070  80.3361770  50.4564460  28.6575740  80.2213470
  50.6316650  27.9713480  79.5774390  49.7586030  29.1822790  79.8290140
  46.0098470  11.1948500  93.5661570  45.8963920  11.5143110  94.4613090
  46.8268210  11.5961010  93.2698850  44.9156620  19.2140970  63.9296310
  44.8350670  18.2995580  63.6588020  44.5021040  19.7108040  63.2236020
  43.0474660  20.9919990  65.8105580  42.2716760  20.5120430  66.1004150
  43.6987590  20.3125640  65.6361740  37.0640490  21.3039800  66.6881340
  36.2325370  21.0488510  67.0877850  37.6721470  21.3750570  67.4239260
  47.0682090  25.3980180  64.5904710  46.6063620  24.6267420  64.9191880
  47.8807640  25.4246250  65.0957160  37.0441750  25.3379890  66.8839360
  37.3469790  24.4477630  66.7049580  37.7885340  25.8950110  66.6561610
  35.4732440  16.2641690  60.4723730  34.5849140  16.6057660  60.3703610
  35.7573630  16.0642010  59.5804560  33.4365450  18.8647340  66.3563430
  34.0081560  18.0969540  66.3567070  33.4366990  19.1636100  65.4470040
  42.4883650  23.6677180  65.8175740  42.4191930  22.7267120  65.6564870
  43.2503510  23.7578590  66.3898310  34.6790320  14.2731700  68.1432360
  34.4993160  13.3757450  68.4235120  34.2770400  14.8203570  68.8179310
  43.5188820  16.4747560  66.0444670  43.8953640  15.6019440  65.9318340
  43.4208330  16.8106260  65.1535110  37.6493830  14.8473190  61.5062110
  37.7560580  15.7476920  61.8130870  36.7386190  14.7991160  61.2156760
  35.2976990  16.7692200  66.7514700  35.9787100  17.0330570  67.3702100
  34.9825040  15.9293070  67.0852710  39.4901560  17.8159560  65.8387290
  39.9979780  18.3140530  66.4792310  40.0214800  17.0394760  65.6626650
  37.7737660  12.4558120  70.1050710  37.7756100  12.9730510  69.2996610
  36.9441970  11.9788300  70.0820640  44.1608750  22.5677430  61.6040610
  43.5426020  23.0326880  61.0403330  44.6732000  23.2604910  62.0210120
  39.0240510  22.0953300  68.2824210  38.6909890  22.7222220  68.9245280
  39.2007190  22.6215180  67.5025880  47.5374420  15.9098380  65.7500550
  46.8329990  16.1983270  66.3303660  47.8986580  16.7198490  65.3900110
  37.4552990  14.1668080  68.1121160  37.7969800  15.0110130  67.8175030
  36.5168800  14.3151820  68.2286500  38.2359610  24.0634100  70.0973390
  38.8533610  24.7385180  69.8157840  37.3752730  24.4722080  70.0060890
  33.5291950  23.2533960  58.9780240  33.1519930  23.7421060  58.2465140
  33.7865020  23.9259240  59.6086770  49.1537200  25.5273510  68.0128030
  48.4700720  26.1972620  68.0044700  49.6931490  25.7254160  67.2472890
  41.1380880  11.6550350  64.4365750  41.4455860  11.0997240  63.7201250
  40.2081580  11.7894810  64.2538740  46.0881380  22.2747480  68.0555820
  46.5050170  22.0607590  67.2209280  46.8121200  22.5320270  68.6264440
  43.5261640  19.7199180  61.1725870  42.5990920  19.6536560  61.4014340
  43.6786460  20.6579310  61.0581110  43.5130720  15.9916180  58.1693030
  42.5734390  16.1530140  58.2545490  43.8313980  16.7101860  57.6229020
  50.0343480  20.6734700  68.1472060  49.2062110  20.7427790  67.6722190
  50.6293960  21.2589010  67.6787890  47.5558930  21.2819480  61.6761120
  46.9371350  20.9439030  61.0287420  47.5383380  20.6379240  62.3840310
  46.9985490  17.4604020  69.0926930  46.5856670  18.2857730  69.3466920
  46.2661440  16.8749060  68.9003290  39.1318280  20.2463920  63.9545600
  38.7275280  19.5341170  63.4591500  39.2181400  19.9017160  64.8433640
  39.5999980  23.9331480  66.1184810  39.3028270  23.3276950  65.4392590
  40.5499800  23.9708790  66.0074170  37.8446900  17.0207130  67.7344640
  38.3961490  17.1302470  66.9597890  38.3590410  17.3944730  68.4499870
  47.6885590  27.5063350  69.7807910  47.2116150  28.3135540  69.5880520
  47.0047380  26.8541680  69.9334120  38.6918410  23.6713170  72.7692610
  37.7946940  23.8953140  73.0166010  38.7171280  23.7948110  71.8204010
  45.7323630  20.5206290  58.6833870  46.1716910  19.6828720  58.5371690
  46.4452050  21.1535690  58.7698010  37.5189630  20.5426490  71.3449980
  37.3797400  21.4149290  71.7137380  36.6370990  20.1999300  71.1997920
  43.8419010  25.4602360  62.6515110  44.2814920  26.2026690  62.2370500
  43.7805900  25.7028930  63.5754070  39.3169980  26.4848190  73.5535130
  39.2885410  26.8891140  72.6863560  39.1534950  25.5558550  73.3906730
  49.3140770  11.7749100  56.9974910  49.0013430  11.8675930  57.8973980
  50.0753240  12.3530130  56.9472340  35.8322910  19.1408900  61.4552250
  35.7120510  19.8670990  60.8433520  35.5223800  18.3711810  60.9780160
  51.2684800  27.2675290  74.8499300  51.7444520  27.7458180  75.5288380
  51.8891960  27.1992780  74.1244800  33.4708280  22.3124040  67.2620890
  33.5488700  22.4472810  66.3176610  34.0849960  21.6039930  67.4549010
  34.7155910  24.0124230  63.6727070  34.3083990  24.1538820  62.8180670
  35.6068920  23.7284390  63.4698280  50.6718050  24.4588140  72.0099310
  50.7981110  24.2200020  71.0916490  50.7139430  23.6272680  72.4821390
  44.5334790  28.1616140  70.5794120  45.0479460  28.0724150  71.3816550
  43.6903870  28.5075840  70.8722030  38.9877570  28.2270010  61.7849740
  38.8120050  27.3105550  61.5717540  38.1333310  28.5857300  62.0247540
  50.5242060  16.5120600  72.9749050  49.9086330  17.0200270  72.4464510
  50.2038480  15.6118930  72.9174990  33.5267800  23.3538210  69.8015350
  33.6898840  22.8843570  68.9834720  33.9920250  22.8461770  70.4664190
  38.2986570  12.4843970  64.8375920  37.8554720  13.2653510  64.5060440
  38.8571560  12.8073860  65.5446860  42.5856380  15.3512490  70.4411240
  42.1235750  15.5595510  71.2531180  42.1834490  14.5371840  70.1381910
  47.5860890  16.5721440  71.5707900  46.7354480  16.2727190  71.8916970
  47.4262680  16.8163450  70.6591720  44.6810600  18.0723190  73.6706690
  45.0064010  17.2386940  73.3308920  45.4690930  18.5951710  73.8185020
  41.4145390  12.1054670  59.7181750  40.7899570  12.1014540  60.4435060
  41.3275510  11.2385630  59.3217720  40.3362470  13.0291300  66.6965520
  40.6334800  13.9354130  66.6157540  40.8848030  12.5410080  66.0825090
  38.0900790  17.6077540  62.5657170  37.8641710  17.3914710  63.4703790
  37.3093320  18.0406000  62.2203140  45.3198550  17.6140910  61.1647820
  44.7207440  18.3376710  60.9811440  45.8678160  17.5517690  60.3824270
  40.5300000  18.5063120  73.2317440  40.4343600  17.5657850  73.0817840
  41.3731980  18.7278190  72.8365510  43.9263420  16.2504450  63.1951100
  44.3192990  16.5676650  62.3819790  44.2880270  15.3716330  63.3095620
  35.6610540  14.9176790  71.3851220  35.2673930  15.7652000  71.5924000
  34.9728940  14.2803160  71.5759860  42.2355590  15.0011760  74.4547960
  41.5453910  14.8083960  75.0894050  42.9787890  15.2846400  74.9872260
  32.9627590  12.8405250  65.4181300  32.6740640  13.4108110  66.1306280
  33.7073350  12.3609700  65.7812530  33.1497820  16.7825370  56.6284020
  33.0672490  17.7256130  56.7699010  32.7980880  16.6400280  55.7496370
  44.5118560  18.8410200  67.2901880  43.7799680  19.3497010  67.6391980
  44.1142900  18.0240180  66.9890660  40.9495950  15.5164400  65.6954370
  40.9532010  15.0754350  64.8458910  41.8447070  15.8381730  65.8026190
  36.7998330  15.3990890  64.6548580  36.4598380  15.8766120  65.4115630
  36.0375650  14.9456010  64.2949680  41.0116100  16.5176480  58.6861130
  41.1328920  16.4762960  59.6346950  40.6264610  17.3800630  58.5307860
  44.9744470  14.2943880  66.7024820  44.9917210  14.7452530  67.5466670
  44.7260050  13.3949520  66.9158260  40.0237600  18.8277620  58.0844430
  39.4554500  18.3795870  57.4580340  40.7326600  19.1870400  57.5509580
  48.4015220  11.7076060  72.5411200  48.7260990  10.9765720  73.0669180
  48.4371730  11.3889700  71.6392190  35.1006780  22.7289640  71.9611160
  34.7161570  22.0883310  72.5594120  35.4118970  23.4325760  72.5305890
  41.2503920  19.5766180  67.4419780  41.6174050  19.1024750  68.1881120
  41.0608980  20.4507750  67.7828120  34.1144410  14.3209870  63.5713250
  33.8291330  13.9565540  64.4091870  34.0523270  13.5890330  62.9576390
  39.0403290  18.6174820  69.7603990  38.7360360  19.4966800  69.9854350
  39.9949750  18.6774610  69.7961430  37.5685080  22.8235810  60.3570840
  36.7947340  22.2833430  60.1969560  38.2979710  22.3042420  60.0188600
  48.3273060  21.8201170  66.1497230  49.0472180  22.3156460  65.7593340
  48.1254880  21.1419060  65.5051100  43.7883000  13.2139130  60.2926620
  42.9747610  12.7152300  60.2171930  43.5944950  14.0537380  59.8762970
  43.7091860  21.8910230  72.0366230  43.6429170  20.9705900  71.7823820
  43.0797000  21.9885670  72.7510870  37.6122480  22.4916190  63.9949650
  38.1301150  21.6884450  63.9406540  37.1606500  22.4295330  64.8366480
  42.4991980  23.7582470  59.2676950  42.8407680  24.5024700  58.7720270
  41.6704690  24.0713590  59.6301780  35.0967020  19.4577560  70.9075350
  34.7381960  20.1231410  71.4948690  34.8021580  18.6261110  71.2787970
  38.2980140  19.9161800  73.7914900  37.9980280  20.0618980  72.8942720
  39.0691380  19.3567090  73.6988290  43.6408590  24.7130800  71.7870030
  43.6553130  23.7811760  71.5688940  42.9333690  24.7990560  72.4259800
  49.8519800  21.3538140  71.1338610  49.1267990  21.9466920  70.9368000
  50.3795260  21.3461680  70.3351980  45.3819390  23.0798310  64.6322460
  45.7343210  22.4826440  63.9723830  44.4981720  22.7542540  64.8030710
  41.4682670  23.8396000  62.0392870  42.1553800  24.3865210  62.4200460
  40.6815090  24.3836730  62.0742480  33.6075070  19.4568820  57.5309950
  34.4769920  19.7393620  57.8145870  33.1165390  20.2704690  57.4158760
  40.7709880  20.8442030  61.6518230  41.2272660  21.6547280  61.8778420
  40.4198090  20.5265170  62.4836720  43.0742490  26.3548370  68.8810530
  43.7184710  26.5607750  69.5583950  43.4371930  25.5936770  68.4281380
  36.6721660  11.1879680  62.1240750  36.5436290  11.1797580  63.0725670
  35.8483680  11.5262770  61.7731760  44.3474570  24.3580720  67.5987980
  44.9896800  23.6573880  67.7120150  44.8723920  25.1379160  67.4184870
  46.1212190  25.1575620  70.8024040  46.4568430  25.7442310  71.4801960
  45.2012530  25.0268330  71.0321830  33.6715590  12.9470800  71.5847450
  32.9574110  13.1467720  72.1900060  34.0910630  12.1710370  71.9562250
  41.9500770  25.2066950  73.9712100  41.6297640  24.4876190  74.5157790
  41.2759130  25.8822020  74.0448160  39.9914940  26.0527400  58.9145250
  39.9825040  26.7857090  58.2989760  39.0713300  25.8058980  59.0072210
  35.5921580  21.2742290  59.6592010  34.9849530  22.0141190  59.6687310
  36.0670930  21.3641650  58.8330210  45.1654370  15.4393110  69.3348900
  45.5335190  14.6188320  69.6628470  44.3052570  15.4995000  69.7504550
  40.5000430  16.6736000  61.5594340  39.7916580  17.1422340  62.0007950
  40.7844910  16.0158010  62.1939530  42.1256360  18.0932700  69.5586870
  42.6241610  18.5678520  70.2238720  42.2679310  17.1696220  69.7656900
  44.5315860  13.3986660  62.9990130  44.4083640  13.4172790  62.0499640
  45.4800420  13.4465600  63.1188530  38.7035450  14.9821080  58.9345050
  39.5525980  15.4191230  58.8685240  38.3366720  15.2941340  59.7617110
  49.3323220  14.3100660  70.4015260  48.8296820  15.0506060  70.7409070
  50.1479880  14.6984660  70.0852050  47.6245230  19.5533840  63.8476620
  46.6835370  19.5684070  64.0224310  47.9389300  18.7669800  64.2936920
  37.6026870  21.2353440  57.4080580  38.3690140  21.1234800  57.9706010
  37.6801560  20.5391410  56.7557350  36.2973630  18.6678510  58.0913470
  36.3777220  17.7206020  58.2030870  37.1893380  18.9985390  58.1974130
  37.0988340  28.8173900  65.1948010  37.8350820  28.2689360  65.4656580
  37.4829260  29.6829910  65.0554000  33.9833820  24.8847470  61.0689520
  33.0573600  25.1268610  61.0594930  34.4490250  25.7121730  60.9474270
  44.9411250  24.1099840  74.3309000  44.3349410  24.1331440  73.5904750
  44.6365360  23.3782880  74.8676250  46.3711620  27.8380130  72.9418410
  47.3233370  27.7538150  72.8918650  46.2239840  28.5021840  73.6152200
  33.8244430  20.4893430  73.3269640  34.3283450  19.9100710  73.8985870
  33.0851850  20.7733660  73.8646010  40.7268050  23.2107620  56.8815930
  40.6218690  22.5959970  57.6077310  40.5592270  22.6873510  56.0978940
  40.8782370  21.8964420  72.8605160  40.1128040  22.4649420  72.7759830
  41.0598330  21.6040630  71.9673390  43.9670780  22.2727650  57.4857920
  43.4180880  22.7196950  58.1300660  44.5890040  21.7676900  58.0095590
  48.0205720  23.6269750  73.4180180  48.7615190  23.9645510  72.9147640
  47.2578400  23.7961810  72.8649950  35.8567510  18.6323020  74.2219710
  35.8972850  18.3336890  75.1304940  36.7113010  19.0330630  74.0627230
  39.6345900  21.2318570  59.3823220  40.0562320  21.0658440  60.2254610
  39.7596740  20.4218800  58.8878360  37.7973320  17.2115120  72.1894200
  37.2669780  16.7206070  71.5617540  38.4661390  17.6399320  71.6552130
  42.1473540  20.2556180  56.6300320  42.6679200  19.5405200  56.2641470
  42.7941940  20.8942050  56.9300830  46.6951380  21.6784580  71.9535390
  47.1092400  21.8329660  72.8025810  45.7602380  21.8039800  72.1161170
  47.1673550  19.0180740  73.9574540  47.7494320  18.2633060  73.8695020
  47.3435320  19.5488180  73.1806020  38.2845620  14.1777490  72.2691490
  38.1902490  13.5598240  71.5442360  37.7043010  14.9043780  72.0421400
  41.0507060  12.7350730  69.3018880  40.6024360  12.7574990  68.4564430
  40.4172260  12.3369750  69.8989180  41.4566610  21.6305060  69.9231320
  41.8754720  22.4737790  69.7507560  40.5375240  21.7677100  69.6938100
  43.7930510  19.3621240  71.3069160  43.9126720  18.7662380  72.0464000
  44.6524510  19.3990930  70.8870460  46.1318410  19.9158430  69.8831670
  45.6053630  20.4401050  69.2796810  46.4749750  20.5485820  70.5141400
  38.5304800  17.3051800  56.3281380  38.3293860  16.4419160  56.6894720
  38.3596850  17.2185160  55.3902980  39.3074030  27.9358070  71.0389050
  38.7695120  28.6604130  70.7197750  39.5607990  27.4588410  70.2486390
  40.5599280  15.9042590  72.5644980  41.1498970  15.5958440  73.2522800
  39.7419520  15.4322340  72.7204880  45.3792710  15.5208400  72.7978000
  44.6908230  14.8589940  72.7327990  46.0998730  15.0746670  73.2426460
  46.0093110  12.1160030  58.8568260  46.2895400  11.2727930  59.2127680
  45.2358840  12.3483140  59.3707010  37.3287600  14.4052420  56.3159260
  37.6313500  14.4119850  55.4078410  38.0682190  14.0550280  56.8126920
  42.1636240  29.1709280  71.2975700  42.0894940  30.0744420  71.6048070
  41.2615080  28.8521180  71.2697770  40.5472530  13.3487040  57.3015460
  40.1994530  12.6711030  56.7217910  40.7485300  12.8876550  58.1158850
  36.3517730  23.7094840  57.1489060  36.7892600  24.2524510  57.8046640
  36.8365460  22.8841790  57.1585400  33.5663530  26.4983870  64.6009320
  33.8966540  25.6304930  64.3687960  33.9954530  26.7042390  65.4314280
  38.1625450  24.8292880  62.2611290  37.8620990  24.7057850  63.1615200
  38.0562940  23.9701470  61.8527020  34.0553740  27.3654460  67.3390950
  33.6184730  27.5455260  68.1715100  34.6231420  28.1229080  67.1972670
  49.6915920  26.8671460  71.6268260  49.0917910  26.9264020  70.8832180
  49.8209820  25.9276440  71.7565110  33.8878170  19.8774690  63.6979830
  33.2327010  19.6086330  63.0539530  34.7256120  19.7679170  63.2481810
  48.3767560  23.5923440  69.7244420  47.5627400  24.0220600  69.9870210
  48.7841760  24.2041850  69.1113470  46.8368610  14.6715980  57.9198320
  47.2553490  14.4846960  57.0794980  46.5304670  13.8195030  58.2301250
  34.9254100  20.2627260  68.2383170  35.2927140  20.1754660  69.1179190
  34.3564920  19.4993810  68.1390030  49.7257960  18.7311640  71.2513640
  49.4944050  18.5024390  70.3511590  49.9862510  19.6511190  71.2058530
  34.4770100  17.1736350  72.1441590  33.5826150  17.1403110  72.4835300
  35.0167650  17.3723140  72.9092840  48.1646030  13.9568070  74.0293340
  49.0416210  13.9651470  74.4127340  48.1766870  13.2198910  73.4185690
  33.1016250  17.0873620  59.6405160  32.1980330  17.3503820  59.4656820
  33.5856870  17.3584790  58.8605120  49.6109300  17.8097610  64.9181360
  50.1346780  17.3160260  64.2871530  50.1968720  17.9447970  65.6628930
  49.7899020  17.8937480  68.4400910  48.8401730  17.8601020  68.5545900
  49.9712030  18.8037590  68.2050680  35.6443460  16.1439160  57.5499540
  36.3535160  15.7222380  57.0646820  34.9283400  16.2114390  56.9182890
  35.2917620  12.1978490  56.5902190  36.0145750  12.7387430  56.9083410
  35.5642140  11.9241910  55.7143730  34.9809810  11.4484680  66.4924810
  35.6286000  10.8982060  66.0519970  35.4011650  11.7027830  67.3140620
  48.8762150  11.6426040  69.8494450  49.5134370  12.2560180  70.2153640
  49.0237040  11.6786700  68.9043680  34.7341810  11.6040350  69.2350130
  34.3856630  12.0604170  70.0008310  34.4029510  10.7097480  69.3172560
  36.3406180  24.7759950  73.4003320  36.2975810  24.4052860  74.2817780
  36.4717190  25.7137520  73.5405140  40.0412210  26.3319540  69.0013040
  39.8003570  26.5994100  68.1143560  40.9814850  26.5025270  69.0563900
  42.2466630  12.7952230  72.7569550  42.1855520  13.3874060  73.5064960
  43.1867010  12.6878190  72.6119810  44.8841190  12.4522290  72.3961840
  45.4981600  12.7701580  71.7342920  45.4290750  11.9670880  73.0157700
  51.3016370  28.3513920  69.8023680  50.8074650  28.7482790  69.0850810
  50.6929660  27.7263130  70.1960960  35.4062450  11.1316550  72.5100900
  35.9545440  10.9504600  71.7467010  35.4717760  10.3410660  73.0457210
  36.1794210  27.7222200  70.5201100  35.5854530  27.5906900  71.2591140
  36.1718050  26.8860340  70.0543200  45.6249230  11.0154430  68.7231130
  44.7509070  11.3489540  68.5204060  45.5159980  10.5427610  69.5483000
  46.5321210  13.2225300  70.1072850  46.2034570  12.4077060  69.7274580
  47.4803510  13.1795110  69.9838540  48.9855820  28.9937340  67.0810420
  48.5258790  29.7453150  66.7068440  48.3568280  28.2743810  67.0225220
  35.8106440  25.0880580  69.4709140  35.0840500  24.4685870  69.4035090
  35.8715590  25.4821190  68.6007220  39.4151540  27.3025580  66.2558550
  39.9316560  26.6912940  65.7306810  40.0648920  27.8054360  66.7469560
  43.3724050  11.9324270  67.6624040  42.5895840  12.4069770  67.9420800
  43.0786980  11.0279100  67.5537220  47.9245120  12.6347370  65.7073130
  48.3653210  12.5792470  64.8594730  47.6552710  13.5505380  65.7783310
  49.7883690  12.2662610  63.7181950  49.7272090  11.3223830  63.5712970
  50.5675720  12.3742700  64.2635410  34.0936440  28.4054970  62.6805900
  33.9258480  27.7725650  63.3787790  33.2270950  28.6114370  62.3300090
  34.7164460  12.2371750  60.1837760  35.4743820  12.3500630  59.6101790
  34.2541630  13.0740950  60.1381190  41.2578270  14.3511020  63.1740070
  40.4452780  13.9767910  62.8335950  41.7619910  13.5956100  63.4761260
  45.7603250  11.0153470  64.4123140  46.3632620  11.5873680  64.8871660
  45.0196240  11.5792910  64.1897040  48.9037850  11.4175030  59.6863420
  49.0988480  12.3158480  59.9530850  48.1167720  11.1862110  60.1796370
  35.6999140  27.0988200  60.1256040  35.1746760  27.4796230  59.4218000
  35.6243720  27.7238970  60.8465750  37.0889610  12.7635800  58.7239730
  37.6182370  11.9765600  58.5947680  37.7217930  13.4426990  58.9575260
  39.2827450  12.5010940  61.7785120  38.6530190  11.7998250  61.9455250
  38.7432590  13.2615070  61.5618280  42.2219400  29.1150170  74.4495730
  43.1486710  28.8794440  74.4931690  42.2069830  29.9422170  73.9681760
  39.4083010  11.7794920  74.2137610  39.1267280  12.2828520  73.4498430
  39.7902710  10.9816670  73.8479740  37.4606900  25.1635310  59.0051620
  36.8315780  25.6320410  59.5537450  37.5754730  24.3184530  59.4397810
  46.0098470  11.1948500  74.7918080  45.8963920  11.5143110  75.6869600
  46.8268210  11.5961010  74.4955360  48.7896960  28.3420030  74.2736770
  49.5822280  27.8469260  74.0662730  49.0830110  29.0210170  74.8812380
  44.9156620  19.2140970  45.1552820  44.8350670  18.2995580  44.8844530
  44.5021040  19.7108040  44.4492530  35.4732440  16.2641690  41.6980240
  34.5849140  16.6057660  41.5960120  35.7573630  16.0642010  40.8061070
  33.4365450  18.8647340  47.5819940  34.0081560  18.0969540  47.5823580
  33.4366990  19.1636100  46.6726550  34.6790320  14.2731700  49.3688870
  34.4993160  13.3757450  49.6491630  34.2770400  14.8203570  50.0435820
  43.5188820  16.4747560  47.2701180  43.8953640  15.6019440  47.1574850
  43.4208330  16.8106260  46.3791620  37.6493830  14.8473190  42.7318620
  37.7560580  15.7476920  43.0387380  36.7386190  14.7991160  42.4413270
  47.3012940  13.9698000  44.2029520  48.1222560  13.4794570  44.2455000
  47.3347020  14.5595660  44.9561360  35.2976990  16.7692200  47.9771210
  35.9787100  17.0330570  48.5958610  34.9825040  15.9293070  48.3109220
  39.4901560  17.8159560  47.0643800  39.9979780  18.3140530  47.7048820
  40.0214800  17.0394760  46.8883160  51.5912490  15.9864750  50.7673150
  50.8864660  16.3746460  50.2488260  51.8570410  16.6815040  51.3694080
  37.7737660  12.4558120  51.3307220  37.7756100  12.9730510  50.5253120
  36.9441970  11.9788300  51.3077150  44.1608750  22.5677430  42.8297120
  43.5426020  23.0326880  42.2659840  44.6732000  23.2604910  43.2466630
  47.5374420  15.9098380  46.9757060  46.8329990  16.1983270  47.5560170
  47.8986580  16.7198490  46.6156620  37.4552990  14.1668080  49.3377670
  37.7969800  15.0110130  49.0431540  36.5168800  14.3151820  49.4543010
  33.5291950  23.2533960  40.2036750  33.1519930  23.7421060  39.4721650
  33.7865020  23.9259240  40.8343280  50.6061340  15.3553170  47.3666270
  49.6586250  15.3892150  47.4981700  50.9311330  16.1692120  47.7515630
  41.1380880  11.6550350  45.6622260  41.4455860  11.0997240  44.9457760
  40.2081580  11.7894810  45.4795250  47.9841360  24.0933860  43.0419890
  47.8737690  23.1508190  43.1669310  47.9809610  24.4549500  43.9282650
  43.5261640  19.7199180  42.3982380  42.5990920  19.6536560  42.6270850
  43.6786460  20.6579310  42.2837620  43.5130720  15.9916180  39.3949540
  42.5734390  16.1530140  39.4802000  43.8313980  16.7101860  38.8485530
  47.5558930  21.2819480  42.9017630  46.9371350  20.9439030  42.2543930
  47.5383380  20.6379240  43.6096820  46.9985490  17.4604020  50.3183440
  46.5856670  18.2857730  50.5723430  46.2661440  16.8749060  50.1259800
  39.1318280  20.2463920  45.1802110  38.7275280  19.5341170  44.6848010
  39.2181400  19.9017160  46.0690150  37.8446900  17.0207130  48.9601150
  38.3961490  17.1302470  48.1854400  38.3590410  17.3944730  49.6756380
  45.7323630  20.5206290  39.9090380  46.1716910  19.6828720  39.7628200
  46.4452050  21.1535690  39.9954520  49.3140770  11.7749100  38.2231420
  49.0013430  11.8675930  39.1230490  50.0753240  12.3530130  38.1728850
  35.8322910  19.1408900  42.6808760  35.7120510  19.8670990  42.0690030
  35.5223800  18.3711810  42.2036670  33.4708280  22.3124040  48.4877400
  33.5488700  22.4472810  47.5433120  34.0849960  21.6039930  48.6805520
  34.7155910  24.0124230  44.8983580  34.3083990  24.1538820  44.0437180
  35.6068920  23.7284390  44.6954790  46.5089190  28.4471480  41.2334630
  46.3490330  28.1574420  42.1316460  46.3435900  27.6711610  40.6979860
  38.9877570  28.2270010  43.0106250  38.8120050  27.3105550  42.7974050
  38.1333310  28.5857300  43.2504050  46.2115320  25.9559040  39.7932630
  45.5180480  25.9536330  39.1334910  46.9538180  25.5318360  39.3626800
  45.7765250  27.5821750  43.8681120  46.2322200  26.8011130  44.1819740
  46.1157770  28.2928570  44.4122300  33.5267800  23.3538210  51.0271860
  33.6898840  22.8843570  50.2091230  33.9920250  22.8461770  51.6920700
  38.2986570  12.4843970  46.0632430  37.8554720  13.2653510  45.7316950
  38.8571560  12.8073860  46.7703370  42.5856380  15.3512490  51.6667750
  42.1235750  15.5595510  52.4787690  42.1834490  14.5371840  51.3638420
  47.5860890  16.5721440  52.7964410  46.7354480  16.2727190  53.1173480
  47.4262680  16.8163450  51.8848230  44.6810600  18.0723190  54.8963200
  45.0064010  17.2386940  54.5565430  45.4690930  18.5951710  55.0441530
  41.4145390  12.1054670  40.9438260  40.7899570  12.1014540  41.6691570
  41.3275510  11.2385630  40.5474230  40.3362470  13.0291300  47.9222030
  40.6334800  13.9354130  47.8414050  40.8848030  12.5410080  47.3081600
  38.0900790  17.6077540  43.7913680  37.8641710  17.3914710  44.6960300
  37.3093320  18.0406000  43.4459650  45.3198550  17.6140910  42.3904330
  44.7207440  18.3376710  42.2067950  45.8678160  17.5517690  41.6080780
  40.5300000  18.5063120  54.4573950  40.4343600  17.5657850  54.3074350
  41.3731980  18.7278190  54.0622020  43.9263420  16.2504450  44.4207610
  44.3192990  16.5676650  43.6076300  44.2880270  15.3716330  44.5352130
  35.6610540  14.9176790  52.6107730  35.2673930  15.7652000  52.8180510
  34.9728940  14.2803160  52.8016370  42.2355590  15.0011760  55.6804470
  41.5453910  14.8083960  56.3150560  42.9787890  15.2846400  56.2128770
  32.9627590  12.8405250  46.6437810  32.6740640  13.4108110  47.3562790
  33.7073350  12.3609700  47.0069040  33.1497820  16.7825370  37.8540530
  33.0672490  17.7256130  37.9955520  32.7980880  16.6400280  36.9752880
  44.5118560  18.8410200  48.5158390  43.7799680  19.3497010  48.8648490
  44.1142900  18.0240180  48.2147170  40.9495950  15.5164400  46.9210880
  40.9532010  15.0754350  46.0715420  41.8447070  15.8381730  47.0282700
  36.7998330  15.3990890  45.8805090  36.4598380  15.8766120  46.6372140
  36.0375650  14.9456010  45.5206190  41.0116100  16.5176480  39.9117640
  41.1328920  16.4762960  40.8603460  40.6264610  17.3800630  39.7564370
  44.9744470  14.2943880  47.9281330  44.9917210  14.7452530  48.7723180
  44.7260050  13.3949520  48.1414770  40.0237600  18.8277620  39.3100940
  39.4554500  18.3795870  38.6836850  40.7326600  19.1870400  38.7766090
  48.4015220  11.7076060  53.7667710  48.7260990  10.9765720  54.2925690
  48.4371730  11.3889700  52.8648700  34.1144410  14.3209870  44.7969760
  33.8291330  13.9565540  45.6348380  34.0523270  13.5890330  44.1832900
  37.5685080  22.8235810  41.5827350  36.7947340  22.2833430  41.4226070
  38.2979710  22.3042420  41.2445110  43.7883000  13.2139130  41.5183130
  42.9747610  12.7152300  41.4428440  43.5944950  14.0537380  41.1019480
  43.7091860  21.8910230  53.2622740  43.6429170  20.9705900  53.0080330
  43.0797000  21.9885670  53.9767380  46.5031390  17.5858780  39.8145290
  47.3911010  17.8976010  39.6396630  46.4736480  16.7131030  39.4225870
  37.6122480  22.4916190  45.2206160  38.1301150  21.6884450  45.1663050
  37.1606500  22.4295330  46.0622990  42.4991980  23.7582470  40.4933460
  42.8407680  24.5024700  39.9976780  41.6704690  24.0713590  40.8558290
  48.7745660  18.8970620  39.2825150  48.6909380  19.3284840  38.4321590
  49.4939850  19.3568970  39.7151970  49.8032910  25.7512880  42.0107280
  49.1609070  25.0968500  42.2851000  49.4163570  26.1567970  41.2347950
  41.4682670  23.8396000  43.2649380  42.1553800  24.3865210  43.6456970
  40.6815090  24.3836730  43.2998990  33.6075070  19.4568820  38.7566460
  34.4769920  19.7393620  39.0402380  33.1165390  20.2704690  38.6415270
  40.7709880  20.8442030  42.8774740  41.2272660  21.6547280  43.1034930
  40.4198090  20.5265170  43.7093230  36.6721660  11.1879680  43.3497260
  36.5436290  11.1797580  44.2982180  35.8483680  11.5262770  42.9988270
  48.1930290  24.6429340  38.5483630  47.9667870  23.9259780  39.1408270
  47.8026490  24.3941780  37.7105380  33.9746320  28.6696200  39.3228090
  34.3343960  29.2685540  38.6685360  33.8338660  29.2156090  40.0963120
  33.6715590  12.9470800  52.8103960  32.9574110  13.1467720  53.4156570
  34.0910630  12.1710370  53.1818760  47.7746540  22.5601280  40.2097790
  47.4868240  23.0213970  40.9975670  48.5698710  22.0999050  40.4782010
  33.9588180  26.9351060  53.7970490  34.0679300  25.9945800  53.6565880
  33.3068740  27.2005810  53.1484220  39.9914940  26.0527400  40.1401760
  39.9825040  26.7857090  39.5246270  39.0713300  25.8058980  40.2328720
  35.5921580  21.2742290  40.8848520  34.9849530  22.0141190  40.8943820
  36.0670930  21.3641650  40.0586720  45.1654370  15.4393110  50.5605410
  45.5335190  14.6188320  50.8884980  44.3052570  15.4995000  50.9761060
  48.5316400  14.3950050  41.3692970  47.9029560  14.4995720  40.6551200
  48.0368320  14.6146830  42.1586850  42.9774540  26.1155640  38.8026950
  43.0786520  25.9119630  37.8728930  42.0776280  25.8613920  39.0074730
  40.5000430  16.6736000  42.7850850  39.7916580  17.1422340  43.2264460
  40.7844910  16.0158010  43.4196040  42.1256360  18.0932700  50.7843380
  42.6241610  18.5678520  51.4495230  42.2679310  17.1696220  50.9913410
  44.5315860  13.3986660  44.2246640  44.4083640  13.4172790  43.2756150
  45.4800420  13.4465600  44.3445040  38.7035450  14.9821080  40.1601560
  39.5525980  15.4191230  40.0941750  38.3366720  15.2941340  40.9873620
  49.3323220  14.3100660  51.6271770  48.8296820  15.0506060  51.9665580
  50.1479880  14.6984660  51.3108560  37.6026870  21.2353440  38.6337090
  38.3690140  21.1234800  39.1962520  37.6801560  20.5391410  37.9813860
  36.2973630  18.6678510  39.3169980  36.3777220  17.7206020  39.4287380
  37.1893380  18.9985390  39.4230640  33.9833820  24.8847470  42.2946030
  33.0573600  25.1268610  42.2851440  34.4490250  25.7121730  42.1730780
  40.2090650  27.9904210  38.2430090  41.0019260  28.2793040  37.7911880
  39.6895000  27.5596380  37.5642570  49.2620820  27.2174340  39.6666830
  48.9762330  26.8039480  38.8521010  49.0640370  28.1462050  39.5467350
  33.8244430  20.4893430  54.5526150  34.3283450  19.9100710  55.1242380
  33.0851850  20.7733660  55.0902520  40.7268050  23.2107620  38.1072440
  40.6218690  22.5959970  38.8333820  40.5592270  22.6873510  37.3235450
  43.9670780  22.2727650  38.7114430  43.4180880  22.7196950  39.3557170
  44.5890040  21.7676900  39.2352100  35.8567510  18.6323020  55.4476220
  35.8972850  18.3336890  56.3561450  36.7113010  19.0330630  55.2883740
  39.6345900  21.2318570  40.6079730  40.0562320  21.0658440  41.4511120
  39.7596740  20.4218800  40.1134870  37.7973320  17.2115120  53.4150710
  37.2669780  16.7206070  52.7874050  38.4661390  17.6399320  52.8808640
  42.1473540  20.2556180  37.8556830  42.6679200  19.5405200  37.4897980
  42.7941940  20.8942050  38.1557340  47.1673550  19.0180740  55.1831050
  47.7494320  18.2633060  55.0951530  47.3435320  19.5488180  54.4062530
  38.2845620  14.1777490  53.4948000  38.1902490  13.5598240  52.7698870
  37.7043010  14.9043780  53.2677910  41.0507060  12.7350730  50.5275390
  40.6024360  12.7574990  49.6820940  40.4172260  12.3369750  51.1245690
  43.7930510  19.3621240  52.5325670  43.9126720  18.7662380  53.2720510
  44.6524510  19.3990930  52.1126970  46.1318410  19.9158430  51.1088180
  45.6053630  20.4401050  50.5053320  46.4749750  20.5485820  51.7397910
  38.5304800  17.3051800  37.5537890  38.3293860  16.4419160  37.9151230
  38.3596850  17.2185160  36.6159490  40.5599280  15.9042590  53.7901490
  41.1498970  15.5958440  54.4779310  39.7419520  15.4322340  53.9461390
  45.3792710  15.5208400  54.0234510  44.6908230  14.8589940  53.9584500
  46.0998730  15.0746670  54.4682970  46.0093110  12.1160030  40.0824770
  46.2895400  11.2727930  40.4384190  45.2358840  12.3483140  40.5963520
  37.3287600  14.4052420  37.5415770  37.6313500  14.4119850  36.6334920
  38.0682190  14.0550280  38.0383430  40.5472530  13.3487040  38.5271970
  40.1994530  12.6711030  37.9474420  40.7485300  12.8876550  39.3415360
  42.7121570  28.3367790  40.1458570  43.6072360  28.6752760  40.1677330
  42.7439200  27.6147200  39.5182850  36.3517730  23.7094840  38.3745570
  36.7892600  24.2524510  39.0303150  36.8365460  22.8841790  38.3841910
  33.5663530  26.4983870  45.8265830  33.8966540  25.6304930  45.5944470
  33.9954530  26.7042390  46.6570790  38.1625450  24.8292880  43.4867800
  37.8620990  24.7057850  44.3871710  38.0562940  23.9701470  43.0783530
  34.0553740  27.3654460  48.5647460  33.6184730  27.5455260  49.3971610
  34.6231420  28.1229080  48.4229180  50.9317370  24.6089280  38.1894480
  50.1010330  24.6765930  38.6601710  51.1089200  25.4993400  37.8861340
  50.3873830  21.3536760  40.6928680  51.1492740  21.9233410  40.7988370
  50.4028200  20.7863960  41.4636990  33.8878170  19.8774690  44.9236340
  33.2327010  19.6086330  44.2796040  34.7256120  19.7679170  44.4738320
  50.4393000  21.6471130  37.8501200  50.7141840  22.5550010  37.7220420
  50.2503740  21.5833660  38.7863190  46.8368610  14.6715980  39.1454830
  47.2553490  14.4846960  38.3051490  46.5304670  13.8195030  39.4557760
  50.3358340  19.5840120  42.8430630  49.9601940  18.8168050  42.4111920
  49.6061460  19.9662820  43.3305560  49.7257960  18.7311640  52.4770150
  49.4944050  18.5024390  51.5768100  49.9862510  19.6511190  52.4315040
  34.4770100  17.1736350  53.3698100  33.5826150  17.1403110  53.7091810
  35.0167650  17.3723140  54.1349350  48.1646030  13.9568070  55.2549850
  49.0416210  13.9651470  55.6383850  48.1766870  13.2198910  54.6442200
  33.1016250  17.0873620  40.8661670  32.1980330  17.3503820  40.6913330
  33.5856870  17.3584790  40.0861630  35.6443460  16.1439160  38.7756050
  36.3535160  15.7222380  38.2903330  34.9283400  16.2114390  38.1439400
  35.2917620  12.1978490  37.8158700  36.0145750  12.7387430  38.1339920
  35.5642140  11.9241910  36.9400240  49.1009270  17.0670960  42.0830280
  49.5968390  16.8341830  42.8679160  48.9025340  16.2282800  41.6667920
  34.9809810  11.4484680  47.7181320  35.6286000  10.8982060  47.2776480
  35.4011650  11.7027830  48.5397130  50.5296430  15.7031910  44.6167960
  50.4195710  15.5487950  45.5550230  51.2904020  15.1752850  44.3743370
  48.8762150  11.6426040  51.0750960  49.5134370  12.2560180  51.4410150
  49.0237040  11.6786700  50.1300190  51.4186700  13.5339830  37.8574100
  52.3436010  13.4021010  37.6492390  51.3962490  13.6132650  38.8110550
  51.4925190  14.3050490  40.4830810  50.6976690  14.2395610  41.0123720
  51.6968470  15.2401130  40.4716160  48.4343610  28.3442040  44.4769200
  49.0302680  28.0226610  43.8003620  48.6921760  27.8713860  45.2682470
  34.7341810  11.6040350  50.4606640  34.3856630  12.0604170  51.2264820
  34.4029510  10.7097480  50.5429070  36.3406180  24.7759950  54.6259830
  36.2975810  24.4052860  55.5074290  36.4717190  25.7137520  54.7661650
  42.2466630  12.7952230  53.9826060  42.1855520  13.3874060  54.7321470
  43.1867010  12.6878190  53.8376320  44.8841190  12.4522290  53.6218350
  45.4981600  12.7701580  52.9599430  45.4290750  11.9670880  54.2414210
  35.4062450  11.1316550  53.7357410  35.9545440  10.9504600  52.9723520
  35.4717760  10.3410660  54.2713720  36.1794210  27.7222200  51.7457610
  35.5854530  27.5906900  52.4847650  36.1718050  26.8860340  51.2799710
  45.6249230  11.0154430  49.9487640  44.7509070  11.3489540  49.7460570
  45.5159980  10.5427610  50.7739510  46.5321210  13.2225300  51.3329360
  46.2034570  12.4077060  50.9531090  47.4803510  13.1795110  51.2095050
  43.3724050  11.9324270  48.8880550  42.5895840  12.4069770  49.1677310
  43.0786980  11.0279100  48.7793730  47.9245120  12.6347370  46.9329640
  48.3653210  12.5792470  46.0851240  47.6552710  13.5505380  47.0039820
  49.7883690  12.2662610  44.9438460  49.7272090  11.3223830  44.7969480
  50.5675720  12.3742700  45.4891920  34.0936440  28.4054970  43.9062410
  33.9258480  27.7725650  44.6044300  33.2270950  28.6114370  43.5556600
  34.7164460  12.2371750  41.4094270  35.4743820  12.3500630  40.8358300
  34.2541630  13.0740950  41.3637700  41.2578270  14.3511020  44.3996580
  40.4452780  13.9767910  44.0592460  41.7619910  13.5956100  44.7017770
  45.7603250  11.0153470  45.6379650  46.3632620  11.5873680  46.1128170
  45.0196240  11.5792910  45.4153550  48.9037850  11.4175030  40.9119930
  49.0988480  12.3158480  41.1787360  48.1167720  11.1862110  41.4052880
  35.6999140  27.0988200  41.3512550  35.1746760  27.4796230  40.6474510
  35.6243720  27.7238970  42.0722260  37.0889610  12.7635800  39.9496240
  37.6182370  11.9765600  39.8204190  37.7217930  13.4426990  40.1831770
  39.2827450  12.5010940  43.0041630  38.6530190  11.7998250  43.1711760
  38.7432590  13.2615070  42.7874790  50.4564460  28.6575740  42.6726490
  50.6316650  27.9713480  42.0287410  49.7586030  29.1822790  42.2803160
  39.4083010  11.7794920  55.4394120  39.1267280  12.2828520  54.6754940
  39.7902710  10.9816670  55.0736250  38.2992110  29.0470580  40.2261800
  39.0310930  28.7629860  39.6785690  38.5585780  28.8083860  41.1161180
  37.4606900  25.1635310  40.2308130  36.8315780  25.6320410  40.7793960
  37.5754730  24.3184530  40.6654320  46.0098470  11.1948500  56.0174590
  45.8963920  11.5143110  56.9126110  46.8268210  11.5961010  55.7211870
  44.9156620  19.2140970  26.3809330  44.8350670  18.2995580  26.1101040
  44.5021040  19.7108040  25.6749040  43.0474660  20.9919990  28.2618600
  42.2716760  20.5120430  28.5517170  43.6987590  20.3125640  28.0874760
  37.0640490  21.3039800  29.1394360  36.2325370  21.0488510  29.5390870
  37.6721470  21.3750570  29.8752280  47.0682090  25.3980180  27.0417730
  46.6063620  24.6267420  27.3704900  47.8807640  25.4246250  27.5470180
  37.0441750  25.3379890  29.3352380  37.3469790  24.4477630  29.1562600
  37.7885340  25.8950110  29.1074630  35.4732440  16.2641690  22.9236750
  34.5849140  16.6057660  22.8216630  35.7573630  16.0642010  22.0317580
  33.4365450  18.8647340  28.8076450  34.0081560  18.0969540  28.8080090
  33.4366990  19.1636100  27.8983060  43.2945400  27.6838190  26.6621720
  42.6756840  28.1395690  26.0916160  44.1497180  27.8389650  26.2611420
  42.4883650  23.6677180  28.2688760  42.4191930  22.7267120  28.1077890
  43.2503510  23.7578590  28.8411330  34.6790320  14.2731700  30.5945380
  34.4993160  13.3757450  30.8748140  34.2770400  14.8203570  31.2692330
  43.5188820  16.4747560  28.4957690  43.8953640  15.6019440  28.3831360
  43.4208330  16.8106260  27.6048130  37.6493830  14.8473190  23.9575130
  37.7560580  15.7476920  24.2643890  36.7386190  14.7991160  23.6669780
  47.3012940  13.9698000  25.4286030  48.1222560  13.4794570  25.4711510
  47.3347020  14.5595660  26.1817870  35.2976990  16.7692200  29.2027720
  35.9787100  17.0330570  29.8215120  34.9825040  15.9293070  29.5365730
  39.4901560  17.8159560  28.2900310  39.9979780  18.3140530  28.9305330
  40.0214800  17.0394760  28.1139670  51.5912490  15.9864750  31.9929660
  50.8864660  16.3746460  31.4744770  51.8570410  16.6815040  32.5950590
  37.7737660  12.4558120  32.5563730  37.7756100  12.9730510  31.7509630
  36.9441970  11.9788300  32.5333660  44.1608750  22.5677430  24.0553630
  43.5426020  23.0326880  23.4916350  44.6732000  23.2604910  24.4723140
  39.0240510  22.0953300  30.7337230  38.6909890  22.7222220  31.3758300
  39.2007190  22.6215180  29.9538900  47.5374420  15.9098380  28.2013570
  46.8329990  16.1983270  28.7816680  47.8986580  16.7198490  27.8413130
  37.4552990  14.1668080  30.5634180  37.7969800  15.0110130  30.2688050
  36.5168800  14.3151820  30.6799520  38.2359610  24.0634100  32.5486410
  38.8533610  24.7385180  32.2670860  37.3752730  24.4722080  32.4573910
  33.5291950  23.2533960  21.4293260  33.1519930  23.7421060  20.6978160
  33.7865020  23.9259240  22.0599790  49.1537200  25.5273510  30.4641050
  48.4700720  26.1972620  30.4557720  49.6931490  25.7254160  29.6985910
  50.6061340  15.3553170  28.5922780  49.6586250  15.3892150  28.7238210
  50.9311330  16.1692120  28.9772140  41.1380880  11.6550350  26.8878770
  41.4455860  11.0997240  26.1714270  40.2081580  11.7894810  26.7051760
  46.6895940  27.3717640  29.1786230  46.7023100  26.9679930  28.3108490
  46.1371160  28.1464930  29.0747660  47.9841360  24.0933860  24.2676400
  47.8737690  23.1508190  24.3925820  47.9809610  24.4549500  25.1539160
  46.0881380  22.2747480  30.5068840  46.5050170  22.0607590  29.6722300
  46.8121200  22.5320270  31.0777460  43.5261640  19.7199180  23.6238890
  42.5990920  19.6536560  23.8527360  43.6786460  20.6579310  23.5094130
  43.5130720  15.9916180  20.6206050  42.5734390  16.1530140  20.7058510
  43.8313980  16.7101860  20.0742040  50.0343480  20.6734700  30.5985080
  49.2062110  20.7427790  30.1235210  50.6293960  21.2589010  30.1300910
  47.5558930  21.2819480  24.1274140  46.9371350  20.9439030  23.4800440
  47.5383380  20.6379240  24.8353330  46.9985490  17.4604020  31.5439950
  46.5856670  18.2857730  31.7979940  46.2661440  16.8749060  31.3516310
  39.1318280  20.2463920  26.4058620  38.7275280  19.5341170  25.9104520
  39.2181400  19.9017160  27.2946660  39.5999980  23.9331480  28.5697830
  39.3028270  23.3276950  27.8905610  40.5499800  23.9708790  28.4587190
  37.8446900  17.0207130  30.1857660  38.3961490  17.1302470  29.4110910
  38.3590410  17.3944730  30.9012890  47.6885590  27.5063350  32.2320930
  47.2116150  28.3135540  32.0393540  47.0047380  26.8541680  32.3847140
  38.6918410  23.6713170  35.2205630  37.7946940  23.8953140  35.4679030
  38.7171280  23.7948110  34.2717030  45.7323630  20.5206290  21.1346890
  46.1716910  19.6828720  20.9884710  46.4452050  21.1535690  21.2211030
  37.5189630  20.5426490  33.7963000  37.3797400  21.4149290  34.1650400
  36.6370990  20.1999300  33.6510940  43.8419010  25.4602360  25.1028130
  44.2814920  26.2026690  24.6883520  43.7805900  25.7028930  26.0267090
  39.3169980  26.4848190  36.0048150  39.2885410  26.8891140  35.1376580
  39.1534950  25.5558550  35.8419750  49.3140770  11.7749100  19.4487930
  49.0013430  11.8675930  20.3487000  50.0753240  12.3530130  19.3985360
  35.8322910  19.1408900  23.9065270  35.7120510  19.8670990  23.2946540
  35.5223800  18.3711810  23.4293180  51.2684800  27.2675290  37.3012320
  51.7444520  27.7458180  37.9801400  51.8891960  27.1992780  36.5757820
  33.4708280  22.3124040  29.7133910  33.5488700  22.4472810  28.7689630
  34.0849960  21.6039930  29.9062030  34.7155910  24.0124230  26.1240090
  34.3083990  24.1538820  25.2693690  35.6068920  23.7284390  25.9211300
  50.6718050  24.4588140  34.4612330  50.7981110  24.2200020  33.5429510
  50.7139430  23.6272680  34.9334410  44.5334790  28.1616140  33.0307140
  45.0479460  28.0724150  33.8329570  43.6903870  28.5075840  33.3235050
  46.5089190  28.4471480  22.4591140  46.3490330  28.1574420  23.3572970
  46.3435900  27.6711610  21.9236370  38.9877570  28.2270010  24.2362760
  38.8120050  27.3105550  24.0230560  38.1333310  28.5857300  24.4760560
  46.2115320  25.9559040  21.0189140  45.5180480  25.9536330  20.3591420
  46.9538180  25.5318360  20.5883310  45.7765250  27.5821750  25.0937630
  46.2322200  26.8011130  25.4076250  46.1157770  28.2928570  25.6378810
  50.5242060  16.5120600  35.4262070  49.9086330  17.0200270  34.8977530
  50.2038480  15.6118930  35.3688010  33.5267800  23.3538210  32.2528370
  33.6898840  22.8843570  31.4347740  33.9920250  22.8461770  32.9177210
  38.2986570  12.4843970  27.2888940  37.8554720  13.2653510  26.9573460
  38.8571560  12.8073860  27.9959880  42.5856380  15.3512490  32.8924260
  42.1235750  15.5595510  33.7044200  42.1834490  14.5371840  32.5894930
  47.5860890  16.5721440  34.0220920  46.7354480  16.2727190  34.3429990
  47.4262680  16.8163450  33.1104740  44.6810600  18.0723190  36.1219710
  45.0064010  17.2386940  35.7821940  45.4690930  18.5951710  36.2698040
  41.4145390  12.1054670  22.1694770  40.7899570  12.1014540  22.8948080
  41.3275510  11.2385630  21.7730740  40.3362470  13.0291300  29.1478540
  40.6334800  13.9354130  29.0670560  40.8848030  12.5410080  28.5338110
  38.0900790  17.6077540  25.0170190  37.8641710  17.3914710  25.9216810
  37.3093320  18.0406000  24.6716160  45.3198550  17.6140910  23.6160840
  44.7207440  18.3376710  23.4324460  45.8678160  17.5517690  22.8337290
  40.5300000  18.5063120  35.6830460  40.4343600  17.5657850  35.5330860
  41.3731980  18.7278190  35.2878530  43.9263420  16.2504450  25.6464120
  44.3192990  16.5676650  24.8332810  44.2880270  15.3716330  25.7608640
  35.6610540  14.9176790  33.8364240  35.2673930  15.7652000  34.0437020
  34.9728940  14.2803160  34.0272880  42.2355590  15.0011760  36.9060980
  41.5453910  14.8083960  37.5407070  42.9787890  15.2846400  37.4385280
  32.9627590  12.8405250  27.8694320  32.6740640  13.4108110  28.5819300
  33.7073350  12.3609700  28.2325550  33.1497820  16.7825370  19.0797040
  33.0672490  17.7256130  19.2212030  32.7980880  16.6400280  18.2009390
  44.5118560  18.8410200  29.7414900  43.7799680  19.3497010  30.0905000
  44.1142900  18.0240180  29.4403680  40.9495950  15.5164400  28.1467390
  40.9532010  15.0754350  27.2971930  41.8447070  15.8381730  28.2539210
  36.7998330  15.3990890  27.1061600  36.4598380  15.8766120  27.8628650
  36.0375650  14.9456010  26.7462700  41.0116100  16.5176480  21.1374150
  41.1328920  16.4762960  22.0859970  40.6264610  17.3800630  20.9820880
  44.9744470  14.2943880  29.1537840  44.9917210  14.7452530  29.9979690
  44.7260050  13.3949520  29.3671280  40.0237600  18.8277620  20.5357450
  39.4554500  18.3795870  19.9093360  40.7326600  19.1870400  20.0022600
  48.4015220  11.7076060  34.9924220  48.7260990  10.9765720  35.5182200
  48.4371730  11.3889700  34.0905210  35.1006780  22.7289640  34.4124180
  34.7161570  22.0883310  35.0107140  35.4118970  23.4325760  34.9818910
  41.2503920  19.5766180  29.8932800  41.6174050  19.1024750  30.6394140
  41.0608980  20.4507750  30.2341140  34.1144410  14.3209870  26.0226270
  33.8291330  13.9565540  26.8604890  34.0523270  13.5890330  25.4089410
  39.0403290  18.6174820  32.2117010  38.7360360  19.4966800  32.4367370
  39.9949750  18.6774610  32.2474450  37.5685080  22.8235810  22.8083860
  36.7947340  22.2833430  22.6482580  38.2979710  22.3042420  22.4701620
  48.3273060  21.8201170  28.6010250  49.0472180  22.3156460  28.2106360
  48.1254880  21.1419060  27.9564120  43.7883000  13.2139130  22.7439640
  42.9747610  12.7152300  22.6684950  43.5944950  14.0537380  22.3275990
  43.7091860  21.8910230  34.4879250  43.6429170  20.9705900  34.2336840
  43.0797000  21.9885670  35.2023890  46.5031390  17.5858780  21.0401800
  47.3911010  17.8976010  20.8653140  46.4736480  16.7131030  20.6482380
  37.6122480  22.4916190  26.4462670  38.1301150  21.6884450  26.3919560
  37.1606500  22.4295330  27.2879500  42.4991980  23.7582470  21.7189970
  42.8407680  24.5024700  21.2233290  41.6704690  24.0713590  22.0814800
  35.0967020  19.4577560  33.3588370  34.7381960  20.1231410  33.9461710
  34.8021580  18.6261110  33.7300990  38.2980140  19.9161800  36.2427920
  37.9980280  20.0618980  35.3455740  39.0691380  19.3567090  36.1501310
  43.6408590  24.7130800  34.2383050  43.6553130  23.7811760  34.0201960
  42.9333690  24.7990560  34.8772820  48.7745660  18.8970620  20.5081660
  48.6909380  19.3284840  19.6578100  49.4939850  19.3568970  20.9408480
  49.8519800  21.3538140  33.5851630  49.1267990  21.9466920  33.3881020
  50.3795260  21.3461680  32.7865000  49.8032910  25.7512880  23.2363790
  49.1609070  25.0968500  23.5107510  49.4163570  26.1567970  22.4604460
  45.3819390  23.0798310  27.0835480  45.7343210  22.4826440  26.4236850
  44.4981720  22.7542540  27.2543730  41.4682670  23.8396000  24.4905890
  42.1553800  24.3865210  24.8713480  40.6815090  24.3836730  24.5255500
  33.6075070  19.4568820  19.9822970  34.4769920  19.7393620  20.2658890
  33.1165390  20.2704690  19.8671780  40.7709880  20.8442030  24.1031250
  41.2272660  21.6547280  24.3291440  40.4198090  20.5265170  24.9349740
  43.0742490  26.3548370  31.3323550  43.7184710  26.5607750  32.0096970
  43.4371930  25.5936770  30.8794400  36.6721660  11.1879680  24.5753770
  36.5436290  11.1797580  25.5238690  35.8483680  11.5262770  24.2244780
  44.3474570  24.3580720  30.0501000  44.9896800  23.6573880  30.1633170
  44.8723920  25.1379160  29.8697890  48.1930290  24.6429340  19.7740140
  47.9667870  23.9259780  20.3664780  47.8026490  24.3941780  18.9361890
  46.1212190  25.1575620  33.2537060  46.4568430  25.7442310  33.9314980
  45.2012530  25.0268330  33.4834850  33.9746320  28.6696200  20.5484600
  34.3343960  29.2685540  19.8941870  33.8338660  29.2156090  21.3219630
  33.6715590  12.9470800  34.0360470  32.9574110  13.1467720  34.6413080
  34.0910630  12.1710370  34.4075270  47.7746540  22.5601280  21.4354300
  47.4868240  23.0213970  22.2232180  48.5698710  22.0999050  21.7038520
  33.9588180  26.9351060  35.0227000  34.0679300  25.9945800  34.8822390
  33.3068740  27.2005810  34.3740730  41.9500770  25.2066950  36.4225120
  41.6297640  24.4876190  36.9670810  41.2759130  25.8822020  36.4961180
  39.9914940  26.0527400  21.3658270  39.9825040  26.7857090  20.7502780
  39.0713300  25.8058980  21.4585230  35.5921580  21.2742290  22.1105030
  34.9849530  22.0141190  22.1200330  36.0670930  21.3641650  21.2843230
  45.1654370  15.4393110  31.7861920  45.5335190  14.6188320  32.1141490
  44.3052570  15.4995000  32.2017570  48.5316400  14.3950050  22.5949480
  47.9029560  14.4995720  21.8807710  48.0368320  14.6146830  23.3843360
  42.9774540  26.1155640  20.0283460  43.0786520  25.9119630  19.0985440
  42.0776280  25.8613920  20.2331240  40.5000430  16.6736000  24.0107360
  39.7916580  17.1422340  24.4520970  40.7844910  16.0158010  24.6452550
  42.1256360  18.0932700  32.0099890  42.6241610  18.5678520  32.6751740
  42.2679310  17.1696220  32.2169920  44.5315860  13.3986660  25.4503150
  44.4083640  13.4172790  24.5012660  45.4800420  13.4465600  25.5701550
  41.6192650  28.6341960  24.7231130  41.8734150  28.5963350  23.8010500
  40.6705130  28.5075290  24.7159380  38.7035450  14.9821080  21.3858070
  39.5525980  15.4191230  21.3198260  38.3366720  15.2941340  22.2130130
  49.3323220  14.3100660  32.8528280  48.8296820  15.0506060  33.1922090
  50.1479880  14.6984660  32.5365070  47.6245230  19.5533840  26.2989640
  46.6835370  19.5684070  26.4737330  47.9389300  18.7669800  26.7449940
  37.6026870  21.2353440  19.8593600  38.3690140  21.1234800  20.4219030
  37.6801560  20.5391410  19.2070370  36.2973630  18.6678510  20.5426490
  36.3777220  17.7206020  20.6543890  37.1893380  18.9985390  20.6487150
  49.6270810  26.7242690  27.9743900  49.7518230  27.5473860  28.4467710
  50.4936370  26.5133420  27.6268050  37.0988340  28.8173900  27.6461030
  37.8350820  28.2689360  27.9169600  37.4829260  29.6829910  27.5067020
  33.9833820  24.8847470  23.5202540  33.0573600  25.1268610  23.5107950
  34.4490250  25.7121730  23.3987290  36.1046620  28.0019970  36.8346610
  36.9059350  28.3232020  37.2482010  35.5898440  27.6415550  37.5566520
  40.2090650  27.9904210  19.4686600  41.0019260  28.2793040  19.0168390
  39.6895000  27.5596380  18.7899080  44.9411250  24.1099840  36.7822020
  44.3349410  24.1331440  36.0417770  44.6365360  23.3782880  37.3189270
  46.3711620  27.8380130  35.3931430  47.3233370  27.7538150  35.3431670
  46.2239840  28.5021840  36.0665220  49.2620820  27.2174340  20.8923340
  48.9762330  26.8039480  20.0777520  49.0640370  28.1462050  20.7723860
  33.8244430  20.4893430  35.7782660  34.3283450  19.9100710  36.3498890
  33.0851850  20.7733660  36.3159030  40.7268050  23.2107620  19.3328950
  40.6218690  22.5959970  20.0590330  40.5592270  22.6873510  18.5491960
  40.8782370  21.8964420  35.3118180  40.1128040  22.4649420  35.2272850
  41.0598330  21.6040630  34.4186410  43.9670780  22.2727650  19.9370940
  43.4180880  22.7196950  20.5813680  44.5890040  21.7676900  20.4608610
  48.0205720  23.6269750  35.8693200  48.7615190  23.9645510  35.3660660
  47.2578400  23.7961810  35.3162970  35.8567510  18.6323020  36.6732730
  35.8972850  18.3336890  37.5817960  36.7113010  19.0330630  36.5140250
  39.6345900  21.2318570  21.8336240  40.0562320  21.0658440  22.6767630
  39.7596740  20.4218800  21.3391380  37.7973320  17.2115120  34.6407220
  37.2669780  16.7206070  34.0130560  38.4661390  17.6399320  34.1065150
  42.1473540  20.2556180  19.0813340  42.6679200  19.5405200  18.7154490
  42.7941940  20.8942050  19.3813850  46.6951380  21.6784580  34.4048410
  47.1092400  21.8329660  35.2538830  45.7602380  21.8039800  34.5674190
  47.1673550  19.0180740  36.4087560  47.7494320  18.2633060  36.3208040
  47.3435320  19.5488180  35.6319040  38.2845620  14.1777490  34.7204510
  38.1902490  13.5598240  33.9955380  37.7043010  14.9043780  34.4934420
  41.0507060  12.7350730  31.7531900  40.6024360  12.7574990  30.9077450
  40.4172260  12.3369750  32.3502200  41.4566610  21.6305060  32.3744340
  41.8754720  22.4737790  32.2020580  40.5375240  21.7677100  32.1451120
  43.7930510  19.3621240  33.7582180  43.9126720  18.7662380  34.4977020
  44.6524510  19.3990930  33.3383480  46.1318410  19.9158430  32.3344690
  45.6053630  20.4401050  31.7309830  46.4749750  20.5485820  32.9654420
  38.5304800  17.3051800  18.7794400  38.3293860  16.4419160  19.1407740
  38.3596850  17.2185160  17.8416000  39.3074030  27.9358070  33.4902070
  38.7695120  28.6604130  33.1710770  39.5607990  27.4588410  32.6999410
  40.5599280  15.9042590  35.0158000  41.1498970  15.5958440  35.7035820
  39.7419520  15.4322340  35.1717900  45.3792710  15.5208400  35.2491020
  44.6908230  14.8589940  35.1841010  46.0998730  15.0746670  35.6939480
  46.0093110  12.1160030  21.3081280  46.2895400  11.2727930  21.6640700
  45.2358840  12.3483140  21.8220030  37.3287600  14.4052420  18.7672280
  37.6313500  14.4119850  17.8591430  38.0682190  14.0550280  19.2639940
  42.1636240  29.1709280  33.7488720  42.0894940  30.0744420  34.0561090
  41.2615080  28.8521180  33.7210790  40.5472530  13.3487040  19.7528480
  40.1994530  12.6711030  19.1730930  40.7485300  12.8876550  20.5671870
  42.7121570  28.3367790  21.3715080  43.6072360  28.6752760  21.3933840
  42.7439200  27.6147200  20.7439360  36.3517730  23.7094840  19.6002080
  36.7892600  24.2524510  20.2559660  36.8365460  22.8841790  19.6098420
  33.5663530  26.4983870  27.0522340  33.8966540  25.6304930  26.8200980
  33.9954530  26.7042390  27.8827300  38.1625450  24.8292880  24.7124310
  37.8620990  24.7057850  25.6128220  38.0562940  23.9701470  24.3040040
  34.0553740  27.3654460  29.7903970  33.6184730  27.5455260  30.6228120
  34.6231420  28.1229080  29.6485690  49.6915920  26.8671460  34.0781280
  49.0917910  26.9264020  33.3345200  49.8209820  25.9276440  34.2078130
  50.9317370  24.6089280  19.4150990  50.1010330  24.6765930  19.8858220
  51.1089200  25.4993400  19.1117850  50.3873830  21.3536760  21.9185190
  51.1492740  21.9233410  22.0244880  50.4028200  20.7863960  22.6893500
  33.8878170  19.8774690  26.1492850  33.2327010  19.6086330  25.5052550
  34.7256120  19.7679170  25.6994830  51.3933800  22.2086860  26.7627120
  51.7642630  21.4254180  26.3563090  52.0335730  22.8975960  26.5844420
  48.3767560  23.5923440  32.1757440  47.5627400  24.0220600  32.4383230
  48.7841760  24.2041850  31.5626490  50.4393000  21.6471130  19.0757710
  50.7141840  22.5550010  18.9476930  50.2503740  21.5833660  20.0119700
  46.8368610  14.6715980  20.3711340  47.2553490  14.4846960  19.5308000
  46.5304670  13.8195030  20.6814270  50.3358340  19.5840120  24.0687140
  49.9601940  18.8168050  23.6368430  49.6061460  19.9662820  24.5562070
  34.9254100  20.2627260  30.6896190  35.2927140  20.1754660  31.5692210
  34.3564920  19.4993810  30.5903050  49.7257960  18.7311640  33.7026660
  49.4944050  18.5024390  32.8024610  49.9862510  19.6511190  33.6571550
  34.4770100  17.1736350  34.5954610  33.5826150  17.1403110  34.9348320
  35.0167650  17.3723140  35.3605860  48.1646030  13.9568070  36.4806360
  49.0416210  13.9651470  36.8640360  48.1766870  13.2198910  35.8698710
  33.1016250  17.0873620  22.0918180  32.1980330  17.3503820  21.9169840
  33.5856870  17.3584790  21.3118140  49.6109300  17.8097610  27.3694380
  50.1346780  17.3160260  26.7384550  50.1968720  17.9447970  28.1141950
  49.7899020  17.8937480  30.8913930  48.8401730  17.8601020  31.0058920
  49.9712030  18.8037590  30.6563700  35.6443460  16.1439160  20.0012560
  36.3535160  15.7222380  19.5159840  34.9283400  16.2114390  19.3695910
  35.2917620  12.1978490  19.0415210  36.0145750  12.7387430  19.3596430
  35.5642140  11.9241910  18.1656750  49.1009270  17.0670960  23.3086790
  49.5968390  16.8341830  24.0935670  48.9025340  16.2282800  22.8924430
  34.9809810  11.4484680  28.9437830  35.6286000  10.8982060  28.5032990
  35.4011650  11.7027830  29.7653640  50.5296430  15.7031910  25.8424470
  50.4195710  15.5487950  26.7806740  51.2904020  15.1752850  25.5999880
  48.8762150  11.6426040  32.3007470  49.5134370  12.2560180  32.6666660
  49.0237040  11.6786700  31.3556700  51.4186700  13.5339830  19.0830610
  52.3436010  13.4021010  18.8748900  51.3962490  13.6132650  20.0367060
  51.4925190  14.3050490  21.7087320  50.6976690  14.2395610  22.2380230
  51.6968470  15.2401130  21.6972670  48.4343610  28.3442040  25.7025710
  49.0302680  28.0226610  25.0260130  48.6921760  27.8713860  26.4938980
  34.7341810  11.6040350  31.6863150  34.3856630  12.0604170  32.4521330
  34.4029510  10.7097480  31.7685580  36.3406180  24.7759950  35.8516340
  36.2975810  24.4052860  36.7330800  36.4717190  25.7137520  35.9918160
  40.0412210  26.3319540  31.4526060  39.8003570  26.5994100  30.5656580
  40.9814850  26.5025270  31.5076920  42.2466630  12.7952230  35.2082570
  42.1855520  13.3874060  35.9577980  43.1867010  12.6878190  35.0632830
  44.8841190  12.4522290  34.8474860  45.4981600  12.7701580  34.1855940
  45.4290750  11.9670880  35.4670720  51.3016370  28.3513920  32.2536700
  50.8074650  28.7482790  31.5363830  50.6929660  27.7263130  32.6473980
  35.4062450  11.1316550  34.9613920  35.9545440  10.9504600  34.1980030
  35.4717760  10.3410660  35.4970230  36.1794210  27.7222200  32.9714120
  35.5854530  27.5906900  33.7104160  36.1718050  26.8860340  32.5056220
  45.6249230  11.0154430  31.1744150  44.7509070  11.3489540  30.9717080
  45.5159980  10.5427610  31.9996020  46.5321210  13.2225300  32.5585870
  46.2034570  12.4077060  32.1787600  47.4803510  13.1795110  32.4351560
  48.9855820  28.9937340  29.5323440  48.5258790  29.7453150  29.1581460
  48.3568280  28.2743810  29.4738240  35.8106440  25.0880580  31.9222160
  35.0840500  24.4685870  31.8548110  35.8715590  25.4821190  31.0520240
  39.4151540  27.3025580  28.7071570  39.9316560  26.6912940  28.1819830
  40.0648920  27.8054360  29.1982580  42.1547040  28.1934070  29.5340550
  42.4424850  27.9388370  28.6573560  42.6670260  27.6411430  30.1246120
  43.3724050  11.9324270  30.1137060  42.5895840  12.4069770  30.3933820
  43.0786980  11.0279100  30.0050240  47.9245120  12.6347370  28.1586150
  48.3653210  12.5792470  27.3107750  47.6552710  13.5505380  28.2296330
  49.7883690  12.2662610  26.1694970  49.7272090  11.3223830  26.0225990
  50.5675720  12.3742700  26.7148430  34.0936440  28.4054970  25.1318920
  33.9258480  27.7725650  25.8300810  33.2270950  28.6114370  24.7813110
  34.7164460  12.2371750  22.6350780  35.4743820  12.3500630  22.0614810
  34.2541630  13.0740950  22.5894210  41.2578270  14.3511020  25.6253090
  40.4452780  13.9767910  25.2848970  41.7619910  13.5956100  25.9274280
  45.7603250  11.0153470  26.8636160  46.3632620  11.5873680  27.3384680
  45.0196240  11.5792910  26.6410060  48.9037850  11.4175030  22.1376440
  49.0988480  12.3158480  22.4043870  48.1167720  11.1862110  22.6309390
  35.6999140  27.0988200  22.5769060  35.1746760  27.4796230  21.8731020
  35.6243720  27.7238970  23.2978770  37.0889610  12.7635800  21.1752750
  37.6182370  11.9765600  21.0460700  37.7217930  13.4426990  21.4088280
  39.2827450  12.5010940  24.2298140  38.6530190  11.7998250  24.3968270
  38.7432590  13.2615070  24.0131300  42.2219400  29.1150170  36.9008750
  43.1486710  28.8794440  36.9444710  42.2069830  29.9422170  36.4194780
  50.4564460  28.6575740  23.8983000  50.6316650  27.9713480  23.2543920
  49.7586030  29.1822790  23.5059670  39.4083010  11.7794920  36.6650630
  39.1267280  12.2828520  35.9011450  39.7902710  10.9816670  36.2992760
  38.2992110  29.0470580  21.4518310  39.0310930  28.7629860  20.9042200
  38.5585780  28.8083860  22.3417690  37.4606900  25.1635310  21.4564640
  36.8315780  25.6320410  22.0050470  37.5754730  24.3184530  21.8910830
  46.0098470  11.1948500  37.2431100  45.8963920  11.5143110  38.1382620
  46.8268210  11.5961010  36.9468380  48.7896960  28.3420030  36.7249790
  49.5822280  27.8469260  36.5175750  49.0830110  29.0210170  37.3325400
  44.9156620  19.2140970   7.6065840  44.8350670  18.2995580   7.3357550
  44.5021040  19.7108040   6.9005550  43.0474660  20.9919990   9.4875110
  42.2716760  20.5120430   9.7773680  43.6987590  20.3125640   9.3131270
  37.0640490  21.3039800  10.3650870  36.2325370  21.0488510  10.7647380
  37.6721470  21.3750570  11.1008790  47.0682090  25.3980180   8.2674240
  46.6063620  24.6267420   8.5961410  47.8807640  25.4246250   8.7726690
  37.0441750  25.3379890  10.5608890  37.3469790  24.4477630  10.3819110
  37.7885340  25.8950110  10.3331140  35.4732440  16.2641690   4.1493260
  34.5849140  16.6057660   4.0473140  35.7573630  16.0642010   3.2574090
  33.4365450  18.8647340  10.0332960  34.0081560  18.0969540  10.0336600
  33.4366990  19.1636100   9.1239570  43.2945400  27.6838190   7.8878230
  42.6756840  28.1395690   7.3172670  44.1497180  27.8389650   7.4867930
  42.4883650  23.6677180   9.4945270  42.4191930  22.7267120   9.3334400
  43.2503510  23.7578590  10.0667840  34.6790320  14.2731700  11.8201890
  34.4993160  13.3757450  12.1004650  34.2770400  14.8203570  12.4948840
  43.5188820  16.4747560   9.7214200  43.8953640  15.6019440   9.6087870
  43.4208330  16.8106260   8.8304640  37.6493830  14.8473190   5.1831640
  37.7560580  15.7476920   5.4900400  36.7386190  14.7991160   4.8926290
  47.3012940  13.9698000   6.6542540  48.1222560  13.4794570   6.6968020
  47.3347020  14.5595660   7.4074380  35.2976990  16.7692200  10.4284230
  35.9787100  17.0330570  11.0471630  34.9825040  15.9293070  10.7622240
  39.4901560  17.8159560   9.5156820  39.9979780  18.3140530  10.1561840
  40.0214800  17.0394760   9.3396180  51.5912490  15.9864750  13.2186170
  50.8864660  16.3746460  12.7001280  51.8570410  16.6815040  13.8207100
  37.7737660  12.4558120  13.7820240  37.7756100  12.9730510  12.9766140
  36.9441970  11.9788300  13.7590170  44.1608750  22.5677430   5.2810140
  43.5426020  23.0326880   4.7172860  44.6732000  23.2604910   5.6979650
  39.0240510  22.0953300  11.9593740  38.6909890  22.7222220  12.6014810
  39.2007190  22.6215180  11.1795410  47.5374420  15.9098380   9.4270080
  46.8329990  16.1983270  10.0073190  47.8986580  16.7198490   9.0669640
  37.4552990  14.1668080  11.7890690  37.7969800  15.0110130  11.4944560
  36.5168800  14.3151820  11.9056030  38.2359610  24.0634100  13.7742920
  38.8533610  24.7385180  13.4927370  37.3752730  24.4722080  13.6830420
  33.5291950  23.2533960   2.6549770  33.1519930  23.7421060   1.9234670
  33.7865020  23.9259240   3.2856300  49.1537200  25.5273510  11.6897560
  48.4700720  26.1972620  11.6814230  49.6931490  25.7254160  10.9242420
  50.6061340  15.3553170   9.8179290  49.6586250  15.3892150   9.9494720
  50.9311330  16.1692120  10.2028650  41.1380880  11.6550350   8.1135280
  41.4455860  11.0997240   7.3970780  40.2081580  11.7894810   7.9308270
  46.6895940  27.3717640  10.4042740  46.7023100  26.9679930   9.5365000
  46.1371160  28.1464930  10.3004170  47.9841360  24.0933860   5.4932910
  47.8737690  23.1508190   5.6182330  47.9809610  24.4549500   6.3795670
  46.0881380  22.2747480  11.7325350  46.5050170  22.0607590  10.8978810
  46.8121200  22.5320270  12.3033970  43.5261640  19.7199180   4.8495400
  42.5990920  19.6536560   5.0783870  43.6786460  20.6579310   4.7350640
  43.5130720  15.9916180   1.8462560  42.5734390  16.1530140   1.9315020
  43.8313980  16.7101860   1.2998550  50.0343480  20.6734700  11.8241590
  49.2062110  20.7427790  11.3491720  50.6293960  21.2589010  11.3557420
  47.5558930  21.2819480   5.3530650  46.9371350  20.9439030   4.7056950
  47.5383380  20.6379240   6.0609840  46.9985490  17.4604020  12.7696460
  46.5856670  18.2857730  13.0236450  46.2661440  16.8749060  12.5772820
  39.1318280  20.2463920   7.6315130  38.7275280  19.5341170   7.1361030
  39.2181400  19.9017160   8.5203170  39.5999980  23.9331480   9.7954340
  39.3028270  23.3276950   9.1162120  40.5499800  23.9708790   9.6843700
  37.8446900  17.0207130  11.4114170  38.3961490  17.1302470  10.6367420
  38.3590410  17.3944730  12.1269400  47.6885590  27.5063350  13.4577440
  47.2116150  28.3135540  13.2650050  47.0047380  26.8541680  13.6103650
  38.6918410  23.6713170  16.4462140  37.7946940  23.8953140  16.6935540
  38.7171280  23.7948110  15.4973540  45.7323630  20.5206290   2.3603400
  46.1716910  19.6828720   2.2141220  46.4452050  21.1535690   2.4467540
  37.5189630  20.5426490  15.0219510  37.3797400  21.4149290  15.3906910
  36.6370990  20.1999300  14.8767450  43.8419010  25.4602360   6.3284640
  44.2814920  26.2026690   5.9140030  43.7805900  25.7028930   7.2523600
  39.3169980  26.4848190  17.2304660  39.2885410  26.8891140  16.3633090
  39.1534950  25.5558550  17.0676260  35.8322910  19.1408900   5.1321780
  35.7120510  19.8670990   4.5203050  35.5223800  18.3711810   4.6549690
  51.2684800  27.2675290  18.5268830  51.7444520  27.7458180  19.2057910
  51.8891960  27.1992780  17.8014330  33.4708280  22.3124040  10.9390420
  33.5488700  22.4472810   9.9946140  34.0849960  21.6039930  11.1318540
  34.7155910  24.0124230   7.3496600  34.3083990  24.1538820   6.4950200
  35.6068920  23.7284390   7.1467810  50.6718050  24.4588140  15.6868840
  50.7981110  24.2200020  14.7686020  50.7139430  23.6272680  16.1590920
  44.5334790  28.1616140  14.2563650  45.0479460  28.0724150  15.0586080
  43.6903870  28.5075840  14.5491560  46.5089190  28.4471480   3.6847650
  46.3490330  28.1574420   4.5829480  46.3435900  27.6711610   3.1492880
  38.9877570  28.2270010   5.4619270  38.8120050  27.3105550   5.2487070
  38.1333310  28.5857300   5.7017070  46.2115320  25.9559040   2.2445650
  45.5180480  25.9536330   1.5847930  46.9538180  25.5318360   1.8139820
  45.7765250  27.5821750   6.3194140  46.2322200  26.8011130   6.6332760
  46.1157770  28.2928570   6.8635320  50.5242060  16.5120600  16.6518580
  49.9086330  17.0200270  16.1234040  50.2038480  15.6118930  16.5944520
  33.5267800  23.3538210  13.4784880  33.6898840  22.8843570  12.6604250
  33.9920250  22.8461770  14.1433720  38.2986570  12.4843970   8.5145450
  37.8554720  13.2653510   8.1829970  38.8571560  12.8073860   9.2216390
  42.5856380  15.3512490  14.1180770  42.1235750  15.5595510  14.9300710
  42.1834490  14.5371840  13.8151440  47.5860890  16.5721440  15.2477430
  46.7354480  16.2727190  15.5686500  47.4262680  16.8163450  14.3361250
  44.6810600  18.0723190  17.3476220  45.0064010  17.2386940  17.0078450
  45.4690930  18.5951710  17.4954550  41.4145390  12.1054670   3.3951280
  40.7899570  12.1014540   4.1204590  41.3275510  11.2385630   2.9987250
  40.3362470  13.0291300  10.3735050  40.6334800  13.9354130  10.2927070
  40.8848030  12.5410080   9.7594620  38.0900790  17.6077540   6.2426700
  37.8641710  17.3914710   7.1473320  37.3093320  18.0406000   5.8972670
  45.3198550  17.6140910   4.8417350  44.7207440  18.3376710   4.6580970
  45.8678160  17.5517690   4.0593800  40.5300000  18.5063120  16.9086970
  40.4343600  17.5657850  16.7587370  41.3731980  18.7278190  16.5135040
  43.9263420  16.2504450   6.8720630  44.3192990  16.5676650   6.0589320
  44.2880270  15.3716330   6.9865150  35.6610540  14.9176790  15.0620750
  35.2673930  15.7652000  15.2693530  34.9728940  14.2803160  15.2529390
  42.2355590  15.0011760  18.1317490  41.5453910  14.8083960  18.7663580
  42.9787890  15.2846400  18.6641790  32.9627590  12.8405250   9.0950830
  32.6740640  13.4108110   9.8075810  33.7073350  12.3609700   9.4582060
  44.5118560  18.8410200  10.9671410  43.7799680  19.3497010  11.3161510
  44.1142900  18.0240180  10.6660190  40.9495950  15.5164400   9.3723900
  40.9532010  15.0754350   8.5228440  41.8447070  15.8381730   9.4795720
  36.7998330  15.3990890   8.3318110  36.4598380  15.8766120   9.0885160
  36.0375650  14.9456010   7.9719210  41.0116100  16.5176480   2.3630660
  41.1328920  16.4762960   3.3116480  40.6264610  17.3800630   2.2077390
  44.9744470  14.2943880  10.3794350  44.9917210  14.7452530  11.2236200
  44.7260050  13.3949520  10.5927790  48.4015220  11.7076060  16.2180730
  48.7260990  10.9765720  16.7438710  48.4371730  11.3889700  15.3161720
  35.1006780  22.7289640  15.6380690  34.7161570  22.0883310  16.2363650
  35.4118970  23.4325760  16.2075420  41.2503920  19.5766180  11.1189310
  41.6174050  19.1024750  11.8650650  41.0608980  20.4507750  11.4597650
  34.1144410  14.3209870   7.2482780  33.8291330  13.9565540   8.0861400
  34.0523270  13.5890330   6.6345920  39.0403290  18.6174820  13.4373520
  38.7360360  19.4966800  13.6623880  39.9949750  18.6774610  13.4730960
  37.5685080  22.8235810   4.0340370  36.7947340  22.2833430   3.8739090
  38.2979710  22.3042420   3.6958130  48.3273060  21.8201170   9.8266760
  49.0472180  22.3156460   9.4362870  48.1254880  21.1419060   9.1820630
  43.7883000  13.2139130   3.9696150  42.9747610  12.7152300   3.8941460
  43.5944950  14.0537380   3.5532500  43.7091860  21.8910230  15.7135760
  43.6429170  20.9705900  15.4593350  43.0797000  21.9885670  16.4280400
  46.5031390  17.5858780   2.2658310  47.3911010  17.8976010   2.0909650
  46.4736480  16.7131030   1.8738890  37.6122480  22.4916190   7.6719180
  38.1301150  21.6884450   7.6176070  37.1606500  22.4295330   8.5136010
  42.4991980  23.7582470   2.9446480  42.8407680  24.5024700   2.4489800
  41.6704690  24.0713590   3.3071310  35.0967020  19.4577560  14.5844880
  34.7381960  20.1231410  15.1718220  34.8021580  18.6261110  14.9557500
  38.2980140  19.9161800  17.4684430  37.9980280  20.0618980  16.5712250
  39.0691380  19.3567090  17.3757820  43.6408590  24.7130800  15.4639560
  43.6553130  23.7811760  15.2458470  42.9333690  24.7990560  16.1029330
  49.8519800  21.3538140  14.8108140  49.1267990  21.9466920  14.6137530
  50.3795260  21.3461680  14.0121510  49.8032910  25.7512880   4.4620300
  49.1609070  25.0968500   4.7364020  49.4163570  26.1567970   3.6860970
  45.3819390  23.0798310   8.3091990  45.7343210  22.4826440   7.6493360
  44.4981720  22.7542540   8.4800240  41.4682670  23.8396000   5.7162400
  42.1553800  24.3865210   6.0969990  40.6815090  24.3836730   5.7512010
  40.7709880  20.8442030   5.3287760  41.2272660  21.6547280   5.5547950
  40.4198090  20.5265170   6.1606250  43.0742490  26.3548370  12.5580060
  43.7184710  26.5607750  13.2353480  43.4371930  25.5936770  12.1050910
  36.6721660  11.1879680   5.8010280  36.5436290  11.1797580   6.7495200
  35.8483680  11.5262770   5.4501290  44.3474570  24.3580720  11.2757510
  44.9896800  23.6573880  11.3889680  44.8723920  25.1379160  11.0954400
  46.1212190  25.1575620  14.4793570  46.4568430  25.7442310  15.1571490
  45.2012530  25.0268330  14.7091360  33.6715590  12.9470800  15.2616980
  32.9574110  13.1467720  15.8669590  34.0910630  12.1710370  15.6331780
  47.7746540  22.5601280   2.6610810  47.4868240  23.0213970   3.4488690
  48.5698710  22.0999050   2.9295030  33.9588180  26.9351060  16.2483510
  34.0679300  25.9945800  16.1078900  33.3068740  27.2005810  15.5997240
  41.9500770  25.2066950  17.6481630  41.6297640  24.4876190  18.1927320
  41.2759130  25.8822020  17.7217690  39.9914940  26.0527400   2.5914780
  39.9825040  26.7857090   1.9759290  39.0713300  25.8058980   2.6841740
  35.5921580  21.2742290   3.3361540  34.9849530  22.0141190   3.3456840
  36.0670930  21.3641650   2.5099740  45.1654370  15.4393110  13.0118430
  45.5335190  14.6188320  13.3398000  44.3052570  15.4995000  13.4274080
  48.5316400  14.3950050   3.8205990  47.9029560  14.4995720   3.1064220
  48.0368320  14.6146830   4.6099870  40.5000430  16.6736000   5.2363870
  39.7916580  17.1422340   5.6777480  40.7844910  16.0158010   5.8709060
  42.1256360  18.0932700  13.2356400  42.6241610  18.5678520  13.9008250
  42.2679310  17.1696220  13.4426430  44.5315860  13.3986660   6.6759660
  44.4083640  13.4172790   5.7269170  45.4800420  13.4465600   6.7958060
  41.6192650  28.6341960   5.9487640  41.8734150  28.5963350   5.0267010
  40.6705130  28.5075290   5.9415890  38.7035450  14.9821080   2.6114580
  39.5525980  15.4191230   2.5454770  38.3366720  15.2941340   3.4386640
  49.3323220  14.3100660  14.0784790  48.8296820  15.0506060  14.4178600
  50.1479880  14.6984660  13.7621580  47.6245230  19.5533840   7.5246150
  46.6835370  19.5684070   7.6993840  47.9389300  18.7669800   7.9706450
  36.2973630  18.6678510   1.7683000  36.3777220  17.7206020   1.8800400
  37.1893380  18.9985390   1.8743660  49.6270810  26.7242690   9.2000410
  49.7518230  27.5473860   9.6724220  50.4936370  26.5133420   8.8524560
  37.0988340  28.8173900   8.8717540  37.8350820  28.2689360   9.1426110
  37.4829260  29.6829910   8.7323530  33.9833820  24.8847470   4.7459050
  33.0573600  25.1268610   4.7364460  34.4490250  25.7121730   4.6243800
  36.1046620  28.0019970  18.0603120  36.9059350  28.3232020  18.4738520
  35.5898440  27.6415550  18.7823030  44.9411250  24.1099840  18.0078530
  44.3349410  24.1331440  17.2674280  44.6365360  23.3782880  18.5445780
  46.3711620  27.8380130  16.6187940  47.3233370  27.7538150  16.5688180
  46.2239840  28.5021840  17.2921730  49.2620820  27.2174340   2.1179850
  48.9762330  26.8039480   1.3034030  49.0640370  28.1462050   1.9980370
  33.8244430  20.4893430  17.0039170  34.3283450  19.9100710  17.5755400
  33.0851850  20.7733660  17.5415540  40.8782370  21.8964420  16.5374690
  40.1128040  22.4649420  16.4529360  41.0598330  21.6040630  15.6442920
  48.0205720  23.6269750  17.0949710  48.7615190  23.9645510  16.5917170
  47.2578400  23.7961810  16.5419480  35.8567510  18.6323020  17.8989240
  35.8972850  18.3336890  18.8074470  36.7113010  19.0330630  17.7396760
  39.6345900  21.2318570   3.0592750  40.0562320  21.0658440   3.9024140
  39.7596740  20.4218800   2.5647890  37.7973320  17.2115120  15.8663730
  37.2669780  16.7206070  15.2387070  38.4661390  17.6399320  15.3321660
  46.6951380  21.6784580  15.6304920  47.1092400  21.8329660  16.4795340
  45.7602380  21.8039800  15.7930700  47.1673550  19.0180740  17.6344070
  47.7494320  18.2633060  17.5464550  47.3435320  19.5488180  16.8575550
  38.2845620  14.1777490  15.9461020  38.1902490  13.5598240  15.2211890
  37.7043010  14.9043780  15.7190930  41.0507060  12.7350730  12.9788410
  40.6024360  12.7574990  12.1333960  40.4172260  12.3369750  13.5758710
  41.4566610  21.6305060  13.6000850  41.8754720  22.4737790  13.4277090
  40.5375240  21.7677100  13.3707630  43.7930510  19.3621240  14.9838690
  43.9126720  18.7662380  15.7233530  44.6524510  19.3990930  14.5639990
  46.1318410  19.9158430  13.5601200  45.6053630  20.4401050  12.9566340
  46.4749750  20.5485820  14.1910930  39.3074030  27.9358070  14.7158580
  38.7695120  28.6604130  14.3967280  39.5607990  27.4588410  13.9255920
  40.5599280  15.9042590  16.2414510  41.1498970  15.5958440  16.9292330
  39.7419520  15.4322340  16.3974410  45.3792710  15.5208400  16.4747530
  44.6908230  14.8589940  16.4097520  46.0998730  15.0746670  16.9195990
  46.0093110  12.1160030   2.5337790  46.2895400  11.2727930   2.8897210
  45.2358840  12.3483140   3.0476540  42.1636240  29.1709280  14.9745230
  42.0894940  30.0744420  15.2817600  41.2615080  28.8521180  14.9467300
  42.7121570  28.3367790   2.5971590  43.6072360  28.6752760   2.6190350
  42.7439200  27.6147200   1.9695870  33.5663530  26.4983870   8.2778850
  33.8966540  25.6304930   8.0457490  33.9954530  26.7042390   9.1083810
  38.1625450  24.8292880   5.9380820  37.8620990  24.7057850   6.8384730
  38.0562940  23.9701470   5.5296550  34.0553740  27.3654460  11.0160480
  33.6184730  27.5455260  11.8484630  34.6231420  28.1229080  10.8742200
  49.6915920  26.8671460  15.3037790  49.0917910  26.9264020  14.5601710
  49.8209820  25.9276440  15.4334640  50.3873830  21.3536760   3.1441700
  51.1492740  21.9233410   3.2501390  50.4028200  20.7863960   3.9150010
  33.8878170  19.8774690   7.3749360  33.2327010  19.6086330   6.7309060
  34.7256120  19.7679170   6.9251340  51.3933800  22.2086860   7.9883630
  51.7642630  21.4254180   7.5819600  52.0335730  22.8975960   7.8100930
  48.3767560  23.5923440  13.4013950  47.5627400  24.0220600  13.6639740
  48.7841760  24.2041850  12.7883000  50.3358340  19.5840120   5.2943650
  49.9601940  18.8168050   4.8624940  49.6061460  19.9662820   5.7818580
  34.9254100  20.2627260  11.9152700  35.2927140  20.1754660  12.7948720
  34.3564920  19.4993810  11.8159560  49.7257960  18.7311640  14.9283170
  49.4944050  18.5024390  14.0281120  49.9862510  19.6511190  14.8828060
  34.4770100  17.1736350  15.8211120  33.5826150  17.1403110  16.1604830
  35.0167650  17.3723140  16.5862370  48.1646030  13.9568070  17.7062870
  49.0416210  13.9651470  18.0896870  48.1766870  13.2198910  17.0955220
  33.1016250  17.0873620   3.3174690  32.1980330  17.3503820   3.1426350
  33.5856870  17.3584790   2.5374650  49.6109300  17.8097610   8.5950890
  50.1346780  17.3160260   7.9641060  50.1968720  17.9447970   9.3398460
  49.7899020  17.8937480  12.1170440  48.8401730  17.8601020  12.2315430
  49.9712030  18.8037590  11.8820210  49.1009270  17.0670960   4.5343300
  49.5968390  16.8341830   5.3192180  48.9025340  16.2282800   4.1180940
  34.9809810  11.4484680  10.1694340  35.6286000  10.8982060   9.7289500
  35.4011650  11.7027830  10.9910150  50.5296430  15.7031910   7.0680980
  50.4195710  15.5487950   8.0063250  51.2904020  15.1752850   6.8256390
  48.8762150  11.6426040  13.5263980  49.5134370  12.2560180  13.8923170
  49.0237040  11.6786700  12.5813210  51.4925190  14.3050490   2.9343830
  50.6976690  14.2395610   3.4636740  51.6968470  15.2401130   2.9229180
  48.4343610  28.3442040   6.9282220  49.0302680  28.0226610   6.2516640
  48.6921760  27.8713860   7.7195490  34.7341810  11.6040350  12.9119660
  34.3856630  12.0604170  13.6777840  34.4029510  10.7097480  12.9942090
  36.3406180  24.7759950  17.0772850  36.2975810  24.4052860  17.9587310
  36.4717190  25.7137520  17.2174670  40.0412210  26.3319540  12.6782570
  39.8003570  26.5994100  11.7913090  40.9814850  26.5025270  12.7333430
  42.2466630  12.7952230  16.4339080  42.1855520  13.3874060  17.1834490
  43.1867010  12.6878190  16.2889340  44.8841190  12.4522290  16.0731370
  45.4981600  12.7701580  15.4112450  45.4290750  11.9670880  16.6927230
  51.3016370  28.3513920  13.4793210  50.8074650  28.7482790  12.7620340
  50.6929660  27.7263130  13.8730490  35.4062450  11.1316550  16.1870430
  35.9545440  10.9504600  15.4236540  35.4717760  10.3410660  16.7226740
  36.1794210  27.7222200  14.1970630  35.5854530  27.5906900  14.9360670
  36.1718050  26.8860340  13.7312730  45.6249230  11.0154430  12.4000660
  44.7509070  11.3489540  12.1973590  45.5159980  10.5427610  13.2252530
  46.5321210  13.2225300  13.7842380  46.2034570  12.4077060  13.4044110
  47.4803510  13.1795110  13.6608070  48.9855820  28.9937340  10.7579950
  48.5258790  29.7453150  10.3837970  48.3568280  28.2743810  10.6994750
  35.8106440  25.0880580  13.1478670  35.0840500  24.4685870  13.0804620
  35.8715590  25.4821190  12.2776750  39.4151540  27.3025580   9.9328080
  39.9316560  26.6912940   9.4076340  40.0648920  27.8054360  10.4239090
  42.1547040  28.1934070  10.7597060  42.4424850  27.9388370   9.8830070
  42.6670260  27.6411430  11.3502630  43.3724050  11.9324270  11.3393570
  42.5895840  12.4069770  11.6190330  43.0786980  11.0279100  11.2306750
  47.9245120  12.6347370   9.3842660  48.3653210  12.5792470   8.5364260
  47.6552710  13.5505380   9.4552840  49.7883690  12.2662610   7.3951480
  49.7272090  11.3223830   7.2482500  50.5675720  12.3742700   7.9404940
  34.0936440  28.4054970   6.3575430  33.9258480  27.7725650   7.0557320
  33.2270950  28.6114370   6.0069620  34.7164460  12.2371750   3.8607290
  35.4743820  12.3500630   3.2871320  34.2541630  13.0740950   3.8150720
  41.2578270  14.3511020   6.8509600  40.4452780  13.9767910   6.5105480
  41.7619910  13.5956100   7.1530790  45.7603250  11.0153470   8.0892670
  46.3632620  11.5873680   8.5641190  45.0196240  11.5792910   7.8666570
  48.9037850  11.4175030   3.3632950  49.0988480  12.3158480   3.6300380
  48.1167720  11.1862110   3.8565900  35.6999140  27.0988200   3.8025570
  35.1746760  27.4796230   3.0987530  35.6243720  27.7238970   4.5235280
  37.0889610  12.7635800   2.4009260  37.6182370  11.9765600   2.2717210
  37.7217930  13.4426990   2.6344790  39.2827450  12.5010940   5.4554650
  38.6530190  11.7998250   5.6224780  38.7432590  13.2615070   5.2387810
  42.2219400  29.1150170  18.1265260  43.1486710  28.8794440  18.1701220
  42.2069830  29.9422170  17.6451290  50.4564460  28.6575740   5.1239510
  50.6316650  27.9713480   4.4800430  49.7586030  29.1822790   4.7316180
  39.4083010  11.7794920  17.8907140  39.1267280  12.2828520  17.1267960
  39.7902710  10.9816670  17.5249270  38.2992110  29.0470580   2.6774820
  39.0310930  28.7629860   2.1298710  38.5585780  28.8083860   3.5674200
  37.4606900  25.1635310   2.6821150  36.8315780  25.6320410   3.2306980
  37.5754730  24.3184530   3.1167340  46.0098470  11.1948500  18.4687610
  45.8963920  11.5143110  19.3639130  46.8268210  11.5961010  18.1724890
  48.7896960  28.3420030  17.9506300  49.5822280  27.8469260  17.7432260
  49.0830110  29.0210170  18.5581910  43.0474660   2.2176500 103.3592560
  42.2716760   1.7376940 103.6491130  43.6987590   1.5382150 103.1848720
  37.0640490   2.5296310 104.2368320  36.2325370   2.2745020 104.6364830
  37.6721470   2.6007080 104.9726240  47.0682090   6.6236690 102.1391690
  46.6063620   5.8523930 102.4678860  47.8807640   6.6502760 102.6444140
  37.0441750   6.5636400 104.4326340  37.3469790   5.6734140 104.2536560
  37.7885340   7.1206620 104.2048590  43.2945400   8.9094700 101.7595680
  42.6756840   9.3652200 101.1890120  44.1497180   9.0646160 101.3585380
  42.4883650   4.8933690 103.3662720  42.4191930   3.9523630 103.2051850
  43.2503510   4.9835100 103.9385290  44.1608750   3.7933940  99.1527590
  43.5426020   4.2583390  98.5890310  44.6732000   4.4861420  99.5697100
  39.0240510   3.3209810 105.8311190  38.6909890   3.9478730 106.4732260
  39.2007190   3.8471690 105.0512860  38.2359610   5.2890610 107.6460370
  38.8533610   5.9641690 107.3644820  37.3752730   5.6978590 107.5547870
  33.5291950   4.4790470  96.5267220  33.1519930   4.9677570  95.7952120
  33.7865020   5.1515750  97.1573750  49.1537200   6.7530020 105.5615010
  48.4700720   7.4229130 105.5531680  49.6931490   6.9510670 104.7959870
  46.6895940   8.5974150 104.2760190  46.7023100   8.1936440 103.4082450
  46.1371160   9.3721440 104.1721620  47.9841360   5.3190370  99.3650360
  47.8737690   4.3764700  99.4899780  47.9809610   5.6806010 100.2513120
  46.0881380   3.5003990 105.6042800  46.5050170   3.2864100 104.7696260
  46.8121200   3.7576780 106.1751420  50.0343480   1.8991210 105.6959040
  49.2062110   1.9684300 105.2209170  50.6293960   2.4845520 105.2274870
  47.5558930   2.5075990  99.2248100  46.9371350   2.1695540  98.5774400
  47.5383380   1.8635750  99.9327290  39.5999980   5.1587990 103.6671790
  39.3028270   4.5533460 102.9879570  40.5499800   5.1965300 103.5561150
  47.6885590   8.7319860 107.3294890  47.2116150   9.5392050 107.1367500
  47.0047380   8.0798190 107.4821100  38.6918410   4.8969680 110.3179590
  37.7946940   5.1209650 110.5652990  38.7171280   5.0204620 109.3690990
  37.5189630   1.7683000 108.8936960  37.3797400   2.6405800 109.2624360
  36.6370990   1.4255810 108.7484900  43.8419010   6.6858870 100.2002090
  44.2814920   7.4283200  99.7857480  43.7805900   6.9285440 101.1241050
  33.4708280   3.5380550 104.8107870  33.5488700   3.6729320 103.8663590
  34.0849960   2.8296440 105.0035990  34.7155910   5.2380740 101.2214050
  34.3083990   5.3795330 100.3667650  35.6068920   4.9540900 101.0185260
  50.6718050   5.6844650 109.5586290  50.7981110   5.4456530 108.6403470
  50.7139430   4.8529190 110.0308370  44.5334790   9.3872650 108.1281100
  45.0479460   9.2980660 108.9303530  43.6903870   9.7332350 108.4209010
  46.5089190   9.6727990  97.5565100  46.3490330   9.3830930  98.4546930
  46.3435900   8.8968120  97.0210330  38.9877570   9.4526520  99.3336720
  38.8120050   8.5362060  99.1204520  38.1333310   9.8113810  99.5734520
  46.2115320   7.1815550  96.1163100  45.5180480   7.1792840  95.4565380
  46.9538180   6.7574870  95.6857270  45.7765250   8.8078260 100.1911590
  46.2322200   8.0267640 100.5050210  46.1157770   9.5185080 100.7352770
  33.5267800   4.5794720 107.3502330  33.6898840   4.1100080 106.5321700
  33.9920250   4.0718280 108.0151170  35.1006780   3.9546150 109.5098140
  34.7161570   3.3139820 110.1081100  35.4118970   4.6582270 110.0792870
  37.5685080   4.0492320  97.9057820  36.7947340   3.5089940  97.7456540
  38.2979710   3.5298930  97.5675580  48.3273060   3.0457680 103.6984210
  49.0472180   3.5412970 103.3080320  48.1254880   2.3675570 103.0538080
  43.7091860   3.1166740 109.5853210  43.6429170   2.1962410 109.3310800
  43.0797000   3.2142180 110.2997850  37.6122480   3.7172700 101.5436630
  38.1301150   2.9140960 101.4893520  37.1606500   3.6551840 102.3853460
  42.4991980   4.9838980  96.8163930  42.8407680   5.7281210  96.3207250
  41.6704690   5.2970100  97.1788760  43.6408590   5.9387310 109.3357010
  43.6553130   5.0068270 109.1175920  42.9333690   6.0247070 109.9746780
  49.8519800   2.5794650 108.6825590  49.1267990   3.1723430 108.4854980
  50.3795260   2.5718190 107.8838960  49.8032910   6.9769390  98.3337750
  49.1609070   6.3225010  98.6081470  49.4163570   7.3824480  97.5578420
  45.3819390   4.3054820 102.1809440  45.7343210   3.7082950 101.5210810
  44.4981720   3.9799050 102.3517690  41.4682670   5.0652510  99.5879850
  42.1553800   5.6121720  99.9687440  40.6815090   5.6093240  99.6229460
  40.7709880   2.0698540  99.2005210  41.2272660   2.8803790  99.4265400
  40.4198090   1.7521680 100.0323700  43.0742490   7.5804880 106.4297510
  43.7184710   7.7864260 107.1070930  43.4371930   6.8193280 105.9768360
  44.3474570   5.5837230 105.1474960  44.9896800   4.8830390 105.2607130
  44.8723920   6.3635670 104.9671850  48.1930290   5.8685850  94.8714100
  47.9667870   5.1516290  95.4638740  47.8026490   5.6198290  94.0335850
  46.1212190   6.3832130 108.3511020  46.4568430   6.9698820 109.0288940
  45.2012530   6.2524840 108.5808810  33.9746320   9.8952710  95.6458560
  34.3343960  10.4942050  94.9915830  33.8338660  10.4412600  96.4193590
  47.7746540   3.7857790  96.5328260  47.4868240   4.2470480  97.3206140
  48.5698710   3.3255560  96.8012480  33.9588180   8.1607570 110.1200960
  34.0679300   7.2202310 109.9796350  33.3068740   8.4262320 109.4714690
  39.9914940   7.2783910  96.4632230  39.9825040   8.0113600  95.8476740
  39.0713300   7.0315490  96.5559190  35.5921580   2.4998800  97.2078990
  34.9849530   3.2397700  97.2174290  36.0670930   2.5898160  96.3817190
  42.9774540   7.3412150  95.1257420  43.0786520   7.1376140  94.1959400
  42.0776280   7.0870430  95.3305200  41.6192650   9.8598470  99.8205090
  41.8734150   9.8219860  98.8984460  40.6705130   9.7331800  99.8133340
  37.6026870   2.4609950  94.9567560  38.3690140   2.3491310  95.5192990
  37.6801560   1.7647920  94.3044330  49.6270810   7.9499200 103.0717860
  49.7518230   8.7730370 103.5441670  50.4936370   7.7389930 102.7242010
  37.0988340  10.0430410 102.7434990  37.8350820   9.4945870 103.0143560
  37.4829260  10.9086420 102.6040980  33.9833820   6.1103980  98.6176500
  33.0573600   6.3525120  98.6081910  34.4490250   6.9378240  98.4961250
  40.2090650   9.2160720  94.5660560  41.0019260   9.5049550  94.1142350
  39.6895000   8.7852890  93.8873040  49.2620820   8.4430850  95.9897300
  48.9762330   8.0295990  95.1751480  49.0640370   9.3718560  95.8697820
  40.7268050   4.4364130  94.4302910  40.6218690   3.8216480  95.1564290
  40.5592270   3.9130020  93.6465920  40.8782370   3.1220930 110.4092140
  40.1128040   3.6905930 110.3246810  41.0598330   2.8297140 109.5160370
  43.9670780   3.4984160  95.0344900  43.4180880   3.9453460  95.6787640
  44.5890040   2.9933410  95.5582570  48.0205720   4.8526260 110.9667160
  48.7615190   5.1902020 110.4634620  47.2578400   5.0218320 110.4136930
  39.6345900   2.4575080  96.9310200  40.0562320   2.2914950  97.7741590
  39.7596740   1.6475310  96.4365340  46.6951380   2.9041090 109.5022370
  47.1092400   3.0586170 110.3512790  45.7602380   3.0296310 109.6648150
  41.4566610   2.8561570 107.4718300  41.8754720   3.6994300 107.2994540
  40.5375240   2.9933610 107.2425080  39.3074030   9.1614580 108.5876030
  38.7695120   9.8860640 108.2684730  39.5607990   8.6844920 107.7973370
  42.1636240  10.3965790 108.8462680  42.0894940  11.3000930 109.1535050
  41.2615080  10.0777690 108.8184750  42.7121570   9.5624300  96.4689040
  43.6072360   9.9009270  96.4907800  42.7439200   8.8403710  95.8413320
  36.3517730   4.9351350  94.6976040  36.7892600   5.4781020  95.3533620
  36.8365460   4.1098300  94.7072380  33.5663530   7.7240380 102.1496300
  33.8966540   6.8561440 101.9174940  33.9954530   7.9298900 102.9801260
  38.1625450   6.0549390  99.8098270  37.8620990   5.9314360 100.7102180
  38.0562940   5.1957980  99.4014000  34.0553740   8.5910970 104.8877930
  33.6184730   8.7711770 105.7202080  34.6231420   9.3485590 104.7459650
  49.6915920   8.0927970 109.1755240  49.0917910   8.1520530 108.4319160
  49.8209820   7.1532950 109.3052090  50.9317370   5.8345790  94.5124950
  50.1010330   5.9022440  94.9832180  51.1089200   6.7249910  94.2091810
  50.3873830   2.5793270  97.0159150  51.1492740   3.1489920  97.1218840
  50.4028200   2.0120470  97.7867460  51.3933800   3.4343370 101.8601080
  51.7642630   2.6510690 101.4537050  52.0335730   4.1232470 101.6818380
  48.3767560   4.8179950 107.2731400  47.5627400   5.2477110 107.5357190
  48.7841760   5.4298360 106.6600450  50.4393000   2.8727640  94.1731670
  50.7141840   3.7806520  94.0450890  50.2503740   2.8090170  95.1093660
  48.4343610   9.5698550 100.7999670  49.0302680   9.2483120 100.1234090
  48.6921760   9.0970370 101.5912940  40.0412210   7.5576050 106.5500020
  39.8003570   7.8250610 105.6630540  40.9814850   7.7281780 106.6050880
  51.3016370   9.5770430 107.3510660  50.8074650   9.9739300 106.6337790
  50.6929660   8.9519640 107.7447940  36.1794210   8.9478710 108.0688080
  35.5854530   8.8163410 108.8078120  36.1718050   8.1116850 107.6030180
  48.9855820  10.2193850 104.6297400  48.5258790  10.9709660 104.2555420
  48.3568280   9.5000320 104.5712200  35.8106440   6.3137090 107.0196120
  35.0840500   5.6942380 106.9522070  35.8715590   6.7077700 106.1494200
  39.4151540   8.5282090 103.8045530  39.9316560   7.9169450 103.2793790
  40.0648920   9.0310870 104.2956540  42.1547040   9.4190580 104.6314510
  42.4424850   9.1644880 103.7547520  42.6670260   8.8667940 105.2220080
  34.0936440   9.6311480 100.2292880  33.9258480   8.9982160 100.9274770
  33.2270950   9.8370880  99.8787070  35.6999140   8.3244710  97.6743020
  35.1746760   8.7052740  96.9704980  35.6243720   8.9495480  98.3952730
  50.4564460   9.8832250  98.9956960  50.6316650   9.1969990  98.3517880
  49.7586030  10.4079300  98.6033630  38.2992110  10.2727090  96.5492270
  39.0310930   9.9886370  96.0016160  38.5585780  10.0340370  97.4391650
  37.4606900   6.3891820  96.5538600  36.8315780   6.8576920  97.1024430
  37.5754730   5.5441040  96.9884790  43.0474660   2.2176500  84.5849070
  42.2716760   1.7376940  84.8747640  43.6987590   1.5382150  84.4105230
  37.0640490   2.5296310  85.4624830  36.2325370   2.2745020  85.8621340
  37.6721470   2.6007080  86.1982750  47.0682090   6.6236690  83.3648200
  46.6063620   5.8523930  83.6935370  47.8807640   6.6502760  83.8700650
  37.0441750   6.5636400  85.6582850  37.3469790   5.6734140  85.4793070
  37.7885340   7.1206620  85.4305100  43.2945400   8.9094700  82.9852190
  42.6756840   9.3652200  82.4146630  44.1497180   9.0646160  82.5841890
  42.4883650   4.8933690  84.5919230  42.4191930   3.9523630  84.4308360
  43.2503510   4.9835100  85.1641800  44.1608750   3.7933940  80.3784100
  43.5426020   4.2583390  79.8146820  44.6732000   4.4861420  80.7953610
  39.0240510   3.3209810  87.0567700  38.6909890   3.9478730  87.6988770
  39.2007190   3.8471690  86.2769370  38.2359610   5.2890610  88.8716880
  38.8533610   5.9641690  88.5901330  37.3752730   5.6978590  88.7804380
  33.5291950   4.4790470  77.7523730  33.1519930   4.9677570  77.0208630
  33.7865020   5.1515750  78.3830260  49.1537200   6.7530020  86.7871520
  48.4700720   7.4229130  86.7788190  49.6931490   6.9510670  86.0216380
  46.6895940   8.5974150  85.5016700  46.7023100   8.1936440  84.6338960
  46.1371160   9.3721440  85.3978130  47.9841360   5.3190370  80.5906870
  47.8737690   4.3764700  80.7156290  47.9809610   5.6806010  81.4769630
  46.0881380   3.5003990  86.8299310  46.5050170   3.2864100  85.9952770
  46.8121200   3.7576780  87.4007930  50.0343480   1.8991210  86.9215550
  49.2062110   1.9684300  86.4465680  50.6293960   2.4845520  86.4531380
  47.5558930   2.5075990  80.4504610  46.9371350   2.1695540  79.8030910
  47.5383380   1.8635750  81.1583800  39.5999980   5.1587990  84.8928300
  39.3028270   4.5533460  84.2136080  40.5499800   5.1965300  84.7817660
  47.6885590   8.7319860  88.5551400  47.2116150   9.5392050  88.3624010
  47.0047380   8.0798190  88.7077610  38.6918410   4.8969680  91.5436100
  37.7946940   5.1209650  91.7909500  38.7171280   5.0204620  90.5947500
  37.5189630   1.7683000  90.1193470  37.3797400   2.6405800  90.4880870
  36.6370990   1.4255810  89.9741410  43.8419010   6.6858870  81.4258600
  44.2814920   7.4283200  81.0113990  43.7805900   6.9285440  82.3497560
  39.3169980   7.7104700  92.3278620  39.2885410   8.1147650  91.4607050
  39.1534950   6.7815060  92.1650220  51.2684800   8.4931800  93.6242790
  51.7444520   8.9714690  94.3031870  51.8891960   8.4249290  92.8988290
  33.4708280   3.5380550  86.0364380  33.5488700   3.6729320  85.0920100
  34.0849960   2.8296440  86.2292500  34.7155910   5.2380740  82.4470560
  34.3083990   5.3795330  81.5924160  35.6068920   4.9540900  82.2441770
  50.6718050   5.6844650  90.7842800  50.7981110   5.4456530  89.8659980
  50.7139430   4.8529190  91.2564880  44.5334790   9.3872650  89.3537610
  45.0479460   9.2980660  90.1560040  43.6903870   9.7332350  89.6465520
  46.5089190   9.6727990  78.7821610  46.3490330   9.3830930  79.6803440
  46.3435900   8.8968120  78.2466840  38.9877570   9.4526520  80.5593230
  38.8120050   8.5362060  80.3461030  38.1333310   9.8113810  80.7991030
  46.2115320   7.1815550  77.3419610  45.5180480   7.1792840  76.6821890
  46.9538180   6.7574870  76.9113780  45.7765250   8.8078260  81.4168100
  46.2322200   8.0267640  81.7306720  46.1157770   9.5185080  81.9609280
  33.5267800   4.5794720  88.5758840  33.6898840   4.1100080  87.7578210
  33.9920250   4.0718280  89.2407680  35.1006780   3.9546150  90.7354650
  34.7161570   3.3139820  91.3337610  35.4118970   4.6582270  91.3049380
  37.5685080   4.0492320  79.1314330  36.7947340   3.5089940  78.9713050
  38.2979710   3.5298930  78.7932090  48.3273060   3.0457680  84.9240720
  49.0472180   3.5412970  84.5336830  48.1254880   2.3675570  84.2794590
  43.7091860   3.1166740  90.8109720  43.6429170   2.1962410  90.5567310
  43.0797000   3.2142180  91.5254360  37.6122480   3.7172700  82.7693140
  38.1301150   2.9140960  82.7150030  37.1606500   3.6551840  83.6109970
  42.4991980   4.9838980  78.0420440  42.8407680   5.7281210  77.5463760
  41.6704690   5.2970100  78.4045270  43.6408590   5.9387310  90.5613520
  43.6553130   5.0068270  90.3432430  42.9333690   6.0247070  91.2003290
  49.8519800   2.5794650  89.9082100  49.1267990   3.1723430  89.7111490
  50.3795260   2.5718190  89.1095470  49.8032910   6.9769390  79.5594260
  49.1609070   6.3225010  79.8337980  49.4163570   7.3824480  78.7834930
  45.3819390   4.3054820  83.4065950  45.7343210   3.7082950  82.7467320
  44.4981720   3.9799050  83.5774200  41.4682670   5.0652510  80.8136360
  42.1553800   5.6121720  81.1943950  40.6815090   5.6093240  80.8485970
  40.7709880   2.0698540  80.4261720  41.2272660   2.8803790  80.6521910
  40.4198090   1.7521680  81.2580210  43.0742490   7.5804880  87.6554020
  43.7184710   7.7864260  88.3327440  43.4371930   6.8193280  87.2024870
  44.3474570   5.5837230  86.3731470  44.9896800   4.8830390  86.4863640
  44.8723920   6.3635670  86.1928360  48.1930290   5.8685850  76.0970610
  47.9667870   5.1516290  76.6895250  47.8026490   5.6198290  75.2592360
  46.1212190   6.3832130  89.5767530  46.4568430   6.9698820  90.2545450
  45.2012530   6.2524840  89.8065320  33.9746320   9.8952710  76.8715070
  34.3343960  10.4942050  76.2172340  33.8338660  10.4412600  77.6450100
  47.7746540   3.7857790  77.7584770  47.4868240   4.2470480  78.5462650
  48.5698710   3.3255560  78.0268990  33.9588180   8.1607570  91.3457470
  34.0679300   7.2202310  91.2052860  33.3068740   8.4262320  90.6971200
  41.9500770   6.4323460  92.7455590  41.6297640   5.7132700  93.2901280
  41.2759130   7.1078530  92.8191650  39.9914940   7.2783910  77.6888740
  39.9825040   8.0113600  77.0733250  39.0713300   7.0315490  77.7815700
  35.5921580   2.4998800  78.4335500  34.9849530   3.2397700  78.4430800
  36.0670930   2.5898160  77.6073700  42.9774540   7.3412150  76.3513930
  43.0786520   7.1376140  75.4215910  42.0776280   7.0870430  76.5561710
  41.6192650   9.8598470  81.0461600  41.8734150   9.8219860  80.1240970
  40.6705130   9.7331800  81.0389850  37.6026870   2.4609950  76.1824070
  38.3690140   2.3491310  76.7449500  37.6801560   1.7647920  75.5300840
  49.6270810   7.9499200  84.2974370  49.7518230   8.7730370  84.7698180
  50.4936370   7.7389930  83.9498520  37.0988340  10.0430410  83.9691500
  37.8350820   9.4945870  84.2400070  37.4829260  10.9086420  83.8297490
  33.9833820   6.1103980  79.8433010  33.0573600   6.3525120  79.8338420
  34.4490250   6.9378240  79.7217760  36.1046620   9.2276480  93.1577080
  36.9059350   9.5488530  93.5712480  35.5898440   8.8672060  93.8796990
  40.2090650   9.2160720  75.7917070  41.0019260   9.5049550  75.3398860
  39.6895000   8.7852890  75.1129550  44.9411250   5.3356350  93.1052490
  44.3349410   5.3587950  92.3648240  44.6365360   4.6039390  93.6419740
  46.3711620   9.0636640  91.7161900  47.3233370   8.9794660  91.6662140
  46.2239840   9.7278350  92.3895690  49.2620820   8.4430850  77.2153810
  48.9762330   8.0295990  76.4007990  49.0640370   9.3718560  77.0954330
  40.7268050   4.4364130  75.6559420  40.6218690   3.8216480  76.3820800
  40.5592270   3.9130020  74.8722430  40.8782370   3.1220930  91.6348650
  40.1128040   3.6905930  91.5503320  41.0598330   2.8297140  90.7416880
  43.9670780   3.4984160  76.2601410  43.4180880   3.9453460  76.9044150
  44.5890040   2.9933410  76.7839080  48.0205720   4.8526260  92.1923670
  48.7615190   5.1902020  91.6891130  47.2578400   5.0218320  91.6393440
  39.6345900   2.4575080  78.1566710  40.0562320   2.2914950  78.9998100
  39.7596740   1.6475310  77.6621850  46.6951380   2.9041090  90.7278880
  47.1092400   3.0586170  91.5769300  45.7602380   3.0296310  90.8904660
  41.4566610   2.8561570  88.6974810  41.8754720   3.6994300  88.5251050
  40.5375240   2.9933610  88.4681590  39.3074030   9.1614580  89.8132540
  38.7695120   9.8860640  89.4941240  39.5607990   8.6844920  89.0229880
  42.1636240  10.3965790  90.0719190  42.0894940  11.3000930  90.3791560
  41.2615080  10.0777690  90.0441260  42.7121570   9.5624300  77.6945550
  43.6072360   9.9009270  77.7164310  42.7439200   8.8403710  77.0669830
  36.3517730   4.9351350  75.9232550  36.7892600   5.4781020  76.5790130
  36.8365460   4.1098300  75.9328890  33.5663530   7.7240380  83.3752810
  33.8966540   6.8561440  83.1431450  33.9954530   7.9298900  84.2057770
  38.1625450   6.0549390  81.0354780  37.8620990   5.9314360  81.9358690
  38.0562940   5.1957980  80.6270510  34.0553740   8.5910970  86.1134440
  33.6184730   8.7711770  86.9458590  34.6231420   9.3485590  85.9716160
  49.6915920   8.0927970  90.4011750  49.0917910   8.1520530  89.6575670
  49.8209820   7.1532950  90.5308600  50.9317370   5.8345790  75.7381460
  50.1010330   5.9022440  76.2088690  51.1089200   6.7249910  75.4348320
  50.3873830   2.5793270  78.2415660  51.1492740   3.1489920  78.3475350
  50.4028200   2.0120470  79.0123970  51.3933800   3.4343370  83.0857590
  51.7642630   2.6510690  82.6793560  52.0335730   4.1232470  82.9074890
  48.3767560   4.8179950  88.4987910  47.5627400   5.2477110  88.7613700
  48.7841760   5.4298360  87.8856960  50.4393000   2.8727640  75.3988180
  50.7141840   3.7806520  75.2707400  50.2503740   2.8090170  76.3350170
  48.4343610   9.5698550  82.0256180  49.0302680   9.2483120  81.3490600
  48.6921760   9.0970370  82.8169450  36.3406180   6.0016460  92.1746810
  36.2975810   5.6309370  93.0561270  36.4717190   6.9394030  92.3148630
  40.0412210   7.5576050  87.7756530  39.8003570   7.8250610  86.8887050
  40.9814850   7.7281780  87.8307390  51.3016370   9.5770430  88.5767170
  50.8074650   9.9739300  87.8594300  50.6929660   8.9519640  88.9704450
  36.1794210   8.9478710  89.2944590  35.5854530   8.8163410  90.0334630
  36.1718050   8.1116850  88.8286690  48.9855820  10.2193850  85.8553910
  48.5258790  10.9709660  85.4811930  48.3568280   9.5000320  85.7968710
  35.8106440   6.3137090  88.2452630  35.0840500   5.6942380  88.1778580
  35.8715590   6.7077700  87.3750710  39.4151540   8.5282090  85.0302040
  39.9316560   7.9169450  84.5050300  40.0648920   9.0310870  85.5213050
  42.1547040   9.4190580  85.8571020  42.4424850   9.1644880  84.9804030
  42.6670260   8.8667940  86.4476590  34.0936440   9.6311480  81.4549390
  33.9258480   8.9982160  82.1531280  33.2270950   9.8370880  81.1043580
  35.6999140   8.3244710  78.8999530  35.1746760   8.7052740  78.1961490
  35.6243720   8.9495480  79.6209240  42.2219400  10.3406680  93.2239220
  43.1486710  10.1050950  93.2675180  42.2069830  11.1678680  92.7425250
  50.4564460   9.8832250  80.2213470  50.6316650   9.1969990  79.5774390
  49.7586030  10.4079300  79.8290140  38.2992110  10.2727090  77.7748780
  39.0310930   9.9886370  77.2272670  38.5585780  10.0340370  78.6648160
  37.4606900   6.3891820  77.7795110  36.8315780   6.8576920  78.3280940
  37.5754730   5.5441040  78.2141300  48.7896960   9.5676540  93.0480260
  49.5822280   9.0725770  92.8406220  49.0830110  10.2466680  93.6555870
  43.0474660   2.2176500  65.8105580  42.2716760   1.7376940  66.1004150
  43.6987590   1.5382150  65.6361740  37.0640490   2.5296310  66.6881340
  36.2325370   2.2745020  67.0877850  37.6721470   2.6007080  67.4239260
  47.0682090   6.6236690  64.5904710  46.6063620   5.8523930  64.9191880
  47.8807640   6.6502760  65.0957160  37.0441750   6.5636400  66.8839360
  37.3469790   5.6734140  66.7049580  37.7885340   7.1206620  66.6561610
  43.2945400   8.9094700  64.2108700  42.6756840   9.3652200  63.6403140
  44.1497180   9.0646160  63.8098400  42.4883650   4.8933690  65.8175740
  42.4191930   3.9523630  65.6564870  43.2503510   4.9835100  66.3898310
  44.1608750   3.7933940  61.6040610  43.5426020   4.2583390  61.0403330
  44.6732000   4.4861420  62.0210120  39.0240510   3.3209810  68.2824210
  38.6909890   3.9478730  68.9245280  39.2007190   3.8471690  67.5025880
  38.2359610   5.2890610  70.0973390  38.8533610   5.9641690  69.8157840
  37.3752730   5.6978590  70.0060890  33.5291950   4.4790470  58.9780240
  33.1519930   4.9677570  58.2465140  33.7865020   5.1515750  59.6086770
  49.1537200   6.7530020  68.0128030  48.4700720   7.4229130  68.0044700
  49.6931490   6.9510670  67.2472890  46.6895940   8.5974150  66.7273210
  46.7023100   8.1936440  65.8595470  46.1371160   9.3721440  66.6234640
  47.9841360   5.3190370  61.8163380  47.8737690   4.3764700  61.9412800
  47.9809610   5.6806010  62.7026140  46.0881380   3.5003990  68.0555820
  46.5050170   3.2864100  67.2209280  46.8121200   3.7576780  68.6264440
  50.0343480   1.8991210  68.1472060  49.2062110   1.9684300  67.6722190
  50.6293960   2.4845520  67.6787890  47.5558930   2.5075990  61.6761120
  46.9371350   2.1695540  61.0287420  47.5383380   1.8635750  62.3840310
  39.5999980   5.1587990  66.1184810  39.3028270   4.5533460  65.4392590
  40.5499800   5.1965300  66.0074170  47.6885590   8.7319860  69.7807910
  47.2116150   9.5392050  69.5880520  47.0047380   8.0798190  69.9334120
  38.6918410   4.8969680  72.7692610  37.7946940   5.1209650  73.0166010
  38.7171280   5.0204620  71.8204010  37.5189630   1.7683000  71.3449980
  37.3797400   2.6405800  71.7137380  36.6370990   1.4255810  71.1997920
  43.8419010   6.6858870  62.6515110  44.2814920   7.4283200  62.2370500
  43.7805900   6.9285440  63.5754070  39.3169980   7.7104700  73.5535130
  39.2885410   8.1147650  72.6863560  39.1534950   6.7815060  73.3906730
  51.2684800   8.4931800  74.8499300  51.7444520   8.9714690  75.5288380
  51.8891960   8.4249290  74.1244800  33.4708280   3.5380550  67.2620890
  33.5488700   3.6729320  66.3176610  34.0849960   2.8296440  67.4549010
  34.7155910   5.2380740  63.6727070  34.3083990   5.3795330  62.8180670
  35.6068920   4.9540900  63.4698280  50.6718050   5.6844650  72.0099310
  50.7981110   5.4456530  71.0916490  50.7139430   4.8529190  72.4821390
  44.5334790   9.3872650  70.5794120  45.0479460   9.2980660  71.3816550
  43.6903870   9.7332350  70.8722030  46.5089190   9.6727990  60.0078120
  46.3490330   9.3830930  60.9059950  46.3435900   8.8968120  59.4723350
  38.9877570   9.4526520  61.7849740  38.8120050   8.5362060  61.5717540
  38.1333310   9.8113810  62.0247540  46.2115320   7.1815550  58.5676120
  45.5180480   7.1792840  57.9078400  46.9538180   6.7574870  58.1370290
  45.7765250   8.8078260  62.6424610  46.2322200   8.0267640  62.9563230
  46.1157770   9.5185080  63.1865790  33.5267800   4.5794720  69.8015350
  33.6898840   4.1100080  68.9834720  33.9920250   4.0718280  70.4664190
  35.1006780   3.9546150  71.9611160  34.7161570   3.3139820  72.5594120
  35.4118970   4.6582270  72.5305890  37.5685080   4.0492320  60.3570840
  36.7947340   3.5089940  60.1969560  38.2979710   3.5298930  60.0188600
  48.3273060   3.0457680  66.1497230  49.0472180   3.5412970  65.7593340
  48.1254880   2.3675570  65.5051100  43.7091860   3.1166740  72.0366230
  43.6429170   2.1962410  71.7823820  43.0797000   3.2142180  72.7510870
  37.6122480   3.7172700  63.9949650  38.1301150   2.9140960  63.9406540
  37.1606500   3.6551840  64.8366480  42.4991980   4.9838980  59.2676950
  42.8407680   5.7281210  58.7720270  41.6704690   5.2970100  59.6301780
  43.6408590   5.9387310  71.7870030  43.6553130   5.0068270  71.5688940
  42.9333690   6.0247070  72.4259800  49.8519800   2.5794650  71.1338610
  49.1267990   3.1723430  70.9368000  50.3795260   2.5718190  70.3351980
  49.8032910   6.9769390  60.7850770  49.1609070   6.3225010  61.0594490
  49.4163570   7.3824480  60.0091440  45.3819390   4.3054820  64.6322460
  45.7343210   3.7082950  63.9723830  44.4981720   3.9799050  64.8030710
  41.4682670   5.0652510  62.0392870  42.1553800   5.6121720  62.4200460
  40.6815090   5.6093240  62.0742480  40.7709880   2.0698540  61.6518230
  41.2272660   2.8803790  61.8778420  40.4198090   1.7521680  62.4836720
  43.0742490   7.5804880  68.8810530  43.7184710   7.7864260  69.5583950
  43.4371930   6.8193280  68.4281380  44.3474570   5.5837230  67.5987980
  44.9896800   4.8830390  67.7120150  44.8723920   6.3635670  67.4184870
  48.1930290   5.8685850  57.3227120  47.9667870   5.1516290  57.9151760
  47.8026490   5.6198290  56.4848870  46.1212190   6.3832130  70.8024040
  46.4568430   6.9698820  71.4801960  45.2012530   6.2524840  71.0321830
  33.9746320   9.8952710  58.0971580  34.3343960  10.4942050  57.4428850
  33.8338660  10.4412600  58.8706610  47.7746540   3.7857790  58.9841280
  47.4868240   4.2470480  59.7719160  48.5698710   3.3255560  59.2525500
  33.9588180   8.1607570  72.5713980  34.0679300   7.2202310  72.4309370
  33.3068740   8.4262320  71.9227710  41.9500770   6.4323460  73.9712100
  41.6297640   5.7132700  74.5157790  41.2759130   7.1078530  74.0448160
  39.9914940   7.2783910  58.9145250  39.9825040   8.0113600  58.2989760
  39.0713300   7.0315490  59.0072210  35.5921580   2.4998800  59.6592010
  34.9849530   3.2397700  59.6687310  36.0670930   2.5898160  58.8330210
  42.9774540   7.3412150  57.5770440  43.0786520   7.1376140  56.6472420
  42.0776280   7.0870430  57.7818220  41.6192650   9.8598470  62.2718110
  41.8734150   9.8219860  61.3497480  40.6705130   9.7331800  62.2646360
  37.6026870   2.4609950  57.4080580  38.3690140   2.3491310  57.9706010
  37.6801560   1.7647920  56.7557350  49.6270810   7.9499200  65.5230880
  49.7518230   8.7730370  65.9954690  50.4936370   7.7389930  65.1755030
  37.0988340  10.0430410  65.1948010  37.8350820   9.4945870  65.4656580
  37.4829260  10.9086420  65.0554000  33.9833820   6.1103980  61.0689520
  33.0573600   6.3525120  61.0594930  34.4490250   6.9378240  60.9474270
  36.1046620   9.2276480  74.3833590  36.9059350   9.5488530  74.7968990
  35.5898440   8.8672060  75.1053500  40.2090650   9.2160720  57.0173580
  41.0019260   9.5049550  56.5655370  39.6895000   8.7852890  56.3386060
  44.9411250   5.3356350  74.3309000  44.3349410   5.3587950  73.5904750
  44.6365360   4.6039390  74.8676250  46.3711620   9.0636640  72.9418410
  47.3233370   8.9794660  72.8918650  46.2239840   9.7278350  73.6152200
  49.2620820   8.4430850  58.4410320  48.9762330   8.0295990  57.6264500
  49.0640370   9.3718560  58.3210840  40.7268050   4.4364130  56.8815930
  40.6218690   3.8216480  57.6077310  40.5592270   3.9130020  56.0978940
  40.8782370   3.1220930  72.8605160  40.1128040   3.6905930  72.7759830
  41.0598330   2.8297140  71.9673390  43.9670780   3.4984160  57.4857920
  43.4180880   3.9453460  58.1300660  44.5890040   2.9933410  58.0095590
  48.0205720   4.8526260  73.4180180  48.7615190   5.1902020  72.9147640
  47.2578400   5.0218320  72.8649950  39.6345900   2.4575080  59.3823220
  40.0562320   2.2914950  60.2254610  39.7596740   1.6475310  58.8878360
  46.6951380   2.9041090  71.9535390  47.1092400   3.0586170  72.8025810
  45.7602380   3.0296310  72.1161170  41.4566610   2.8561570  69.9231320
  41.8754720   3.6994300  69.7507560  40.5375240   2.9933610  69.6938100
  39.3074030   9.1614580  71.0389050  38.7695120   9.8860640  70.7197750
  39.5607990   8.6844920  70.2486390  42.1636240  10.3965790  71.2975700
  42.0894940  11.3000930  71.6048070  41.2615080  10.0777690  71.2697770
  42.7121570   9.5624300  58.9202060  43.6072360   9.9009270  58.9420820
  42.7439200   8.8403710  58.2926340  36.3517730   4.9351350  57.1489060
  36.7892600   5.4781020  57.8046640  36.8365460   4.1098300  57.1585400
  33.5663530   7.7240380  64.6009320  33.8966540   6.8561440  64.3687960
  33.9954530   7.9298900  65.4314280  38.1625450   6.0549390  62.2611290
  37.8620990   5.9314360  63.1615200  38.0562940   5.1957980  61.8527020
  34.0553740   8.5910970  67.3390950  33.6184730   8.7711770  68.1715100
  34.6231420   9.3485590  67.1972670  49.6915920   8.0927970  71.6268260
  49.0917910   8.1520530  70.8832180  49.8209820   7.1532950  71.7565110
  50.9317370   5.8345790  56.9637970  50.1010330   5.9022440  57.4345200
  51.1089200   6.7249910  56.6604830  50.3873830   2.5793270  59.4672170
  51.1492740   3.1489920  59.5731860  50.4028200   2.0120470  60.2380480
  51.3933800   3.4343370  64.3114100  51.7642630   2.6510690  63.9050070
  52.0335730   4.1232470  64.1331400  48.3767560   4.8179950  69.7244420
  47.5627400   5.2477110  69.9870210  48.7841760   5.4298360  69.1113470
  50.4393000   2.8727640  56.6244690  50.7141840   3.7806520  56.4963910
  50.2503740   2.8090170  57.5606680  48.4343610   9.5698550  63.2512690
  49.0302680   9.2483120  62.5747110  48.6921760   9.0970370  64.0425960
  36.3406180   6.0016460  73.4003320  36.2975810   5.6309370  74.2817780
  36.4717190   6.9394030  73.5405140  40.0412210   7.5576050  69.0013040
  39.8003570   7.8250610  68.1143560  40.9814850   7.7281780  69.0563900
  51.3016370   9.5770430  69.8023680  50.8074650   9.9739300  69.0850810
  50.6929660   8.9519640  70.1960960  36.1794210   8.9478710  70.5201100
  35.5854530   8.8163410  71.2591140  36.1718050   8.1116850  70.0543200
  48.9855820  10.2193850  67.0810420  48.5258790  10.9709660  66.7068440
  48.3568280   9.5000320  67.0225220  35.8106440   6.3137090  69.4709140
  35.0840500   5.6942380  69.4035090  35.8715590   6.7077700  68.6007220
  39.4151540   8.5282090  66.2558550  39.9316560   7.9169450  65.7306810
  40.0648920   9.0310870  66.7469560  42.1547040   9.4190580  67.0827530
  42.4424850   9.1644880  66.2060540  42.6670260   8.8667940  67.6733100
  34.0936440   9.6311480  62.6805900  33.9258480   8.9982160  63.3787790
  33.2270950   9.8370880  62.3300090  35.6999140   8.3244710  60.1256040
  35.1746760   8.7052740  59.4218000  35.6243720   8.9495480  60.8465750
  42.2219400  10.3406680  74.4495730  43.1486710  10.1050950  74.4931690
  42.2069830  11.1678680  73.9681760  50.4564460   9.8832250  61.4469980
  50.6316650   9.1969990  60.8030900  49.7586030  10.4079300  61.0546650
  38.2992110  10.2727090  59.0005290  39.0310930   9.9886370  58.4529180
  38.5585780  10.0340370  59.8904670  37.4606900   6.3891820  59.0051620
  36.8315780   6.8576920  59.5537450  37.5754730   5.5441040  59.4397810
  48.7896960   9.5676540  74.2736770  49.5822280   9.0725770  74.0662730
  49.0830110  10.2466680  74.8812380  43.0474660   2.2176500  47.0362090
  42.2716760   1.7376940  47.3260660  43.6987590   1.5382150  46.8618250
  37.0640490   2.5296310  47.9137850  36.2325370   2.2745020  48.3134360
  37.6721470   2.6007080  48.6495770  47.0682090   6.6236690  45.8161220
  46.6063620   5.8523930  46.1448390  47.8807640   6.6502760  46.3213670
  37.0441750   6.5636400  48.1095870  37.3469790   5.6734140  47.9306090
  37.7885340   7.1206620  47.8818120  43.2945400   8.9094700  45.4365210
  42.6756840   9.3652200  44.8659650  44.1497180   9.0646160  45.0354910
  42.4883650   4.8933690  47.0432250  42.4191930   3.9523630  46.8821380
  43.2503510   4.9835100  47.6154820  44.1608750   3.7933940  42.8297120
  43.5426020   4.2583390  42.2659840  44.6732000   4.4861420  43.2466630
  39.0240510   3.3209810  49.5080720  38.6909890   3.9478730  50.1501790
  39.2007190   3.8471690  48.7282390  38.2359610   5.2890610  51.3229900
  38.8533610   5.9641690  51.0414350  37.3752730   5.6978590  51.2317400
  33.5291950   4.4790470  40.2036750  33.1519930   4.9677570  39.4721650
  33.7865020   5.1515750  40.8343280  49.1537200   6.7530020  49.2384540
  48.4700720   7.4229130  49.2301210  49.6931490   6.9510670  48.4729400
  46.6895940   8.5974150  47.9529720  46.7023100   8.1936440  47.0851980
  46.1371160   9.3721440  47.8491150  47.9841360   5.3190370  43.0419890
  47.8737690   4.3764700  43.1669310  47.9809610   5.6806010  43.9282650
  46.0881380   3.5003990  49.2812330  46.5050170   3.2864100  48.4465790
  46.8121200   3.7576780  49.8520950  50.0343480   1.8991210  49.3728570
  49.2062110   1.9684300  48.8978700  50.6293960   2.4845520  48.9044400
  47.5558930   2.5075990  42.9017630  46.9371350   2.1695540  42.2543930
  47.5383380   1.8635750  43.6096820  39.5999980   5.1587990  47.3441320
  39.3028270   4.5533460  46.6649100  40.5499800   5.1965300  47.2330680
  47.6885590   8.7319860  51.0064420  47.2116150   9.5392050  50.8137030
  47.0047380   8.0798190  51.1590630  38.6918410   4.8969680  53.9949120
  37.7946940   5.1209650  54.2422520  38.7171280   5.0204620  53.0460520
  37.5189630   1.7683000  52.5706490  37.3797400   2.6405800  52.9393890
  36.6370990   1.4255810  52.4254430  43.8419010   6.6858870  43.8771620
  44.2814920   7.4283200  43.4627010  43.7805900   6.9285440  44.8010580
  39.3169980   7.7104700  54.7791640  39.2885410   8.1147650  53.9120070
  39.1534950   6.7815060  54.6163240  51.2684800   8.4931800  56.0755810
  51.7444520   8.9714690  56.7544890  51.8891960   8.4249290  55.3501310
  33.4708280   3.5380550  48.4877400  33.5488700   3.6729320  47.5433120
  34.0849960   2.8296440  48.6805520  34.7155910   5.2380740  44.8983580
  34.3083990   5.3795330  44.0437180  35.6068920   4.9540900  44.6954790
  50.6718050   5.6844650  53.2355820  50.7981110   5.4456530  52.3173000
  50.7139430   4.8529190  53.7077900  44.5334790   9.3872650  51.8050630
  45.0479460   9.2980660  52.6073060  43.6903870   9.7332350  52.0978540
  46.5089190   9.6727990  41.2334630  46.3490330   9.3830930  42.1316460
  46.3435900   8.8968120  40.6979860  38.9877570   9.4526520  43.0106250
  38.8120050   8.5362060  42.7974050  38.1333310   9.8113810  43.2504050
  46.2115320   7.1815550  39.7932630  45.5180480   7.1792840  39.1334910
  46.9538180   6.7574870  39.3626800  45.7765250   8.8078260  43.8681120
  46.2322200   8.0267640  44.1819740  46.1157770   9.5185080  44.4122300
  33.5267800   4.5794720  51.0271860  33.6898840   4.1100080  50.2091230
  33.9920250   4.0718280  51.6920700  35.1006780   3.9546150  53.1867670
  34.7161570   3.3139820  53.7850630  35.4118970   4.6582270  53.7562400
  37.5685080   4.0492320  41.5827350  36.7947340   3.5089940  41.4226070
  38.2979710   3.5298930  41.2445110  48.3273060   3.0457680  47.3753740
  49.0472180   3.5412970  46.9849850  48.1254880   2.3675570  46.7307610
  43.7091860   3.1166740  53.2622740  43.6429170   2.1962410  53.0080330
  43.0797000   3.2142180  53.9767380  37.6122480   3.7172700  45.2206160
  38.1301150   2.9140960  45.1663050  37.1606500   3.6551840  46.0622990
  42.4991980   4.9838980  40.4933460  42.8407680   5.7281210  39.9976780
  41.6704690   5.2970100  40.8558290  43.6408590   5.9387310  53.0126540
  43.6553130   5.0068270  52.7945450  42.9333690   6.0247070  53.6516310
  49.8519800   2.5794650  52.3595120  49.1267990   3.1723430  52.1624510
  50.3795260   2.5718190  51.5608490  49.8032910   6.9769390  42.0107280
  49.1609070   6.3225010  42.2851000  49.4163570   7.3824480  41.2347950
  45.3819390   4.3054820  45.8578970  45.7343210   3.7082950  45.1980340
  44.4981720   3.9799050  46.0287220  41.4682670   5.0652510  43.2649380
  42.1553800   5.6121720  43.6456970  40.6815090   5.6093240  43.2998990
  40.7709880   2.0698540  42.8774740  41.2272660   2.8803790  43.1034930
  40.4198090   1.7521680  43.7093230  43.0742490   7.5804880  50.1067040
  43.7184710   7.7864260  50.7840460  43.4371930   6.8193280  49.6537890
  44.3474570   5.5837230  48.8244490  44.9896800   4.8830390  48.9376660
  44.8723920   6.3635670  48.6441380  48.1930290   5.8685850  38.5483630
  47.9667870   5.1516290  39.1408270  47.8026490   5.6198290  37.7105380
  46.1212190   6.3832130  52.0280550  46.4568430   6.9698820  52.7058470
  45.2012530   6.2524840  52.2578340  33.9746320   9.8952710  39.3228090
  34.3343960  10.4942050  38.6685360  33.8338660  10.4412600  40.0963120
  47.7746540   3.7857790  40.2097790  47.4868240   4.2470480  40.9975670
  48.5698710   3.3255560  40.4782010  33.9588180   8.1607570  53.7970490
  34.0679300   7.2202310  53.6565880  33.3068740   8.4262320  53.1484220
  41.9500770   6.4323460  55.1968610  41.6297640   5.7132700  55.7414300
  41.2759130   7.1078530  55.2704670  39.9914940   7.2783910  40.1401760
  39.9825040   8.0113600  39.5246270  39.0713300   7.0315490  40.2328720
  35.5921580   2.4998800  40.8848520  34.9849530   3.2397700  40.8943820
  36.0670930   2.5898160  40.0586720  42.9774540   7.3412150  38.8026950
  43.0786520   7.1376140  37.8728930  42.0776280   7.0870430  39.0074730
  41.6192650   9.8598470  43.4974620  41.8734150   9.8219860  42.5753990
  40.6705130   9.7331800  43.4902870  37.6026870   2.4609950  38.6337090
  38.3690140   2.3491310  39.1962520  37.6801560   1.7647920  37.9813860
  49.6270810   7.9499200  46.7487390  49.7518230   8.7730370  47.2211200
  50.4936370   7.7389930  46.4011540  37.0988340  10.0430410  46.4204520
  37.8350820   9.4945870  46.6913090  37.4829260  10.9086420  46.2810510
  33.9833820   6.1103980  42.2946030  33.0573600   6.3525120  42.2851440
  34.4490250   6.9378240  42.1730780  36.1046620   9.2276480  55.6090100
  36.9059350   9.5488530  56.0225500  35.5898440   8.8672060  56.3310010
  40.2090650   9.2160720  38.2430090  41.0019260   9.5049550  37.7911880
  39.6895000   8.7852890  37.5642570  44.9411250   5.3356350  55.5565510
  44.3349410   5.3587950  54.8161260  44.6365360   4.6039390  56.0932760
  46.3711620   9.0636640  54.1674920  47.3233370   8.9794660  54.1175160
  46.2239840   9.7278350  54.8408710  49.2620820   8.4430850  39.6666830
  48.9762330   8.0295990  38.8521010  49.0640370   9.3718560  39.5467350
  40.7268050   4.4364130  38.1072440  40.6218690   3.8216480  38.8333820
  40.5592270   3.9130020  37.3235450  40.8782370   3.1220930  54.0861670
  40.1128040   3.6905930  54.0016340  41.0598330   2.8297140  53.1929900
  43.9670780   3.4984160  38.7114430  43.4180880   3.9453460  39.3557170
  44.5890040   2.9933410  39.2352100  48.0205720   4.8526260  54.6436690
  48.7615190   5.1902020  54.1404150  47.2578400   5.0218320  54.0906460
  39.6345900   2.4575080  40.6079730  40.0562320   2.2914950  41.4511120
  39.7596740   1.6475310  40.1134870  46.6951380   2.9041090  53.1791900
  47.1092400   3.0586170  54.0282320  45.7602380   3.0296310  53.3417680
  41.4566610   2.8561570  51.1487830  41.8754720   3.6994300  50.9764070
  40.5375240   2.9933610  50.9194610  39.3074030   9.1614580  52.2645560
  38.7695120   9.8860640  51.9454260  39.5607990   8.6844920  51.4742900
  42.1636240  10.3965790  52.5232210  42.0894940  11.3000930  52.8304580
  41.2615080  10.0777690  52.4954280  42.7121570   9.5624300  40.1458570
  43.6072360   9.9009270  40.1677330  42.7439200   8.8403710  39.5182850
  36.3517730   4.9351350  38.3745570  36.7892600   5.4781020  39.0303150
  36.8365460   4.1098300  38.3841910  33.5663530   7.7240380  45.8265830
  33.8966540   6.8561440  45.5944470  33.9954530   7.9298900  46.6570790
  38.1625450   6.0549390  43.4867800  37.8620990   5.9314360  44.3871710
  38.0562940   5.1957980  43.0783530  34.0553740   8.5910970  48.5647460
  33.6184730   8.7711770  49.3971610  34.6231420   9.3485590  48.4229180
  49.6915920   8.0927970  52.8524770  49.0917910   8.1520530  52.1088690
  49.8209820   7.1532950  52.9821620  50.9317370   5.8345790  38.1894480
  50.1010330   5.9022440  38.6601710  51.1089200   6.7249910  37.8861340
  50.3873830   2.5793270  40.6928680  51.1492740   3.1489920  40.7988370
  50.4028200   2.0120470  41.4636990  51.3933800   3.4343370  45.5370610
  51.7642630   2.6510690  45.1306580  52.0335730   4.1232470  45.3587910
  48.3767560   4.8179950  50.9500930  47.5627400   5.2477110  51.2126720
  48.7841760   5.4298360  50.3369980  50.4393000   2.8727640  37.8501200
  50.7141840   3.7806520  37.7220420  50.2503740   2.8090170  38.7863190
  48.4343610   9.5698550  44.4769200  49.0302680   9.2483120  43.8003620
  48.6921760   9.0970370  45.2682470  36.3406180   6.0016460  54.6259830
  36.2975810   5.6309370  55.5074290  36.4717190   6.9394030  54.7661650
  40.0412210   7.5576050  50.2269550  39.8003570   7.8250610  49.3400070
  40.9814850   7.7281780  50.2820410  51.3016370   9.5770430  51.0280190
  50.8074650   9.9739300  50.3107320  50.6929660   8.9519640  51.4217470
  36.1794210   8.9478710  51.7457610  35.5854530   8.8163410  52.4847650
  36.1718050   8.1116850  51.2799710  48.9855820  10.2193850  48.3066930
  48.5258790  10.9709660  47.9324950  48.3568280   9.5000320  48.2481730
  35.8106440   6.3137090  50.6965650  35.0840500   5.6942380  50.6291600
  35.8715590   6.7077700  49.8263730  39.4151540   8.5282090  47.4815060
  39.9316560   7.9169450  46.9563320  40.0648920   9.0310870  47.9726070
  42.1547040   9.4190580  48.3084040  42.4424850   9.1644880  47.4317050
  42.6670260   8.8667940  48.8989610  34.0936440   9.6311480  43.9062410
  33.9258480   8.9982160  44.6044300  33.2270950   9.8370880  43.5556600
  35.6999140   8.3244710  41.3512550  35.1746760   8.7052740  40.6474510
  35.6243720   8.9495480  42.0722260  42.2219400  10.3406680  55.6752240
  43.1486710  10.1050950  55.7188200  42.2069830  11.1678680  55.1938270
  50.4564460   9.8832250  42.6726490  50.6316650   9.1969990  42.0287410
  49.7586030  10.4079300  42.2803160  38.2992110  10.2727090  40.2261800
  39.0310930   9.9886370  39.6785690  38.5585780  10.0340370  41.1161180
  37.4606900   6.3891820  40.2308130  36.8315780   6.8576920  40.7793960
  37.5754730   5.5441040  40.6654320  48.7896960   9.5676540  55.4993280
  49.5822280   9.0725770  55.2919240  49.0830110  10.2466680  56.1068890
  43.0474660   2.2176500  28.2618600  42.2716760   1.7376940  28.5517170
  43.6987590   1.5382150  28.0874760  37.0640490   2.5296310  29.1394360
  36.2325370   2.2745020  29.5390870  37.6721470   2.6007080  29.8752280
  47.0682090   6.6236690  27.0417730  46.6063620   5.8523930  27.3704900
  47.8807640   6.6502760  27.5470180  37.0441750   6.5636400  29.3352380
  37.3469790   5.6734140  29.1562600  37.7885340   7.1206620  29.1074630
  43.2945400   8.9094700  26.6621720  42.6756840   9.3652200  26.0916160
  44.1497180   9.0646160  26.2611420  42.4883650   4.8933690  28.2688760
  42.4191930   3.9523630  28.1077890  43.2503510   4.9835100  28.8411330
  44.1608750   3.7933940  24.0553630  43.5426020   4.2583390  23.4916350
  44.6732000   4.4861420  24.4723140  39.0240510   3.3209810  30.7337230
  38.6909890   3.9478730  31.3758300  39.2007190   3.8471690  29.9538900
  38.2359610   5.2890610  32.5486410  38.8533610   5.9641690  32.2670860
  37.3752730   5.6978590  32.4573910  33.5291950   4.4790470  21.4293260
  33.1519930   4.9677570  20.6978160  33.7865020   5.1515750  22.0599790
  49.1537200   6.7530020  30.4641050  48.4700720   7.4229130  30.4557720
  49.6931490   6.9510670  29.6985910  46.6895940   8.5974150  29.1786230
  46.7023100   8.1936440  28.3108490  46.1371160   9.3721440  29.0747660
  47.9841360   5.3190370  24.2676400  47.8737690   4.3764700  24.3925820
  47.9809610   5.6806010  25.1539160  46.0881380   3.5003990  30.5068840
  46.5050170   3.2864100  29.6722300  46.8121200   3.7576780  31.0777460
  50.0343480   1.8991210  30.5985080  49.2062110   1.9684300  30.1235210
  50.6293960   2.4845520  30.1300910  47.5558930   2.5075990  24.1274140
  46.9371350   2.1695540  23.4800440  47.5383380   1.8635750  24.8353330
  39.5999980   5.1587990  28.5697830  39.3028270   4.5533460  27.8905610
  40.5499800   5.1965300  28.4587190  47.6885590   8.7319860  32.2320930
  47.2116150   9.5392050  32.0393540  47.0047380   8.0798190  32.3847140
  38.6918410   4.8969680  35.2205630  37.7946940   5.1209650  35.4679030
  38.7171280   5.0204620  34.2717030  37.5189630   1.7683000  33.7963000
  37.3797400   2.6405800  34.1650400  36.6370990   1.4255810  33.6510940
  43.8419010   6.6858870  25.1028130  44.2814920   7.4283200  24.6883520
  43.7805900   6.9285440  26.0267090  39.3169980   7.7104700  36.0048150
  39.2885410   8.1147650  35.1376580  39.1534950   6.7815060  35.8419750
  51.2684800   8.4931800  37.3012320  51.7444520   8.9714690  37.9801400
  51.8891960   8.4249290  36.5757820  33.4708280   3.5380550  29.7133910
  33.5488700   3.6729320  28.7689630  34.0849960   2.8296440  29.9062030
  34.7155910   5.2380740  26.1240090  34.3083990   5.3795330  25.2693690
  35.6068920   4.9540900  25.9211300  50.6718050   5.6844650  34.4612330
  50.7981110   5.4456530  33.5429510  50.7139430   4.8529190  34.9334410
  44.5334790   9.3872650  33.0307140  45.0479460   9.2980660  33.8329570
  43.6903870   9.7332350  33.3235050  46.5089190   9.6727990  22.4591140
  46.3490330   9.3830930  23.3572970  46.3435900   8.8968120  21.9236370
  38.9877570   9.4526520  24.2362760  38.8120050   8.5362060  24.0230560
  38.1333310   9.8113810  24.4760560  46.2115320   7.1815550  21.0189140
  45.5180480   7.1792840  20.3591420  46.9538180   6.7574870  20.5883310
  45.7765250   8.8078260  25.0937630  46.2322200   8.0267640  25.4076250
  46.1157770   9.5185080  25.6378810  33.5267800   4.5794720  32.2528370
  33.6898840   4.1100080  31.4347740  33.9920250   4.0718280  32.9177210
  35.1006780   3.9546150  34.4124180  34.7161570   3.3139820  35.0107140
  35.4118970   4.6582270  34.9818910  37.5685080   4.0492320  22.8083860
  36.7947340   3.5089940  22.6482580  38.2979710   3.5298930  22.4701620
  48.3273060   3.0457680  28.6010250  49.0472180   3.5412970  28.2106360
  48.1254880   2.3675570  27.9564120  43.7091860   3.1166740  34.4879250
  43.6429170   2.1962410  34.2336840  43.0797000   3.2142180  35.2023890
  37.6122480   3.7172700  26.4462670  38.1301150   2.9140960  26.3919560
  37.1606500   3.6551840  27.2879500  42.4991980   4.9838980  21.7189970
  42.8407680   5.7281210  21.2233290  41.6704690   5.2970100  22.0814800
  43.6408590   5.9387310  34.2383050  43.6553130   5.0068270  34.0201960
  42.9333690   6.0247070  34.8772820  49.8519800   2.5794650  33.5851630
  49.1267990   3.1723430  33.3881020  50.3795260   2.5718190  32.7865000
  49.8032910   6.9769390  23.2363790  49.1609070   6.3225010  23.5107510
  49.4163570   7.3824480  22.4604460  45.3819390   4.3054820  27.0835480
  45.7343210   3.7082950  26.4236850  44.4981720   3.9799050  27.2543730
  41.4682670   5.0652510  24.4905890  42.1553800   5.6121720  24.8713480
  40.6815090   5.6093240  24.5255500  40.7709880   2.0698540  24.1031250
  41.2272660   2.8803790  24.3291440  40.4198090   1.7521680  24.9349740
  43.0742490   7.5804880  31.3323550  43.7184710   7.7864260  32.0096970
  43.4371930   6.8193280  30.8794400  44.3474570   5.5837230  30.0501000
  44.9896800   4.8830390  30.1633170  44.8723920   6.3635670  29.8697890
  48.1930290   5.8685850  19.7740140  47.9667870   5.1516290  20.3664780
  47.8026490   5.6198290  18.9361890  46.1212190   6.3832130  33.2537060
  46.4568430   6.9698820  33.9314980  45.2012530   6.2524840  33.4834850
  33.9746320   9.8952710  20.5484600  34.3343960  10.4942050  19.8941870
  33.8338660  10.4412600  21.3219630  47.7746540   3.7857790  21.4354300
  47.4868240   4.2470480  22.2232180  48.5698710   3.3255560  21.7038520
  33.9588180   8.1607570  35.0227000  34.0679300   7.2202310  34.8822390
  33.3068740   8.4262320  34.3740730  41.9500770   6.4323460  36.4225120
  41.6297640   5.7132700  36.9670810  41.2759130   7.1078530  36.4961180
  39.9914940   7.2783910  21.3658270  39.9825040   8.0113600  20.7502780
  39.0713300   7.0315490  21.4585230  35.5921580   2.4998800  22.1105030
  34.9849530   3.2397700  22.1200330  36.0670930   2.5898160  21.2843230
  42.9774540   7.3412150  20.0283460  43.0786520   7.1376140  19.0985440
  42.0776280   7.0870430  20.2331240  41.6192650   9.8598470  24.7231130
  41.8734150   9.8219860  23.8010500  40.6705130   9.7331800  24.7159380
  37.6026870   2.4609950  19.8593600  38.3690140   2.3491310  20.4219030
  37.6801560   1.7647920  19.2070370  49.6270810   7.9499200  27.9743900
  49.7518230   8.7730370  28.4467710  50.4936370   7.7389930  27.6268050
  37.0988340  10.0430410  27.6461030  37.8350820   9.4945870  27.9169600
  37.4829260  10.9086420  27.5067020  33.9833820   6.1103980  23.5202540
  33.0573600   6.3525120  23.5107950  34.4490250   6.9378240  23.3987290
  36.1046620   9.2276480  36.8346610  36.9059350   9.5488530  37.2482010
  35.5898440   8.8672060  37.5566520  40.2090650   9.2160720  19.4686600
  41.0019260   9.5049550  19.0168390  39.6895000   8.7852890  18.7899080
  44.9411250   5.3356350  36.7822020  44.3349410   5.3587950  36.0417770
  44.6365360   4.6039390  37.3189270  46.3711620   9.0636640  35.3931430
  47.3233370   8.9794660  35.3431670  46.2239840   9.7278350  36.0665220
  49.2620820   8.4430850  20.8923340  48.9762330   8.0295990  20.0777520
  49.0640370   9.3718560  20.7723860  40.7268050   4.4364130  19.3328950
  40.6218690   3.8216480  20.0590330  40.5592270   3.9130020  18.5491960
  40.8782370   3.1220930  35.3118180  40.1128040   3.6905930  35.2272850
  41.0598330   2.8297140  34.4186410  43.9670780   3.4984160  19.9370940
  43.4180880   3.9453460  20.5813680  44.5890040   2.9933410  20.4608610
  48.0205720   4.8526260  35.8693200  48.7615190   5.1902020  35.3660660
  47.2578400   5.0218320  35.3162970  39.6345900   2.4575080  21.8336240
  40.0562320   2.2914950  22.6767630  39.7596740   1.6475310  21.3391380
  46.6951380   2.9041090  34.4048410  47.1092400   3.0586170  35.2538830
  45.7602380   3.0296310  34.5674190  41.4566610   2.8561570  32.3744340
  41.8754720   3.6994300  32.2020580  40.5375240   2.9933610  32.1451120
  39.3074030   9.1614580  33.4902070  38.7695120   9.8860640  33.1710770
  39.5607990   8.6844920  32.6999410  42.1636240  10.3965790  33.7488720
  42.0894940  11.3000930  34.0561090  41.2615080  10.0777690  33.7210790
  42.7121570   9.5624300  21.3715080  43.6072360   9.9009270  21.3933840
  42.7439200   8.8403710  20.7439360  36.3517730   4.9351350  19.6002080
  36.7892600   5.4781020  20.2559660  36.8365460   4.1098300  19.6098420
  33.5663530   7.7240380  27.0522340  33.8966540   6.8561440  26.8200980
  33.9954530   7.9298900  27.8827300  38.1625450   6.0549390  24.7124310
  37.8620990   5.9314360  25.6128220  38.0562940   5.1957980  24.3040040
  34.0553740   8.5910970  29.7903970  33.6184730   8.7711770  30.6228120
  34.6231420   9.3485590  29.6485690  49.6915920   8.0927970  34.0781280
  49.0917910   8.1520530  33.3345200  49.8209820   7.1532950  34.2078130
  50.9317370   5.8345790  19.4150990  50.1010330   5.9022440  19.8858220
  51.1089200   6.7249910  19.1117850  50.3873830   2.5793270  21.9185190
  51.1492740   3.1489920  22.0244880  50.4028200   2.0120470  22.6893500
  51.3933800   3.4343370  26.7627120  51.7642630   2.6510690  26.3563090
  52.0335730   4.1232470  26.5844420  48.3767560   4.8179950  32.1757440
  47.5627400   5.2477110  32.4383230  48.7841760   5.4298360  31.5626490
  50.4393000   2.8727640  19.0757710  50.7141840   3.7806520  18.9476930
  50.2503740   2.8090170  20.0119700  48.4343610   9.5698550  25.7025710
  49.0302680   9.2483120  25.0260130  48.6921760   9.0970370  26.4938980
  36.3406180   6.0016460  35.8516340  36.2975810   5.6309370  36.7330800
  36.4717190   6.9394030  35.9918160  40.0412210   7.5576050  31.4526060
  39.8003570   7.8250610  30.5656580  40.9814850   7.7281780  31.5076920
  51.3016370   9.5770430  32.2536700  50.8074650   9.9739300  31.5363830
  50.6929660   8.9519640  32.6473980  36.1794210   8.9478710  32.9714120
  35.5854530   8.8163410  33.7104160  36.1718050   8.1116850  32.5056220
  48.9855820  10.2193850  29.5323440  48.5258790  10.9709660  29.1581460
  48.3568280   9.5000320  29.4738240  35.8106440   6.3137090  31.9222160
  35.0840500   5.6942380  31.8548110  35.8715590   6.7077700  31.0520240
  39.4151540   8.5282090  28.7071570  39.9316560   7.9169450  28.1819830
  40.0648920   9.0310870  29.1982580  42.1547040   9.4190580  29.5340550
  42.4424850   9.1644880  28.6573560  42.6670260   8.8667940  30.1246120
  34.0936440   9.6311480  25.1318920  33.9258480   8.9982160  25.8300810
  33.2270950   9.8370880  24.7813110  35.6999140   8.3244710  22.5769060
  35.1746760   8.7052740  21.8731020  35.6243720   8.9495480  23.2978770
  42.2219400  10.3406680  36.9008750  43.1486710  10.1050950  36.9444710
  42.2069830  11.1678680  36.4194780  50.4564460   9.8832250  23.8983000
  50.6316650   9.1969990  23.2543920  49.7586030  10.4079300  23.5059670
  38.2992110  10.2727090  21.4518310  39.0310930   9.9886370  20.9042200
  38.5585780  10.0340370  22.3417690  37.4606900   6.3891820  21.4564640
  36.8315780   6.8576920  22.0050470  37.5754730   5.5441040  21.8910830
  48.7896960   9.5676540  36.7249790  49.5822280   9.0725770  36.5175750
  49.0830110  10.2466680  37.3325400  43.0474660   2.2176500   9.4875110
  42.2716760   1.7376940   9.7773680  43.6987590   1.5382150   9.3131270
  37.0640490   2.5296310  10.3650870  36.2325370   2.2745020  10.7647380
  37.6721470   2.6007080  11.1008790  47.0682090   6.6236690   8.2674240
  46.6063620   5.8523930   8.5961410  47.8807640   6.6502760   8.7726690
  37.0441750   6.5636400  10.5608890  37.3469790   5.6734140  10.3819110
  37.7885340   7.1206620  10.3331140  43.2945400   8.9094700   7.8878230
  42.6756840   9.3652200   7.3172670  44.1497180   9.0646160   7.4867930
  42.4883650   4.8933690   9.4945270  42.4191930   3.9523630   9.3334400
  43.2503510   4.9835100  10.0667840  44.1608750   3.7933940   5.2810140
  43.5426020   4.2583390   4.7172860  44.6732000   4.4861420   5.6979650
  39.0240510   3.3209810  11.9593740  38.6909890   3.9478730  12.6014810
  39.2007190   3.8471690  11.1795410  38.2359610   5.2890610  13.7742920
  38.8533610   5.9641690  13.4927370  37.3752730   5.6978590  13.6830420
  33.5291950   4.4790470   2.6549770  33.1519930   4.9677570   1.9234670
  33.7865020   5.1515750   3.2856300  49.1537200   6.7530020  11.6897560
  48.4700720   7.4229130  11.6814230  49.6931490   6.9510670  10.9242420
  46.6895940   8.5974150  10.4042740  46.7023100   8.1936440   9.5365000
  46.1371160   9.3721440  10.3004170  47.9841360   5.3190370   5.4932910
  47.8737690   4.3764700   5.6182330  47.9809610   5.6806010   6.3795670
  46.0881380   3.5003990  11.7325350  46.5050170   3.2864100  10.8978810
  46.8121200   3.7576780  12.3033970  50.0343480   1.8991210  11.8241590
  49.2062110   1.9684300  11.3491720  50.6293960   2.4845520  11.3557420
  47.5558930   2.5075990   5.3530650  46.9371350   2.1695540   4.7056950
  47.5383380   1.8635750   6.0609840  39.5999980   5.1587990   9.7954340
  39.3028270   4.5533460   9.1162120  40.5499800   5.1965300   9.6843700
  47.6885590   8.7319860  13.4577440  47.2116150   9.5392050  13.2650050
  47.0047380   8.0798190  13.6103650  38.6918410   4.8969680  16.4462140
  37.7946940   5.1209650  16.6935540  38.7171280   5.0204620  15.4973540
  37.5189630   1.7683000  15.0219510  37.3797400   2.6405800  15.3906910
  36.6370990   1.4255810  14.8767450  43.8419010   6.6858870   6.3284640
  44.2814920   7.4283200   5.9140030  43.7805900   6.9285440   7.2523600
  39.3169980   7.7104700  17.2304660  39.2885410   8.1147650  16.3633090
  39.1534950   6.7815060  17.0676260  51.2684800   8.4931800  18.5268830
  51.7444520   8.9714690  19.2057910  51.8891960   8.4249290  17.8014330
  33.4708280   3.5380550  10.9390420  33.5488700   3.6729320   9.9946140
  34.0849960   2.8296440  11.1318540  34.7155910   5.2380740   7.3496600
  34.3083990   5.3795330   6.4950200  35.6068920   4.9540900   7.1467810
  50.6718050   5.6844650  15.6868840  50.7981110   5.4456530  14.7686020
  50.7139430   4.8529190  16.1590920  44.5334790   9.3872650  14.2563650
  45.0479460   9.2980660  15.0586080  43.6903870   9.7332350  14.5491560
  46.5089190   9.6727990   3.6847650  46.3490330   9.3830930   4.5829480
  46.3435900   8.8968120   3.1492880  38.9877570   9.4526520   5.4619270
  38.8120050   8.5362060   5.2487070  38.1333310   9.8113810   5.7017070
  46.2115320   7.1815550   2.2445650  45.5180480   7.1792840   1.5847930
  46.9538180   6.7574870   1.8139820  45.7765250   8.8078260   6.3194140
  46.2322200   8.0267640   6.6332760  46.1157770   9.5185080   6.8635320
  33.5267800   4.5794720  13.4784880  33.6898840   4.1100080  12.6604250
  33.9920250   4.0718280  14.1433720  35.1006780   3.9546150  15.6380690
  34.7161570   3.3139820  16.2363650  35.4118970   4.6582270  16.2075420
  37.5685080   4.0492320   4.0340370  36.7947340   3.5089940   3.8739090
  38.2979710   3.5298930   3.6958130  48.3273060   3.0457680   9.8266760
  49.0472180   3.5412970   9.4362870  48.1254880   2.3675570   9.1820630
  43.7091860   3.1166740  15.7135760  43.6429170   2.1962410  15.4593350
  43.0797000   3.2142180  16.4280400  37.6122480   3.7172700   7.6719180
  38.1301150   2.9140960   7.6176070  37.1606500   3.6551840   8.5136010
  42.4991980   4.9838980   2.9446480  42.8407680   5.7281210   2.4489800
  41.6704690   5.2970100   3.3071310  43.6408590   5.9387310  15.4639560
  43.6553130   5.0068270  15.2458470  42.9333690   6.0247070  16.1029330
  49.8519800   2.5794650  14.8108140  49.1267990   3.1723430  14.6137530
  50.3795260   2.5718190  14.0121510  49.8032910   6.9769390   4.4620300
  49.1609070   6.3225010   4.7364020  49.4163570   7.3824480   3.6860970
  45.3819390   4.3054820   8.3091990  45.7343210   3.7082950   7.6493360
  44.4981720   3.9799050   8.4800240  41.4682670   5.0652510   5.7162400
  42.1553800   5.6121720   6.0969990  40.6815090   5.6093240   5.7512010
  40.7709880   2.0698540   5.3287760  41.2272660   2.8803790   5.5547950
  40.4198090   1.7521680   6.1606250  43.0742490   7.5804880  12.5580060
  43.7184710   7.7864260  13.2353480  43.4371930   6.8193280  12.1050910
  44.3474570   5.5837230  11.2757510  44.9896800   4.8830390  11.3889680
  44.8723920   6.3635670  11.0954400  46.1212190   6.3832130  14.4793570
  46.4568430   6.9698820  15.1571490  45.2012530   6.2524840  14.7091360
  47.7746540   3.7857790   2.6610810  47.4868240   4.2470480   3.4488690
  48.5698710   3.3255560   2.9295030  33.9588180   8.1607570  16.2483510
  34.0679300   7.2202310  16.1078900  33.3068740   8.4262320  15.5997240
  41.9500770   6.4323460  17.6481630  41.6297640   5.7132700  18.1927320
  41.2759130   7.1078530  17.7217690  39.9914940   7.2783910   2.5914780
  39.9825040   8.0113600   1.9759290  39.0713300   7.0315490   2.6841740
  35.5921580   2.4998800   3.3361540  34.9849530   3.2397700   3.3456840
  36.0670930   2.5898160   2.5099740  41.6192650   9.8598470   5.9487640
  41.8734150   9.8219860   5.0267010  40.6705130   9.7331800   5.9415890
  49.6270810   7.9499200   9.2000410  49.7518230   8.7730370   9.6724220
  50.4936370   7.7389930   8.8524560  37.0988340  10.0430410   8.8717540
  37.8350820   9.4945870   9.1426110  37.4829260  10.9086420   8.7323530
  33.9833820   6.1103980   4.7459050  33.0573600   6.3525120   4.7364460
  34.4490250   6.9378240   4.6243800  36.1046620   9.2276480  18.0603120
  36.9059350   9.5488530  18.4738520  35.5898440   8.8672060  18.7823030
  44.9411250   5.3356350  18.0078530  44.3349410   5.3587950  17.2674280
  44.6365360   4.6039390  18.5445780  46.3711620   9.0636640  16.6187940
  47.3233370   8.9794660  16.5688180  46.2239840   9.7278350  17.2921730
  49.2620820   8.4430850   2.1179850  48.9762330   8.0295990   1.3034030
  49.0640370   9.3718560   1.9980370  40.8782370   3.1220930  16.5374690
  40.1128040   3.6905930  16.4529360  41.0598330   2.8297140  15.6442920
  48.0205720   4.8526260  17.0949710  48.7615190   5.1902020  16.5917170
  47.2578400   5.0218320  16.5419480  39.6345900   2.4575080   3.0592750
  40.0562320   2.2914950   3.9024140  39.7596740   1.6475310   2.5647890
  46.6951380   2.9041090  15.6304920  47.1092400   3.0586170  16.4795340
  45.7602380   3.0296310  15.7930700  41.4566610   2.8561570  13.6000850
  41.8754720   3.6994300  13.4277090  40.5375240   2.9933610  13.3707630
  39.3074030   9.1614580  14.7158580  38.7695120   9.8860640  14.3967280
  39.5607990   8.6844920  13.9255920  42.1636240  10.3965790  14.9745230
  42.0894940  11.3000930  15.2817600  41.2615080  10.0777690  14.9467300
  42.7121570   9.5624300   2.5971590  43.6072360   9.9009270   2.6190350
  42.7439200   8.8403710   1.9695870  33.5663530   7.7240380   8.2778850
  33.8966540   6.8561440   8.0457490  33.9954530   7.9298900   9.1083810
  38.1625450   6.0549390   5.9380820  37.8620990   5.9314360   6.8384730
  38.0562940   5.1957980   5.5296550  34.0553740   8.5910970  11.0160480
  33.6184730   8.7711770  11.8484630  34.6231420   9.3485590  10.8742200
  49.6915920   8.0927970  15.3037790  49.0917910   8.1520530  14.5601710
  49.8209820   7.1532950  15.4334640  50.3873830   2.5793270   3.1441700
  51.1492740   3.1489920   3.2501390  50.4028200   2.0120470   3.9150010
  51.3933800   3.4343370   7.9883630  51.7642630   2.6510690   7.5819600
  52.0335730   4.1232470   7.8100930  48.3767560   4.8179950  13.4013950
  47.5627400   5.2477110  13.6639740  48.7841760   5.4298360  12.7883000
  48.4343610   9.5698550   6.9282220  49.0302680   9.2483120   6.2516640
  48.6921760   9.0970370   7.7195490  36.3406180   6.0016460  17.0772850
  36.2975810   5.6309370  17.9587310  36.4717190   6.9394030  17.2174670
  40.0412210   7.5576050  12.6782570  39.8003570   7.8250610  11.7913090
  40.9814850   7.7281780  12.7333430  51.3016370   9.5770430  13.4793210
  50.8074650   9.9739300  12.7620340  50.6929660   8.9519640  13.8730490
  36.1794210   8.9478710  14.1970630  35.5854530   8.8163410  14.9360670
  36.1718050   8.1116850  13.7312730  48.9855820  10.2193850  10.7579950
  48.5258790  10.9709660  10.3837970  48.3568280   9.5000320  10.6994750
  35.8106440   6.3137090  13.1478670  35.0840500   5.6942380  13.0804620
  35.8715590   6.7077700  12.2776750  39.4151540   8.5282090   9.9328080
  39.9316560   7.9169450   9.4076340  40.0648920   9.0310870  10.4239090
  42.1547040   9.4190580  10.7597060  42.4424850   9.1644880   9.8830070
  42.6670260   8.8667940  11.3502630  34.0936440   9.6311480   6.3575430
  33.9258480   8.9982160   7.0557320  33.2270950   9.8370880   6.0069620
  35.6999140   8.3244710   3.8025570  35.1746760   8.7052740   3.0987530
  35.6243720   8.9495480   4.5235280  42.2219400  10.3406680  18.1265260
  43.1486710  10.1050950  18.1701220  42.2069830  11.1678680  17.6451290
  50.4564460   9.8832250   5.1239510  50.6316650   9.1969990   4.4800430
  49.7586030  10.4079300   4.7316180  38.2992110  10.2727090   2.6774820
  39.0310930   9.9886370   2.1298710  38.5585780  10.0340370   3.5674200
  37.4606900   6.3891820   2.6821150  36.8315780   6.8576920   3.2306980
  37.5754730   5.5441040   3.1167340  48.7896960   9.5676540  17.9506300
  49.5822280   9.0725770  17.7432260  49.0830110  10.2466680  18.5581910
  26.1413130 113.0858420 101.4783290  26.0607180 112.1713030 101.2075000
  25.7277550 113.5825490 100.7723000  16.6988950 110.1359140  98.0210710
  15.8105650 110.4775110  97.9190590  16.9830140 109.9359460  97.1291540
  14.6621960 112.7364790 103.9050410  15.2338070 111.9686990 103.9054050
  14.6623500 113.0353550 102.9957020  15.9046830 108.1449150 105.6919340
  15.7249670 107.2474900 105.9722100  15.5026910 108.6921020 106.3666290
  24.7445330 110.3465010 103.5931650  25.1210150 109.4736890 103.4805320
  24.6464840 110.6823710 102.7022090  18.8750340 108.7190640  99.0549090
  18.9817090 109.6194370  99.3617850  17.9642700 108.6708610  98.7643740
  28.5269450 107.8415450 100.5259990  29.3479070 107.3512020 100.5685470
  28.5603530 108.4313110 101.2791830  16.5233500 110.6409650 104.3001680
  17.2043610 110.9048020 104.9189080  16.2081550 109.8010520 104.6339690
  20.7158070 111.6877010 103.3874270  21.2236290 112.1857980 104.0279290
  21.2471310 110.9112210 103.2113630  32.8169000 109.8582200 107.0903620
  32.1121170 110.2463910 106.5718730  33.0826920 110.5532490 107.6924550
  18.9994170 106.3275570 107.6537690  19.0012610 106.8447960 106.8483590
  18.1698480 105.8505750 107.6307620  28.7630930 109.7815830 103.2987530
  28.0586500 110.0700720 103.8790640  29.1243090 110.5915940 102.9387090
  18.6809500 108.0385530 105.6608140  19.0226310 108.8827580 105.3662010
  17.7425310 108.1869270 105.7773480  31.8317850 109.2270620 103.6896740
  30.8842760 109.2609600 103.8212170  32.1567840 110.0409570 104.0746100
  22.3637390 105.5267800 101.9852730  22.6712370 104.9714690 101.2688230
  21.4338090 105.6612260 101.8025720  24.7387230 109.8633630  95.7180010
  23.7990900 110.0247590  95.8032470  25.0570490 110.5819310  95.1716000
  28.2242000 111.3321470 106.6413910  27.8113180 112.1575180 106.8953900
  27.4917950 110.7466510 106.4490270  19.0703410 110.8924580 105.2831620
  19.6218000 111.0019920 104.5084870  19.5846920 111.2662180 105.9986850
  30.5397280 105.6466550  94.5461890  30.2269940 105.7393380  95.4460960
  31.3009750 106.2247580  94.4959320  17.0579420 113.0126350  99.0039230
  16.9377020 113.7388440  98.3920500  16.7480310 112.2429260  98.5267140
  31.7498570 110.3838050 110.5236030  31.1342840 110.8917720 109.9951490
  31.4294990 109.4836380 110.4661970  19.5243080 106.3561420 102.3862900
  19.0811230 107.1370960 102.0547420  20.0828070 106.6791310 103.0933840
  23.8112890 109.2229940 107.9898220  23.3492260 109.4312960 108.8018160
  23.4091000 108.4089290 107.6868890  28.8117400 110.4438890 109.1194880
  27.9610990 110.1444640 109.4403950  28.6519190 110.6880900 108.2078700
  22.6401900 105.9772120  97.2668730  22.0156080 105.9731990  97.9922040
  22.5532020 105.1103080  96.8704700  21.5618980 106.9008750 104.2452500
  21.8591310 107.8071580 104.1644520  22.1104540 106.4127530 103.6312070
  19.3157300 111.4794990 100.1144150  19.0898220 111.2632160 101.0190770
  18.5349830 111.9123450  99.7690120  26.5455060 111.4858360  98.7134800
  25.9463950 112.2094160  98.5298420  27.0934670 111.4235140  97.9311250
  21.7556510 112.3780570 110.7804420  21.6600110 111.4375300 110.6304820
  22.5988490 112.5995640 110.3852490  25.1519930 110.1221900 100.7438080
  25.5449500 110.4394100  99.9306770  25.5136780 109.2433780 100.8582600
  16.8867050 108.7894240 108.9338200  16.4930440 109.6369450 109.1410980
  16.1985450 108.1520610 109.1246840  14.1884100 106.7122700 102.9668280
  13.8997150 107.2825560 103.6793260  14.9329860 106.2327150 103.3299510
  14.3754330 110.6542820  94.1771000  14.2929000 111.5973580  94.3185990
  14.0237390 110.5117730  93.2983350  25.7375070 112.7127650 104.8388860
  25.0056190 113.2214460 105.1878960  25.3399410 111.8957630 104.5377640
  22.1752460 109.3881850 103.2441350  22.1788520 108.9471800 102.3945890
  23.0703580 109.7099180 103.3513170  18.0254840 109.2708340 102.2035560
  17.6854890 109.7483570 102.9602610  17.2632160 108.8173460 101.8436660
  22.2372610 110.3893930  96.2348110  22.3585430 110.3480410  97.1833930
  21.8521120 111.2518080  96.0794840  26.2000980 108.1661330 104.2511800
  26.2173720 108.6169980 105.0953650  25.9516560 107.2666970 104.4645240
  21.2494110 112.6995070  95.6331410  20.6811010 112.2513320  95.0067320
  21.9583110 113.0587850  95.0996560  29.6271730 105.5793510 110.0898180
  29.9517500 104.8483170 110.6156160  29.6628240 105.2607150 109.1879170
  15.3400920 108.1927320 101.1200230  15.0547840 107.8282990 101.9578850
  15.2779780 107.4607780 100.5063370  20.2659800 112.4892270 107.3090970
  19.9616870 113.3684250 107.5341330  21.2206260 112.5492060 107.3448410
  25.0139510 107.0856580  97.8413600  24.2004120 106.5869750  97.7658910
  24.8201460 107.9254830  97.4249950  27.7287900 111.4576230  96.1375760
  28.6167520 111.7693460  95.9627100  27.6992990 110.5848480  95.7456340
  30.0002170 112.7688070  95.6055620  29.9165890 113.2002290  94.7552060
  30.7196360 113.2286420  96.0382440  17.8978170 105.0597130  99.6727730
  17.7692800 105.0515030 100.6212650  17.0740190 105.3980220  99.3218740
  14.8972100 106.8188250 109.1334430  14.1830620 107.0185170 109.7387040
  15.3167140 106.0427820 109.5049230  26.3910880 109.3110560 106.8835880
  26.7591700 108.4905770 107.2115450  25.5309080 109.3712450 107.2991530
  29.7572910 108.2667500  97.6923440  29.1286070 108.3713170  96.9781670
  29.2624830 108.4864280  98.4817320  21.7256940 110.5453450  99.1081320
  21.0173090 111.0139790  99.5494930  22.0101420 109.8875460  99.7426510
  23.3512870 111.9650150 107.1073850  23.8498120 112.4395970 107.7725700
  23.4935820 111.0413670 107.3143880  25.7572370 107.2704110 100.5477110
  25.6340150 107.2890240  99.5986620  26.7056930 107.3183050 100.6675510
  19.9291960 108.8538530  96.4832030  20.7782490 109.2908680  96.4172220
  19.5623230 109.1658790  97.3104090  30.5579730 108.1818110 107.9502240
  30.0553330 108.9223510 108.2896050  31.3736390 108.5702110 107.6339030
  28.8501740 113.4251290 101.3963600  27.9091880 113.4401520 101.5711290
  29.1645810 112.6387250 101.8423900  17.5230140 112.5395960  95.6400450
  17.6033730 111.5923470  95.7517850  18.4149890 112.8702840  95.7461110
  19.0229830 111.0832570 109.7381180  18.4926290 110.5923520 109.1104520
  19.6917900 111.5116770 109.2039110  19.5102130 108.0494940 109.8178470
  19.4159000 107.4315690 109.0929340  18.9299520 108.7761230 109.5908380
  22.2763570 106.6068180 106.8505860  21.8280870 106.6292440 106.0051410
  21.6428770 106.2087200 107.4476160  25.0187020 113.2338690 108.8556140
  25.1383230 112.6379830 109.5950980  25.8781020 113.2708380 108.4357440
  19.7561310 111.1769250  93.8768360  19.5550370 110.3136610  94.2381700
  19.5853360 111.0902610  92.9389960  21.7855790 109.7760040 110.1131960
  22.3755480 109.4675890 110.8009780  20.9676030 109.3039790 110.2691860
  26.6049220 109.3925850 110.3464980  25.9164740 108.7307390 110.2814970
  27.3255240 108.9464120 110.7913440  27.2349620 105.9877480  96.4055240
  27.5151910 105.1445380  96.7614660  26.4615350 106.2200590  96.9193990
  18.5544110 108.2769870  93.8646240  18.8570010 108.2837300  92.9565390
  19.2938700 107.9267730  94.3613900  21.7729040 107.2204490  94.8502440
  21.4251040 106.5428480  94.2704890  21.9741810 106.7594000  95.6645830
  15.1134680 113.7492140 101.2466810  14.4583520 113.4803780 100.6026510
  15.9512630 113.6396620 100.7968790  28.0625120 108.5433430  95.4685300
  28.4810000 108.3564410  94.6281960  27.7561180 107.6912480  95.7788230
  31.5614850 113.4557570  99.1661100  31.1858450 112.6885500  98.7342390
  30.8317970 113.8380270  99.6536030  30.9514470 112.6029090 108.8000620
  30.7200560 112.3741840 107.8998570  31.2119020 113.5228640 108.7545510
  15.7026610 111.0453800 109.6928570  14.8082660 111.0120560 110.0322280
  16.2424160 111.2440590 110.4579820  14.3272760 110.9591070  97.1892140
  13.4236840 111.2221270  97.0143800  14.8113380 111.2302240  96.4092100
  30.8365810 111.6815060 102.4668340  31.3603290 111.1877710 101.8358510
  31.4225230 111.8165420 103.2115910  31.0155530 111.7654930 105.9887890
  30.0658240 111.7318470 106.1032880  31.1968540 112.6755040 105.7537660
  16.8699970 110.0156610  95.0986520  17.5791670 109.5939830  94.6133800
  16.1539910 110.0831840  94.4669870  16.5174130 106.0695940  94.1389170
  17.2402260 106.6104880  94.4570390  16.7898650 105.7959360  93.2630710
  30.3265780 110.9388410  98.4060750  30.8224900 110.7059280  99.1909630
  30.1281850 110.1000250  97.9898390  16.2066320 105.3202130 104.0411790
  16.8542510 104.7699510 103.6006950  16.6268160 105.5745280 104.8627600
  31.7552940 109.5749360 100.9398430  31.6452220 109.4205400 101.8780700
  32.5160530 109.0470300 100.6973840  30.1018660 105.5143490 107.3981430
  30.7390880 106.1277630 107.7640620  30.2493550 105.5504150 106.4530660
  32.6443210 107.4057280  94.1804570  33.5692520 107.2738460  93.9722860
  32.6219000 107.4850100  95.1341020  32.7181700 108.1767940  96.8061280
  31.9233200 108.1113060  97.3354190  32.9224980 109.1118580  96.7946630
  15.9598320 105.4757800 106.7837110  15.6113140 105.9321620 107.5495290
  15.6286020 104.5814930 106.8659540  26.1097700 106.3239740 109.9448820
  26.7238110 106.6419030 109.2829900  26.6547260 105.8388330 110.5644680
  16.6318960 105.0034000 110.0587880  17.1801950 104.8222050 109.2953990
  16.6974270 104.2128110 110.5944190  26.8505740 104.8871880 106.2718110
  25.9765580 105.2206990 106.0691040  26.7416490 104.4145060 107.0969980
  27.7577720 107.0942750 107.6559830  27.4291080 106.2794510 107.2761560
  28.7060020 107.0512560 107.5325520  24.5980560 105.8041720 105.2111020
  23.8152350 106.2787220 105.4907780  24.3043490 104.8996550 105.1024200
  29.1501630 106.5064820 103.2560110  29.5909720 106.4509920 102.4081710
  28.8809220 107.4222830 103.3270290  31.0140200 106.1380060 101.2668930
  30.9528600 105.1941280 101.1199950  31.7932230 106.2460150 101.8122390
  15.9420970 106.1089200  97.7324740  16.7000330 106.2218080  97.1588770
  15.4798140 106.9458400  97.6868170  22.4834780 108.2228470 100.7227050
  21.6709290 107.8485360 100.3822930  22.9876420 107.4673550 101.0248240
  26.9859760 104.8870920 101.9610120  27.5889130 105.4591130 102.4358640
  26.2452750 105.4510360 101.7384020  30.1294360 105.2892480  97.2350400
  30.3244990 106.1875930  97.5017830  29.3424230 105.0579560  97.7283350
  18.3146120 106.6353250  96.2726710  18.8438880 105.8483050  96.1434660
  18.9474440 107.3144440  96.5062240  20.5083960 106.3728390  99.3272100
  19.8786700 105.6715700  99.4942230  19.9689100 107.1332520  99.1105260
  26.1413130 113.0858420  82.7039800  26.0607180 112.1713030  82.4331510
  25.7277550 113.5825490  81.9979510  16.6988950 110.1359140  79.2467220
  15.8105650 110.4775110  79.1447100  16.9830140 109.9359460  78.3548050
  14.6621960 112.7364790  85.1306920  15.2338070 111.9686990  85.1310560
  14.6623500 113.0353550  84.2213530  15.9046830 108.1449150  86.9175850
  15.7249670 107.2474900  87.1978610  15.5026910 108.6921020  87.5922800
  24.7445330 110.3465010  84.8188160  25.1210150 109.4736890  84.7061830
  24.6464840 110.6823710  83.9278600  18.8750340 108.7190640  80.2805600
  18.9817090 109.6194370  80.5874360  17.9642700 108.6708610  79.9900250
  28.5269450 107.8415450  81.7516500  29.3479070 107.3512020  81.7941980
  28.5603530 108.4313110  82.5048340  16.5233500 110.6409650  85.5258190
  17.2043610 110.9048020  86.1445590  16.2081550 109.8010520  85.8596200
  20.7158070 111.6877010  84.6130780  21.2236290 112.1857980  85.2535800
  21.2471310 110.9112210  84.4370140  32.8169000 109.8582200  88.3160130
  32.1121170 110.2463910  87.7975240  33.0826920 110.5532490  88.9181060
  18.9994170 106.3275570  88.8794200  19.0012610 106.8447960  88.0740100
  18.1698480 105.8505750  88.8564130  28.7630930 109.7815830  84.5244040
  28.0586500 110.0700720  85.1047150  29.1243090 110.5915940  84.1643600
  18.6809500 108.0385530  86.8864650  19.0226310 108.8827580  86.5918520
  17.7425310 108.1869270  87.0029990  31.8317850 109.2270620  84.9153250
  30.8842760 109.2609600  85.0468680  32.1567840 110.0409570  85.3002610
  22.3637390 105.5267800  83.2109240  22.6712370 104.9714690  82.4944740
  21.4338090 105.6612260  83.0282230  24.7387230 109.8633630  76.9436520
  23.7990900 110.0247590  77.0288980  25.0570490 110.5819310  76.3972510
  28.2242000 111.3321470  87.8670420  27.8113180 112.1575180  88.1210410
  27.4917950 110.7466510  87.6746780  19.0703410 110.8924580  86.5088130
  19.6218000 111.0019920  85.7341380  19.5846920 111.2662180  87.2243360
  30.5397280 105.6466550  75.7718400  30.2269940 105.7393380  76.6717470
  31.3009750 106.2247580  75.7215830  17.0579420 113.0126350  80.2295740
  16.9377020 113.7388440  79.6177010  16.7480310 112.2429260  79.7523650
  31.7498570 110.3838050  91.7492540  31.1342840 110.8917720  91.2208000
  31.4294990 109.4836380  91.6918480  19.5243080 106.3561420  83.6119410
  19.0811230 107.1370960  83.2803930  20.0828070 106.6791310  84.3190350
  23.8112890 109.2229940  89.2154730  23.3492260 109.4312960  90.0274670
  23.4091000 108.4089290  88.9125400  28.8117400 110.4438890  90.3451390
  27.9610990 110.1444640  90.6660460  28.6519190 110.6880900  89.4335210
  25.9067110 111.9440640  92.4450180  26.2320520 111.1104390  92.1052410
  26.6947440 112.4669160  92.5928510  22.6401900 105.9772120  78.4925240
  22.0156080 105.9731990  79.2178550  22.5532020 105.1103080  78.0961210
  21.5618980 106.9008750  85.4709010  21.8591310 107.8071580  85.3901030
  22.1104540 106.4127530  84.8568580  19.3157300 111.4794990  81.3400660
  19.0898220 111.2632160  82.2447280  18.5349830 111.9123450  80.9946630
  26.5455060 111.4858360  79.9391310  25.9463950 112.2094160  79.7554930
  27.0934670 111.4235140  79.1567760  21.7556510 112.3780570  92.0060930
  21.6600110 111.4375300  91.8561330  22.5988490 112.5995640  91.6109000
  25.1519930 110.1221900  81.9694590  25.5449500 110.4394100  81.1563280
  25.5136780 109.2433780  82.0839110  16.8867050 108.7894240  90.1594710
  16.4930440 109.6369450  90.3667490  16.1985450 108.1520610  90.3503350
  23.4612100 108.8729210  93.2291450  22.7710420 108.6801410  93.8637540
  24.2044400 109.1563850  93.7615750  14.1884100 106.7122700  84.1924790
  13.8997150 107.2825560  84.9049770  14.9329860 106.2327150  84.5556020
  14.3754330 110.6542820  75.4027510  14.2929000 111.5973580  75.5442500
  14.0237390 110.5117730  74.5239860  25.7375070 112.7127650  86.0645370
  25.0056190 113.2214460  86.4135470  25.3399410 111.8957630  85.7634150
  22.1752460 109.3881850  84.4697860  22.1788520 108.9471800  83.6202400
  23.0703580 109.7099180  84.5769680  18.0254840 109.2708340  83.4292070
  17.6854890 109.7483570  84.1859120  17.2632160 108.8173460  83.0693170
  22.2372610 110.3893930  77.4604620  22.3585430 110.3480410  78.4090440
  21.8521120 111.2518080  77.3051350  26.2000980 108.1661330  85.4768310
  26.2173720 108.6169980  86.3210160  25.9516560 107.2666970  85.6901750
  21.2494110 112.6995070  76.8587920  20.6811010 112.2513320  76.2323830
  21.9583110 113.0587850  76.3253070  29.6271730 105.5793510  91.3154690
  29.9517500 104.8483170  91.8412670  29.6628240 105.2607150  90.4135680
  15.3400920 108.1927320  82.3456740  15.0547840 107.8282990  83.1835360
  15.2779780 107.4607780  81.7319880  20.2659800 112.4892270  88.5347480
  19.9616870 113.3684250  88.7597840  21.2206260 112.5492060  88.5704920
  25.0139510 107.0856580  79.0670110  24.2004120 106.5869750  78.9915420
  24.8201460 107.9254830  78.6506460  27.7287900 111.4576230  77.3632270
  28.6167520 111.7693460  77.1883610  27.6992990 110.5848480  76.9712850
  30.0002170 112.7688070  76.8312130  29.9165890 113.2002290  75.9808570
  30.7196360 113.2286420  77.2638950  17.8978170 105.0597130  80.8984240
  17.7692800 105.0515030  81.8469160  17.0740190 105.3980220  80.5475250
  14.8972100 106.8188250  90.3590940  14.1830620 107.0185170  90.9643550
  15.3167140 106.0427820  90.7305740  26.3910880 109.3110560  88.1092390
  26.7591700 108.4905770  88.4371960  25.5309080 109.3712450  88.5248040
  29.7572910 108.2667500  78.9179950  29.1286070 108.3713170  78.2038180
  29.2624830 108.4864280  79.7073830  21.7256940 110.5453450  80.3337830
  21.0173090 111.0139790  80.7751440  22.0101420 109.8875460  80.9683020
  23.3512870 111.9650150  88.3330360  23.8498120 112.4395970  88.9982210
  23.4935820 111.0413670  88.5400390  25.7572370 107.2704110  81.7733620
  25.6340150 107.2890240  80.8243130  26.7056930 107.3183050  81.8932020
  19.9291960 108.8538530  77.7088540  20.7782490 109.2908680  77.6428730
  19.5623230 109.1658790  78.5360600  30.5579730 108.1818110  89.1758750
  30.0553330 108.9223510  89.5152560  31.3736390 108.5702110  88.8595540
  28.8501740 113.4251290  82.6220110  27.9091880 113.4401520  82.7967800
  29.1645810 112.6387250  83.0680410  17.5230140 112.5395960  76.8656960
  17.6033730 111.5923470  76.9774360  18.4149890 112.8702840  76.9717620
  17.0824020 112.5040470  92.9963200  17.1229360 112.2054340  93.9048430
  17.9369520 112.9048080  92.8370720  19.0229830 111.0832570  90.9637690
  18.4926290 110.5923520  90.3361030  19.6917900 111.5116770  90.4295620
  28.3930060 112.8898190  92.7318030  28.9750830 112.1350510  92.6438510
  28.5691830 113.4205630  91.9549510  19.5102130 108.0494940  91.0434980
  19.4159000 107.4315690  90.3185850  18.9299520 108.7761230  90.8164890
  22.2763570 106.6068180  88.0762370  21.8280870 106.6292440  87.2307920
  21.6428770 106.2087200  88.6732670  25.0187020 113.2338690  90.0812650
  25.1383230 112.6379830  90.8207490  25.8781020 113.2708380  89.6613950
  19.7561310 111.1769250  75.1024870  19.5550370 110.3136610  75.4638210
  19.5853360 111.0902610  74.1646470  21.7855790 109.7760040  91.3388470
  22.3755480 109.4675890  92.0266290  20.9676030 109.3039790  91.4948370
  26.6049220 109.3925850  91.5721490  25.9164740 108.7307390  91.5071480
  27.3255240 108.9464120  92.0169950  27.2349620 105.9877480  77.6311750
  27.5151910 105.1445380  77.9871170  26.4615350 106.2200590  78.1450500
  18.5544110 108.2769870  75.0902750  18.8570010 108.2837300  74.1821900
  19.2938700 107.9267730  75.5870410  21.7729040 107.2204490  76.0758950
  21.4251040 106.5428480  75.4961400  21.9741810 106.7594000  76.8902340
  15.1134680 113.7492140  82.4723320  14.4583520 113.4803780  81.8283020
  15.9512630 113.6396620  82.0225300  28.0625120 108.5433430  76.6941810
  28.4810000 108.3564410  75.8538470  27.7561180 107.6912480  77.0044740
  31.5614850 113.4557570  80.3917610  31.1858450 112.6885500  79.9598900
  30.8317970 113.8380270  80.8792540  30.9514470 112.6029090  90.0257130
  30.7200560 112.3741840  89.1255080  31.2119020 113.5228640  89.9802020
  15.7026610 111.0453800  90.9185080  14.8082660 111.0120560  91.2578790
  16.2424160 111.2440590  91.6836330  29.3902540 107.8285520  92.8036830
  30.2672720 107.8368920  93.1870830  29.4023380 107.0916360  92.1929180
  14.3272760 110.9591070  78.4148650  13.4236840 111.2221270  78.2400310
  14.8113380 111.2302240  77.6348610  30.8365810 111.6815060  83.6924850
  31.3603290 111.1877710  83.0615020  31.4225230 111.8165420  84.4372420
  31.0155530 111.7654930  87.2144400  30.0658240 111.7318470  87.3289390
  31.1968540 112.6755040  86.9794170  16.8699970 110.0156610  76.3243030
  17.5791670 109.5939830  75.8390310  16.1539910 110.0831840  75.6926380
  16.5174130 106.0695940  75.3645680  17.2402260 106.6104880  75.6826900
  16.7898650 105.7959360  74.4887220  30.3265780 110.9388410  79.6317260
  30.8224900 110.7059280  80.4166140  30.1281850 110.1000250  79.2154900
  16.2066320 105.3202130  85.2668300  16.8542510 104.7699510  84.8263460
  16.6268160 105.5745280  86.0884110  31.7552940 109.5749360  82.1654940
  31.6452220 109.4205400  83.1037210  32.5160530 109.0470300  81.9230350
  30.1018660 105.5143490  88.6237940  30.7390880 106.1277630  88.9897130
  30.2493550 105.5504150  87.6787170  32.6443210 107.4057280  75.4061080
  33.5692520 107.2738460  75.1979370  32.6219000 107.4850100  76.3597530
  32.7181700 108.1767940  78.0317790  31.9233200 108.1113060  78.5610700
  32.9224980 109.1118580  78.0203140  15.9598320 105.4757800  88.0093620
  15.6113140 105.9321620  88.7751800  15.6286020 104.5814930  88.0916050
  23.4723140 106.6669680  91.5313040  23.4112030 107.2591510  92.2808450
  24.4123520 106.5595640  91.3863300  26.1097700 106.3239740  91.1705330
  26.7238110 106.6419030  90.5086410  26.6547260 105.8388330  91.7901190
  16.6318960 105.0034000  91.2844390  17.1801950 104.8222050  90.5210500
  16.6974270 104.2128110  91.8200700  26.8505740 104.8871880  87.4974620
  25.9765580 105.2206990  87.2947550  26.7416490 104.4145060  88.3226490
  27.7577720 107.0942750  88.8816340  27.4291080 106.2794510  88.5018070
  28.7060020 107.0512560  88.7582030  24.5980560 105.8041720  86.4367530
  23.8152350 106.2787220  86.7164290  24.3043490 104.8996550  86.3280710
  29.1501630 106.5064820  84.4816620  29.5909720 106.4509920  83.6338220
  28.8809220 107.4222830  84.5526800  31.0140200 106.1380060  82.4925440
  30.9528600 105.1941280  82.3456460  31.7932230 106.2460150  83.0378900
  15.9420970 106.1089200  78.9581250  16.7000330 106.2218080  78.3845280
  15.4798140 106.9458400  78.9124680  22.4834780 108.2228470  81.9483560
  21.6709290 107.8485360  81.6079440  22.9876420 107.4673550  82.2504750
  26.9859760 104.8870920  83.1866630  27.5889130 105.4591130  83.6615150
  26.2452750 105.4510360  82.9640530  30.1294360 105.2892480  78.4606910
  30.3244990 106.1875930  78.7274340  29.3424230 105.0579560  78.9539860
  18.3146120 106.6353250  77.4983220  18.8438880 105.8483050  77.3691170
  18.9474440 107.3144440  77.7318750  20.5083960 106.3728390  80.5528610
  19.8786700 105.6715700  80.7198740  19.9689100 107.1332520  80.3361770
  20.6339520 105.6512370  92.9881100  20.3523790 106.1545970  92.2241920
  21.0159220 104.8534120  92.6223230  27.2354980 105.0665950  93.5661570
  27.1220430 105.3860560  94.4613090  28.0524720 105.4678460  93.2698850
  26.1413130 113.0858420  63.9296310  26.0607180 112.1713030  63.6588020
  25.7277550 113.5825490  63.2236020  16.6988950 110.1359140  60.4723730
  15.8105650 110.4775110  60.3703610  16.9830140 109.9359460  59.5804560
  14.6621960 112.7364790  66.3563430  15.2338070 111.9686990  66.3567070
  14.6623500 113.0353550  65.4470040  15.9046830 108.1449150  68.1432360
  15.7249670 107.2474900  68.4235120  15.5026910 108.6921020  68.8179310
  24.7445330 110.3465010  66.0444670  25.1210150 109.4736890  65.9318340
  24.6464840 110.6823710  65.1535110  18.8750340 108.7190640  61.5062110
  18.9817090 109.6194370  61.8130870  17.9642700 108.6708610  61.2156760
  28.5269450 107.8415450  62.9773010  29.3479070 107.3512020  63.0198490
  28.5603530 108.4313110  63.7304850  16.5233500 110.6409650  66.7514700
  17.2043610 110.9048020  67.3702100  16.2081550 109.8010520  67.0852710
  20.7158070 111.6877010  65.8387290  21.2236290 112.1857980  66.4792310
  21.2471310 110.9112210  65.6626650  32.8169000 109.8582200  69.5416640
  32.1121170 110.2463910  69.0231750  33.0826920 110.5532490  70.1437570
  18.9994170 106.3275570  70.1050710  19.0012610 106.8447960  69.2996610
  18.1698480 105.8505750  70.0820640  28.7630930 109.7815830  65.7500550
  28.0586500 110.0700720  66.3303660  29.1243090 110.5915940  65.3900110
  18.6809500 108.0385530  68.1121160  19.0226310 108.8827580  67.8175030
  17.7425310 108.1869270  68.2286500  31.8317850 109.2270620  66.1409760
  30.8842760 109.2609600  66.2725190  32.1567840 110.0409570  66.5259120
  22.3637390 105.5267800  64.4365750  22.6712370 104.9714690  63.7201250
  21.4338090 105.6612260  64.2538740  24.7387230 109.8633630  58.1693030
  23.7990900 110.0247590  58.2545490  25.0570490 110.5819310  57.6229020
  28.2242000 111.3321470  69.0926930  27.8113180 112.1575180  69.3466920
  27.4917950 110.7466510  68.9003290  19.0703410 110.8924580  67.7344640
  19.6218000 111.0019920  66.9597890  19.5846920 111.2662180  68.4499870
  30.5397280 105.6466550  56.9974910  30.2269940 105.7393380  57.8973980
  31.3009750 106.2247580  56.9472340  17.0579420 113.0126350  61.4552250
  16.9377020 113.7388440  60.8433520  16.7480310 112.2429260  60.9780160
  31.7498570 110.3838050  72.9749050  31.1342840 110.8917720  72.4464510
  31.4294990 109.4836380  72.9174990  19.5243080 106.3561420  64.8375920
  19.0811230 107.1370960  64.5060440  20.0828070 106.6791310  65.5446860
  23.8112890 109.2229940  70.4411240  23.3492260 109.4312960  71.2531180
  23.4091000 108.4089290  70.1381910  28.8117400 110.4438890  71.5707900
  27.9610990 110.1444640  71.8916970  28.6519190 110.6880900  70.6591720
  25.9067110 111.9440640  73.6706690  26.2320520 111.1104390  73.3308920
  26.6947440 112.4669160  73.8185020  22.6401900 105.9772120  59.7181750
  22.0156080 105.9731990  60.4435060  22.5532020 105.1103080  59.3217720
  21.5618980 106.9008750  66.6965520  21.8591310 107.8071580  66.6157540
  22.1104540 106.4127530  66.0825090  19.3157300 111.4794990  62.5657170
  19.0898220 111.2632160  63.4703790  18.5349830 111.9123450  62.2203140
  26.5455060 111.4858360  61.1647820  25.9463950 112.2094160  60.9811440
  27.0934670 111.4235140  60.3824270  21.7556510 112.3780570  73.2317440
  21.6600110 111.4375300  73.0817840  22.5988490 112.5995640  72.8365510
  25.1519930 110.1221900  63.1951100  25.5449500 110.4394100  62.3819790
  25.5136780 109.2433780  63.3095620  16.8867050 108.7894240  71.3851220
  16.4930440 109.6369450  71.5924000  16.1985450 108.1520610  71.5759860
  23.4612100 108.8729210  74.4547960  22.7710420 108.6801410  75.0894050
  24.2044400 109.1563850  74.9872260  14.1884100 106.7122700  65.4181300
  13.8997150 107.2825560  66.1306280  14.9329860 106.2327150  65.7812530
  14.3754330 110.6542820  56.6284020  14.2929000 111.5973580  56.7699010
  14.0237390 110.5117730  55.7496370  25.7375070 112.7127650  67.2901880
  25.0056190 113.2214460  67.6391980  25.3399410 111.8957630  66.9890660
  22.1752460 109.3881850  65.6954370  22.1788520 108.9471800  64.8458910
  23.0703580 109.7099180  65.8026190  18.0254840 109.2708340  64.6548580
  17.6854890 109.7483570  65.4115630  17.2632160 108.8173460  64.2949680
  22.2372610 110.3893930  58.6861130  22.3585430 110.3480410  59.6346950
  21.8521120 111.2518080  58.5307860  26.2000980 108.1661330  66.7024820
  26.2173720 108.6169980  67.5466670  25.9516560 107.2666970  66.9158260
  21.2494110 112.6995070  58.0844430  20.6811010 112.2513320  57.4580340
  21.9583110 113.0587850  57.5509580  29.6271730 105.5793510  72.5411200
  29.9517500 104.8483170  73.0669180  29.6628240 105.2607150  71.6392190
  15.3400920 108.1927320  63.5713250  15.0547840 107.8282990  64.4091870
  15.2779780 107.4607780  62.9576390  20.2659800 112.4892270  69.7603990
  19.9616870 113.3684250  69.9854350  21.2206260 112.5492060  69.7961430
  25.0139510 107.0856580  60.2926620  24.2004120 106.5869750  60.2171930
  24.8201460 107.9254830  59.8762970  27.7287900 111.4576230  58.5888780
  28.6167520 111.7693460  58.4140120  27.6992990 110.5848480  58.1969360
  30.0002170 112.7688070  58.0568640  29.9165890 113.2002290  57.2065080
  30.7196360 113.2286420  58.4895460  17.8978170 105.0597130  62.1240750
  17.7692800 105.0515030  63.0725670  17.0740190 105.3980220  61.7731760
  14.8972100 106.8188250  71.5847450  14.1830620 107.0185170  72.1900060
  15.3167140 106.0427820  71.9562250  26.3910880 109.3110560  69.3348900
  26.7591700 108.4905770  69.6628470  25.5309080 109.3712450  69.7504550
  29.7572910 108.2667500  60.1436460  29.1286070 108.3713170  59.4294690
  29.2624830 108.4864280  60.9330340  21.7256940 110.5453450  61.5594340
  21.0173090 111.0139790  62.0007950  22.0101420 109.8875460  62.1939530
  23.3512870 111.9650150  69.5586870  23.8498120 112.4395970  70.2238720
  23.4935820 111.0413670  69.7656900  25.7572370 107.2704110  62.9990130
  25.6340150 107.2890240  62.0499640  26.7056930 107.3183050  63.1188530
  19.9291960 108.8538530  58.9345050  20.7782490 109.2908680  58.8685240
  19.5623230 109.1658790  59.7617110  30.5579730 108.1818110  70.4015260
  30.0553330 108.9223510  70.7409070  31.3736390 108.5702110  70.0852050
  28.8501740 113.4251290  63.8476620  27.9091880 113.4401520  64.0224310
  29.1645810 112.6387250  64.2936920  17.5230140 112.5395960  58.0913470
  17.6033730 111.5923470  58.2030870  18.4149890 112.8702840  58.1974130
  17.0824020 112.5040470  74.2219710  17.1229360 112.2054340  75.1304940
  17.9369520 112.9048080  74.0627230  19.0229830 111.0832570  72.1894200
  18.4926290 110.5923520  71.5617540  19.6917900 111.5116770  71.6552130
  28.3930060 112.8898190  73.9574540  28.9750830 112.1350510  73.8695020
  28.5691830 113.4205630  73.1806020  19.5102130 108.0494940  72.2691490
  19.4159000 107.4315690  71.5442360  18.9299520 108.7761230  72.0421400
  22.2763570 106.6068180  69.3018880  21.8280870 106.6292440  68.4564430
  21.6428770 106.2087200  69.8989180  25.0187020 113.2338690  71.3069160
  25.1383230 112.6379830  72.0464000  25.8781020 113.2708380  70.8870460
  19.7561310 111.1769250  56.3281380  19.5550370 110.3136610  56.6894720
  19.5853360 111.0902610  55.3902980  21.7855790 109.7760040  72.5644980
  22.3755480 109.4675890  73.2522800  20.9676030 109.3039790  72.7204880
  26.6049220 109.3925850  72.7978000  25.9164740 108.7307390  72.7327990
  27.3255240 108.9464120  73.2426460  27.2349620 105.9877480  58.8568260
  27.5151910 105.1445380  59.2127680  26.4615350 106.2200590  59.3707010
  18.5544110 108.2769870  56.3159260  18.8570010 108.2837300  55.4078410
  19.2938700 107.9267730  56.8126920  21.7729040 107.2204490  57.3015460
  21.4251040 106.5428480  56.7217910  21.9741810 106.7594000  58.1158850
  15.1134680 113.7492140  63.6979830  14.4583520 113.4803780  63.0539530
  15.9512630 113.6396620  63.2481810  28.0625120 108.5433430  57.9198320
  28.4810000 108.3564410  57.0794980  27.7561180 107.6912480  58.2301250
  31.5614850 113.4557570  61.6174120  31.1858450 112.6885500  61.1855410
  30.8317970 113.8380270  62.1049050  30.9514470 112.6029090  71.2513640
  30.7200560 112.3741840  70.3511590  31.2119020 113.5228640  71.2058530
  15.7026610 111.0453800  72.1441590  14.8082660 111.0120560  72.4835300
  16.2424160 111.2440590  72.9092840  29.3902540 107.8285520  74.0293340
  30.2672720 107.8368920  74.4127340  29.4023380 107.0916360  73.4185690
  14.3272760 110.9591070  59.6405160  13.4236840 111.2221270  59.4656820
  14.8113380 111.2302240  58.8605120  30.8365810 111.6815060  64.9181360
  31.3603290 111.1877710  64.2871530  31.4225230 111.8165420  65.6628930
  31.0155530 111.7654930  68.4400910  30.0658240 111.7318470  68.5545900
  31.1968540 112.6755040  68.2050680  16.8699970 110.0156610  57.5499540
  17.5791670 109.5939830  57.0646820  16.1539910 110.0831840  56.9182890
  16.5174130 106.0695940  56.5902190  17.2402260 106.6104880  56.9083410
  16.7898650 105.7959360  55.7143730  30.3265780 110.9388410  60.8573770
  30.8224900 110.7059280  61.6422650  30.1281850 110.1000250  60.4411410
  16.2066320 105.3202130  66.4924810  16.8542510 104.7699510  66.0519970
  16.6268160 105.5745280  67.3140620  31.7552940 109.5749360  63.3911450
  31.6452220 109.4205400  64.3293720  32.5160530 109.0470300  63.1486860
  30.1018660 105.5143490  69.8494450  30.7390880 106.1277630  70.2153640
  30.2493550 105.5504150  68.9043680  32.6443210 107.4057280  56.6317590
  33.5692520 107.2738460  56.4235880  32.6219000 107.4850100  57.5854040
  32.7181700 108.1767940  59.2574300  31.9233200 108.1113060  59.7867210
  32.9224980 109.1118580  59.2459650  15.9598320 105.4757800  69.2350130
  15.6113140 105.9321620  70.0008310  15.6286020 104.5814930  69.3172560
  23.4723140 106.6669680  72.7569550  23.4112030 107.2591510  73.5064960
  24.4123520 106.5595640  72.6119810  26.1097700 106.3239740  72.3961840
  26.7238110 106.6419030  71.7342920  26.6547260 105.8388330  73.0157700
  16.6318960 105.0034000  72.5100900  17.1801950 104.8222050  71.7467010
  16.6974270 104.2128110  73.0457210  26.8505740 104.8871880  68.7231130
  25.9765580 105.2206990  68.5204060  26.7416490 104.4145060  69.5483000
  27.7577720 107.0942750  70.1072850  27.4291080 106.2794510  69.7274580
  28.7060020 107.0512560  69.9838540  24.5980560 105.8041720  67.6624040
  23.8152350 106.2787220  67.9420800  24.3043490 104.8996550  67.5537220
  29.1501630 106.5064820  65.7073130  29.5909720 106.4509920  64.8594730
  28.8809220 107.4222830  65.7783310  31.0140200 106.1380060  63.7181950
  30.9528600 105.1941280  63.5712970  31.7932230 106.2460150  64.2635410
  15.9420970 106.1089200  60.1837760  16.7000330 106.2218080  59.6101790
  15.4798140 106.9458400  60.1381190  22.4834780 108.2228470  63.1740070
  21.6709290 107.8485360  62.8335950  22.9876420 107.4673550  63.4761260
  26.9859760 104.8870920  64.4123140  27.5889130 105.4591130  64.8871660
  26.2452750 105.4510360  64.1897040  30.1294360 105.2892480  59.6863420
  30.3244990 106.1875930  59.9530850  29.3424230 105.0579560  60.1796370
  18.3146120 106.6353250  58.7239730  18.8438880 105.8483050  58.5947680
  18.9474440 107.3144440  58.9575260  20.5083960 106.3728390  61.7785120
  19.8786700 105.6715700  61.9455250  19.9689100 107.1332520  61.5618280
  20.6339520 105.6512370  74.2137610  20.3523790 106.1545970  73.4498430
  21.0159220 104.8534120  73.8479740  27.2354980 105.0665950  74.7918080
  27.1220430 105.3860560  75.6869600  28.0524720 105.4678460  74.4955360
  26.1413130 113.0858420  45.1552820  26.0607180 112.1713030  44.8844530
  25.7277550 113.5825490  44.4492530  16.6988950 110.1359140  41.6980240
  15.8105650 110.4775110  41.5960120  16.9830140 109.9359460  40.8061070
  14.6621960 112.7364790  47.5819940  15.2338070 111.9686990  47.5823580
  14.6623500 113.0353550  46.6726550  15.9046830 108.1449150  49.3688870
  15.7249670 107.2474900  49.6491630  15.5026910 108.6921020  50.0435820
  24.7445330 110.3465010  47.2701180  25.1210150 109.4736890  47.1574850
  24.6464840 110.6823710  46.3791620  18.8750340 108.7190640  42.7318620
  18.9817090 109.6194370  43.0387380  17.9642700 108.6708610  42.4413270
  28.5269450 107.8415450  44.2029520  29.3479070 107.3512020  44.2455000
  28.5603530 108.4313110  44.9561360  16.5233500 110.6409650  47.9771210
  17.2043610 110.9048020  48.5958610  16.2081550 109.8010520  48.3109220
  20.7158070 111.6877010  47.0643800  21.2236290 112.1857980  47.7048820
  21.2471310 110.9112210  46.8883160  32.8169000 109.8582200  50.7673150
  32.1121170 110.2463910  50.2488260  33.0826920 110.5532490  51.3694080
  18.9994170 106.3275570  51.3307220  19.0012610 106.8447960  50.5253120
  18.1698480 105.8505750  51.3077150  28.7630930 109.7815830  46.9757060
  28.0586500 110.0700720  47.5560170  29.1243090 110.5915940  46.6156620
  18.6809500 108.0385530  49.3377670  19.0226310 108.8827580  49.0431540
  17.7425310 108.1869270  49.4543010  31.8317850 109.2270620  47.3666270
  30.8842760 109.2609600  47.4981700  32.1567840 110.0409570  47.7515630
  22.3637390 105.5267800  45.6622260  22.6712370 104.9714690  44.9457760
  21.4338090 105.6612260  45.4795250  24.7387230 109.8633630  39.3949540
  23.7990900 110.0247590  39.4802000  25.0570490 110.5819310  38.8485530
  28.2242000 111.3321470  50.3183440  27.8113180 112.1575180  50.5723430
  27.4917950 110.7466510  50.1259800  19.0703410 110.8924580  48.9601150
  19.6218000 111.0019920  48.1854400  19.5846920 111.2662180  49.6756380
  30.5397280 105.6466550  38.2231420  30.2269940 105.7393380  39.1230490
  31.3009750 106.2247580  38.1728850  17.0579420 113.0126350  42.6808760
  16.9377020 113.7388440  42.0690030  16.7480310 112.2429260  42.2036670
  31.7498570 110.3838050  54.2005560  31.1342840 110.8917720  53.6721020
  31.4294990 109.4836380  54.1431500  19.5243080 106.3561420  46.0632430
  19.0811230 107.1370960  45.7316950  20.0828070 106.6791310  46.7703370
  23.8112890 109.2229940  51.6667750  23.3492260 109.4312960  52.4787690
  23.4091000 108.4089290  51.3638420  28.8117400 110.4438890  52.7964410
  27.9610990 110.1444640  53.1173480  28.6519190 110.6880900  51.8848230
  25.9067110 111.9440640  54.8963200  26.2320520 111.1104390  54.5565430
  26.6947440 112.4669160  55.0441530  22.6401900 105.9772120  40.9438260
  22.0156080 105.9731990  41.6691570  22.5532020 105.1103080  40.5474230
  21.5618980 106.9008750  47.9222030  21.8591310 107.8071580  47.8414050
  22.1104540 106.4127530  47.3081600  19.3157300 111.4794990  43.7913680
  19.0898220 111.2632160  44.6960300  18.5349830 111.9123450  43.4459650
  26.5455060 111.4858360  42.3904330  25.9463950 112.2094160  42.2067950
  27.0934670 111.4235140  41.6080780  21.7556510 112.3780570  54.4573950
  21.6600110 111.4375300  54.3074350  22.5988490 112.5995640  54.0622020
  25.1519930 110.1221900  44.4207610  25.5449500 110.4394100  43.6076300
  25.5136780 109.2433780  44.5352130  16.8867050 108.7894240  52.6107730
  16.4930440 109.6369450  52.8180510  16.1985450 108.1520610  52.8016370
  23.4612100 108.8729210  55.6804470  22.7710420 108.6801410  56.3150560
  24.2044400 109.1563850  56.2128770  14.1884100 106.7122700  46.6437810
  13.8997150 107.2825560  47.3562790  14.9329860 106.2327150  47.0069040
  14.3754330 110.6542820  37.8540530  14.2929000 111.5973580  37.9955520
  14.0237390 110.5117730  36.9752880  25.7375070 112.7127650  48.5158390
  25.0056190 113.2214460  48.8648490  25.3399410 111.8957630  48.2147170
  22.1752460 109.3881850  46.9210880  22.1788520 108.9471800  46.0715420
  23.0703580 109.7099180  47.0282700  18.0254840 109.2708340  45.8805090
  17.6854890 109.7483570  46.6372140  17.2632160 108.8173460  45.5206190
  22.2372610 110.3893930  39.9117640  22.3585430 110.3480410  40.8603460
  21.8521120 111.2518080  39.7564370  26.2000980 108.1661330  47.9281330
  26.2173720 108.6169980  48.7723180  25.9516560 107.2666970  48.1414770
  21.2494110 112.6995070  39.3100940  20.6811010 112.2513320  38.6836850
  21.9583110 113.0587850  38.7766090  29.6271730 105.5793510  53.7667710
  29.9517500 104.8483170  54.2925690  29.6628240 105.2607150  52.8648700
  15.3400920 108.1927320  44.7969760  15.0547840 107.8282990  45.6348380
  15.2779780 107.4607780  44.1832900  20.2659800 112.4892270  50.9860500
  19.9616870 113.3684250  51.2110860  21.2206260 112.5492060  51.0217940
  25.0139510 107.0856580  41.5183130  24.2004120 106.5869750  41.4428440
  24.8201460 107.9254830  41.1019480  27.7287900 111.4576230  39.8145290
  28.6167520 111.7693460  39.6396630  27.6992990 110.5848480  39.4225870
  30.0002170 112.7688070  39.2825150  29.9165890 113.2002290  38.4321590
  30.7196360 113.2286420  39.7151970  17.8978170 105.0597130  43.3497260
  17.7692800 105.0515030  44.2982180  17.0740190 105.3980220  42.9988270
  14.8972100 106.8188250  52.8103960  14.1830620 107.0185170  53.4156570
  15.3167140 106.0427820  53.1818760  26.3910880 109.3110560  50.5605410
  26.7591700 108.4905770  50.8884980  25.5309080 109.3712450  50.9761060
  29.7572910 108.2667500  41.3692970  29.1286070 108.3713170  40.6551200
  29.2624830 108.4864280  42.1586850  21.7256940 110.5453450  42.7850850
  21.0173090 111.0139790  43.2264460  22.0101420 109.8875460  43.4196040
  23.3512870 111.9650150  50.7843380  23.8498120 112.4395970  51.4495230
  23.4935820 111.0413670  50.9913410  25.7572370 107.2704110  44.2246640
  25.6340150 107.2890240  43.2756150  26.7056930 107.3183050  44.3445040
  19.9291960 108.8538530  40.1601560  20.7782490 109.2908680  40.0941750
  19.5623230 109.1658790  40.9873620  30.5579730 108.1818110  51.6271770
  30.0553330 108.9223510  51.9665580  31.3736390 108.5702110  51.3108560
  28.8501740 113.4251290  45.0733130  27.9091880 113.4401520  45.2480820
  29.1645810 112.6387250  45.5193430  17.5230140 112.5395960  39.3169980
  17.6033730 111.5923470  39.4287380  18.4149890 112.8702840  39.4230640
  17.0824020 112.5040470  55.4476220  17.1229360 112.2054340  56.3561450
  17.9369520 112.9048080  55.2883740  19.0229830 111.0832570  53.4150710
  18.4926290 110.5923520  52.7874050  19.6917900 111.5116770  52.8808640
  28.3930060 112.8898190  55.1831050  28.9750830 112.1350510  55.0951530
  28.5691830 113.4205630  54.4062530  19.5102130 108.0494940  53.4948000
  19.4159000 107.4315690  52.7698870  18.9299520 108.7761230  53.2677910
  22.2763570 106.6068180  50.5275390  21.8280870 106.6292440  49.6820940
  21.6428770 106.2087200  51.1245690  25.0187020 113.2338690  52.5325670
  25.1383230 112.6379830  53.2720510  25.8781020 113.2708380  52.1126970
  19.7561310 111.1769250  37.5537890  19.5550370 110.3136610  37.9151230
  19.5853360 111.0902610  36.6159490  21.7855790 109.7760040  53.7901490
  22.3755480 109.4675890  54.4779310  20.9676030 109.3039790  53.9461390
  26.6049220 109.3925850  54.0234510  25.9164740 108.7307390  53.9584500
  27.3255240 108.9464120  54.4682970  27.2349620 105.9877480  40.0824770
  27.5151910 105.1445380  40.4384190  26.4615350 106.2200590  40.5963520
  18.5544110 108.2769870  37.5415770  18.8570010 108.2837300  36.6334920
  19.2938700 107.9267730  38.0383430  21.7729040 107.2204490  38.5271970
  21.4251040 106.5428480  37.9474420  21.9741810 106.7594000  39.3415360
  15.1134680 113.7492140  44.9236340  14.4583520 113.4803780  44.2796040
  15.9512630 113.6396620  44.4738320  28.0625120 108.5433430  39.1454830
  28.4810000 108.3564410  38.3051490  27.7561180 107.6912480  39.4557760
  31.5614850 113.4557570  42.8430630  31.1858450 112.6885500  42.4111920
  30.8317970 113.8380270  43.3305560  30.9514470 112.6029090  52.4770150
  30.7200560 112.3741840  51.5768100  31.2119020 113.5228640  52.4315040
  15.7026610 111.0453800  53.3698100  14.8082660 111.0120560  53.7091810
  16.2424160 111.2440590  54.1349350  29.3902540 107.8285520  55.2549850
  30.2672720 107.8368920  55.6383850  29.4023380 107.0916360  54.6442200
  14.3272760 110.9591070  40.8661670  13.4236840 111.2221270  40.6913330
  14.8113380 111.2302240  40.0861630  30.8365810 111.6815060  46.1437870
  31.3603290 111.1877710  45.5128040  31.4225230 111.8165420  46.8885440
  31.0155530 111.7654930  49.6657420  30.0658240 111.7318470  49.7802410
  31.1968540 112.6755040  49.4307190  16.8699970 110.0156610  38.7756050
  17.5791670 109.5939830  38.2903330  16.1539910 110.0831840  38.1439400
  16.5174130 106.0695940  37.8158700  17.2402260 106.6104880  38.1339920
  16.7898650 105.7959360  36.9400240  30.3265780 110.9388410  42.0830280
  30.8224900 110.7059280  42.8679160  30.1281850 110.1000250  41.6667920
  16.2066320 105.3202130  47.7181320  16.8542510 104.7699510  47.2776480
  16.6268160 105.5745280  48.5397130  31.7552940 109.5749360  44.6167960
  31.6452220 109.4205400  45.5550230  32.5160530 109.0470300  44.3743370
  30.1018660 105.5143490  51.0750960  30.7390880 106.1277630  51.4410150
  30.2493550 105.5504150  50.1300190  32.6443210 107.4057280  37.8574100
  33.5692520 107.2738460  37.6492390  32.6219000 107.4850100  38.8110550
  32.7181700 108.1767940  40.4830810  31.9233200 108.1113060  41.0123720
  32.9224980 109.1118580  40.4716160  15.9598320 105.4757800  50.4606640
  15.6113140 105.9321620  51.2264820  15.6286020 104.5814930  50.5429070
  23.4723140 106.6669680  53.9826060  23.4112030 107.2591510  54.7321470
  24.4123520 106.5595640  53.8376320  26.1097700 106.3239740  53.6218350
  26.7238110 106.6419030  52.9599430  26.6547260 105.8388330  54.2414210
  16.6318960 105.0034000  53.7357410  17.1801950 104.8222050  52.9723520
  16.6974270 104.2128110  54.2713720  26.8505740 104.8871880  49.9487640
  25.9765580 105.2206990  49.7460570  26.7416490 104.4145060  50.7739510
  27.7577720 107.0942750  51.3329360  27.4291080 106.2794510  50.9531090
  28.7060020 107.0512560  51.2095050  24.5980560 105.8041720  48.8880550
  23.8152350 106.2787220  49.1677310  24.3043490 104.8996550  48.7793730
  29.1501630 106.5064820  46.9329640  29.5909720 106.4509920  46.0851240
  28.8809220 107.4222830  47.0039820  31.0140200 106.1380060  44.9438460
  30.9528600 105.1941280  44.7969480  31.7932230 106.2460150  45.4891920
  15.9420970 106.1089200  41.4094270  16.7000330 106.2218080  40.8358300
  15.4798140 106.9458400  41.3637700  22.4834780 108.2228470  44.3996580
  21.6709290 107.8485360  44.0592460  22.9876420 107.4673550  44.7017770
  26.9859760 104.8870920  45.6379650  27.5889130 105.4591130  46.1128170
  26.2452750 105.4510360  45.4153550  30.1294360 105.2892480  40.9119930
  30.3244990 106.1875930  41.1787360  29.3424230 105.0579560  41.4052880
  18.3146120 106.6353250  39.9496240  18.8438880 105.8483050  39.8204190
  18.9474440 107.3144440  40.1831770  20.5083960 106.3728390  43.0041630
  19.8786700 105.6715700  43.1711760  19.9689100 107.1332520  42.7874790
  20.6339520 105.6512370  55.4394120  20.3523790 106.1545970  54.6754940
  21.0159220 104.8534120  55.0736250  27.2354980 105.0665950  56.0174590
  27.1220430 105.3860560  56.9126110  28.0524720 105.4678460  55.7211870
  26.1413130 113.0858420  26.3809330  26.0607180 112.1713030  26.1101040
  25.7277550 113.5825490  25.6749040  16.6988950 110.1359140  22.9236750
  15.8105650 110.4775110  22.8216630  16.9830140 109.9359460  22.0317580
  14.6621960 112.7364790  28.8076450  15.2338070 111.9686990  28.8080090
  14.6623500 113.0353550  27.8983060  15.9046830 108.1449150  30.5945380
  15.7249670 107.2474900  30.8748140  15.5026910 108.6921020  31.2692330
  24.7445330 110.3465010  28.4957690  25.1210150 109.4736890  28.3831360
  24.6464840 110.6823710  27.6048130  18.8750340 108.7190640  23.9575130
  18.9817090 109.6194370  24.2643890  17.9642700 108.6708610  23.6669780
  28.5269450 107.8415450  25.4286030  29.3479070 107.3512020  25.4711510
  28.5603530 108.4313110  26.1817870  16.5233500 110.6409650  29.2027720
  17.2043610 110.9048020  29.8215120  16.2081550 109.8010520  29.5365730
  20.7158070 111.6877010  28.2900310  21.2236290 112.1857980  28.9305330
  21.2471310 110.9112210  28.1139670  32.8169000 109.8582200  31.9929660
  32.1121170 110.2463910  31.4744770  33.0826920 110.5532490  32.5950590
  18.9994170 106.3275570  32.5563730  19.0012610 106.8447960  31.7509630
  18.1698480 105.8505750  32.5333660  28.7630930 109.7815830  28.2013570
  28.0586500 110.0700720  28.7816680  29.1243090 110.5915940  27.8413130
  18.6809500 108.0385530  30.5634180  19.0226310 108.8827580  30.2688050
  17.7425310 108.1869270  30.6799520  31.8317850 109.2270620  28.5922780
  30.8842760 109.2609600  28.7238210  32.1567840 110.0409570  28.9772140
  22.3637390 105.5267800  26.8878770  22.6712370 104.9714690  26.1714270
  21.4338090 105.6612260  26.7051760  24.7387230 109.8633630  20.6206050
  23.7990900 110.0247590  20.7058510  25.0570490 110.5819310  20.0742040
  28.2242000 111.3321470  31.5439950  27.8113180 112.1575180  31.7979940
  27.4917950 110.7466510  31.3516310  19.0703410 110.8924580  30.1857660
  19.6218000 111.0019920  29.4110910  19.5846920 111.2662180  30.9012890
  30.5397280 105.6466550  19.4487930  30.2269940 105.7393380  20.3487000
  31.3009750 106.2247580  19.3985360  17.0579420 113.0126350  23.9065270
  16.9377020 113.7388440  23.2946540  16.7480310 112.2429260  23.4293180
  31.7498570 110.3838050  35.4262070  31.1342840 110.8917720  34.8977530
  31.4294990 109.4836380  35.3688010  19.5243080 106.3561420  27.2888940
  19.0811230 107.1370960  26.9573460  20.0828070 106.6791310  27.9959880
  23.8112890 109.2229940  32.8924260  23.3492260 109.4312960  33.7044200
  23.4091000 108.4089290  32.5894930  28.8117400 110.4438890  34.0220920
  27.9610990 110.1444640  34.3429990  28.6519190 110.6880900  33.1104740
  25.9067110 111.9440640  36.1219710  26.2320520 111.1104390  35.7821940
  26.6947440 112.4669160  36.2698040  22.6401900 105.9772120  22.1694770
  22.0156080 105.9731990  22.8948080  22.5532020 105.1103080  21.7730740
  21.5618980 106.9008750  29.1478540  21.8591310 107.8071580  29.0670560
  22.1104540 106.4127530  28.5338110  19.3157300 111.4794990  25.0170190
  19.0898220 111.2632160  25.9216810  18.5349830 111.9123450  24.6716160
  26.5455060 111.4858360  23.6160840  25.9463950 112.2094160  23.4324460
  27.0934670 111.4235140  22.8337290  21.7556510 112.3780570  35.6830460
  21.6600110 111.4375300  35.5330860  22.5988490 112.5995640  35.2878530
  25.1519930 110.1221900  25.6464120  25.5449500 110.4394100  24.8332810
  25.5136780 109.2433780  25.7608640  16.8867050 108.7894240  33.8364240
  16.4930440 109.6369450  34.0437020  16.1985450 108.1520610  34.0272880
  23.4612100 108.8729210  36.9060980  22.7710420 108.6801410  37.5407070
  24.2044400 109.1563850  37.4385280  14.1884100 106.7122700  27.8694320
  13.8997150 107.2825560  28.5819300  14.9329860 106.2327150  28.2325550
  14.3754330 110.6542820  19.0797040  14.2929000 111.5973580  19.2212030
  14.0237390 110.5117730  18.2009390  25.7375070 112.7127650  29.7414900
  25.0056190 113.2214460  30.0905000  25.3399410 111.8957630  29.4403680
  22.1752460 109.3881850  28.1467390  22.1788520 108.9471800  27.2971930
  23.0703580 109.7099180  28.2539210  18.0254840 109.2708340  27.1061600
  17.6854890 109.7483570  27.8628650  17.2632160 108.8173460  26.7462700
  22.2372610 110.3893930  21.1374150  22.3585430 110.3480410  22.0859970
  21.8521120 111.2518080  20.9820880  26.2000980 108.1661330  29.1537840
  26.2173720 108.6169980  29.9979690  25.9516560 107.2666970  29.3671280
  21.2494110 112.6995070  20.5357450  20.6811010 112.2513320  19.9093360
  21.9583110 113.0587850  20.0022600  29.6271730 105.5793510  34.9924220
  29.9517500 104.8483170  35.5182200  29.6628240 105.2607150  34.0905210
  15.3400920 108.1927320  26.0226270  15.0547840 107.8282990  26.8604890
  15.2779780 107.4607780  25.4089410  20.2659800 112.4892270  32.2117010
  19.9616870 113.3684250  32.4367370  21.2206260 112.5492060  32.2474450
  25.0139510 107.0856580  22.7439640  24.2004120 106.5869750  22.6684950
  24.8201460 107.9254830  22.3275990  27.7287900 111.4576230  21.0401800
  28.6167520 111.7693460  20.8653140  27.6992990 110.5848480  20.6482380
  30.0002170 112.7688070  20.5081660  29.9165890 113.2002290  19.6578100
  30.7196360 113.2286420  20.9408480  17.8978170 105.0597130  24.5753770
  17.7692800 105.0515030  25.5238690  17.0740190 105.3980220  24.2244780
  14.8972100 106.8188250  34.0360470  14.1830620 107.0185170  34.6413080
  15.3167140 106.0427820  34.4075270  26.3910880 109.3110560  31.7861920
  26.7591700 108.4905770  32.1141490  25.5309080 109.3712450  32.2017570
  29.7572910 108.2667500  22.5949480  29.1286070 108.3713170  21.8807710
  29.2624830 108.4864280  23.3843360  21.7256940 110.5453450  24.0107360
  21.0173090 111.0139790  24.4520970  22.0101420 109.8875460  24.6452550
  23.3512870 111.9650150  32.0099890  23.8498120 112.4395970  32.6751740
  23.4935820 111.0413670  32.2169920  25.7572370 107.2704110  25.4503150
  25.6340150 107.2890240  24.5012660  26.7056930 107.3183050  25.5701550
  19.9291960 108.8538530  21.3858070  20.7782490 109.2908680  21.3198260
  19.5623230 109.1658790  22.2130130  30.5579730 108.1818110  32.8528280
  30.0553330 108.9223510  33.1922090  31.3736390 108.5702110  32.5365070
  28.8501740 113.4251290  26.2989640  27.9091880 113.4401520  26.4737330
  29.1645810 112.6387250  26.7449940  17.5230140 112.5395960  20.5426490
  17.6033730 111.5923470  20.6543890  18.4149890 112.8702840  20.6487150
  17.0824020 112.5040470  36.6732730  17.1229360 112.2054340  37.5817960
  17.9369520 112.9048080  36.5140250  19.0229830 111.0832570  34.6407220
  18.4926290 110.5923520  34.0130560  19.6917900 111.5116770  34.1065150
  28.3930060 112.8898190  36.4087560  28.9750830 112.1350510  36.3208040
  28.5691830 113.4205630  35.6319040  19.5102130 108.0494940  34.7204510
  19.4159000 107.4315690  33.9955380  18.9299520 108.7761230  34.4934420
  22.2763570 106.6068180  31.7531900  21.8280870 106.6292440  30.9077450
  21.6428770 106.2087200  32.3502200  25.0187020 113.2338690  33.7582180
  25.1383230 112.6379830  34.4977020  25.8781020 113.2708380  33.3383480
  19.7561310 111.1769250  18.7794400  19.5550370 110.3136610  19.1407740
  19.5853360 111.0902610  17.8416000  21.7855790 109.7760040  35.0158000
  22.3755480 109.4675890  35.7035820  20.9676030 109.3039790  35.1717900
  26.6049220 109.3925850  35.2491020  25.9164740 108.7307390  35.1841010
  27.3255240 108.9464120  35.6939480  27.2349620 105.9877480  21.3081280
  27.5151910 105.1445380  21.6640700  26.4615350 106.2200590  21.8220030
  18.5544110 108.2769870  18.7672280  18.8570010 108.2837300  17.8591430
  19.2938700 107.9267730  19.2639940  21.7729040 107.2204490  19.7528480
  21.4251040 106.5428480  19.1730930  21.9741810 106.7594000  20.5671870
  15.1134680 113.7492140  26.1492850  14.4583520 113.4803780  25.5052550
  15.9512630 113.6396620  25.6994830  28.0625120 108.5433430  20.3711340
  28.4810000 108.3564410  19.5308000  27.7561180 107.6912480  20.6814270
  31.5614850 113.4557570  24.0687140  31.1858450 112.6885500  23.6368430
  30.8317970 113.8380270  24.5562070  30.9514470 112.6029090  33.7026660
  30.7200560 112.3741840  32.8024610  31.2119020 113.5228640  33.6571550
  15.7026610 111.0453800  34.5954610  14.8082660 111.0120560  34.9348320
  16.2424160 111.2440590  35.3605860  29.3902540 107.8285520  36.4806360
  30.2672720 107.8368920  36.8640360  29.4023380 107.0916360  35.8698710
  14.3272760 110.9591070  22.0918180  13.4236840 111.2221270  21.9169840
  14.8113380 111.2302240  21.3118140  30.8365810 111.6815060  27.3694380
  31.3603290 111.1877710  26.7384550  31.4225230 111.8165420  28.1141950
  31.0155530 111.7654930  30.8913930  30.0658240 111.7318470  31.0058920
  31.1968540 112.6755040  30.6563700  16.8699970 110.0156610  20.0012560
  17.5791670 109.5939830  19.5159840  16.1539910 110.0831840  19.3695910
  16.5174130 106.0695940  19.0415210  17.2402260 106.6104880  19.3596430
  16.7898650 105.7959360  18.1656750  30.3265780 110.9388410  23.3086790
  30.8224900 110.7059280  24.0935670  30.1281850 110.1000250  22.8924430
  16.2066320 105.3202130  28.9437830  16.8542510 104.7699510  28.5032990
  16.6268160 105.5745280  29.7653640  31.7552940 109.5749360  25.8424470
  31.6452220 109.4205400  26.7806740  32.5160530 109.0470300  25.5999880
  30.1018660 105.5143490  32.3007470  30.7390880 106.1277630  32.6666660
  30.2493550 105.5504150  31.3556700  32.6443210 107.4057280  19.0830610
  33.5692520 107.2738460  18.8748900  32.6219000 107.4850100  20.0367060
  32.7181700 108.1767940  21.7087320  31.9233200 108.1113060  22.2380230
  32.9224980 109.1118580  21.6972670  15.9598320 105.4757800  31.6863150
  15.6113140 105.9321620  32.4521330  15.6286020 104.5814930  31.7685580
  23.4723140 106.6669680  35.2082570  23.4112030 107.2591510  35.9577980
  24.4123520 106.5595640  35.0632830  26.1097700 106.3239740  34.8474860
  26.7238110 106.6419030  34.1855940  26.6547260 105.8388330  35.4670720
  16.6318960 105.0034000  34.9613920  17.1801950 104.8222050  34.1980030
  16.6974270 104.2128110  35.4970230  26.8505740 104.8871880  31.1744150
  25.9765580 105.2206990  30.9717080  26.7416490 104.4145060  31.9996020
  27.7577720 107.0942750  32.5585870  27.4291080 106.2794510  32.1787600
  28.7060020 107.0512560  32.4351560  24.5980560 105.8041720  30.1137060
  23.8152350 106.2787220  30.3933820  24.3043490 104.8996550  30.0050240
  29.1501630 106.5064820  28.1586150  29.5909720 106.4509920  27.3107750
  28.8809220 107.4222830  28.2296330  31.0140200 106.1380060  26.1694970
  30.9528600 105.1941280  26.0225990  31.7932230 106.2460150  26.7148430
  15.9420970 106.1089200  22.6350780  16.7000330 106.2218080  22.0614810
  15.4798140 106.9458400  22.5894210  22.4834780 108.2228470  25.6253090
  21.6709290 107.8485360  25.2848970  22.9876420 107.4673550  25.9274280
  26.9859760 104.8870920  26.8636160  27.5889130 105.4591130  27.3384680
  26.2452750 105.4510360  26.6410060  30.1294360 105.2892480  22.1376440
  30.3244990 106.1875930  22.4043870  29.3424230 105.0579560  22.6309390
  18.3146120 106.6353250  21.1752750  18.8438880 105.8483050  21.0460700
  18.9474440 107.3144440  21.4088280  20.5083960 106.3728390  24.2298140
  19.8786700 105.6715700  24.3968270  19.9689100 107.1332520  24.0131300
  20.6339520 105.6512370  36.6650630  20.3523790 106.1545970  35.9011450
  21.0159220 104.8534120  36.2992760  27.2354980 105.0665950  37.2431100
  27.1220430 105.3860560  38.1382620  28.0524720 105.4678460  36.9468380
  26.1413130 113.0858420   7.6065840  26.0607180 112.1713030   7.3357550
  25.7277550 113.5825490   6.9005550  16.6988950 110.1359140   4.1493260
  15.8105650 110.4775110   4.0473140  16.9830140 109.9359460   3.2574090
  14.6621960 112.7364790  10.0332960  15.2338070 111.9686990  10.0336600
  14.6623500 113.0353550   9.1239570  15.9046830 108.1449150  11.8201890
  15.7249670 107.2474900  12.1004650  15.5026910 108.6921020  12.4948840
  24.7445330 110.3465010   9.7214200  25.1210150 109.4736890   9.6087870
  24.6464840 110.6823710   8.8304640  18.8750340 108.7190640   5.1831640
  18.9817090 109.6194370   5.4900400  17.9642700 108.6708610   4.8926290
  28.5269450 107.8415450   6.6542540  29.3479070 107.3512020   6.6968020
  28.5603530 108.4313110   7.4074380  16.5233500 110.6409650  10.4284230
  17.2043610 110.9048020  11.0471630  16.2081550 109.8010520  10.7622240
  20.7158070 111.6877010   9.5156820  21.2236290 112.1857980  10.1561840
  21.2471310 110.9112210   9.3396180  32.8169000 109.8582200  13.2186170
  32.1121170 110.2463910  12.7001280  33.0826920 110.5532490  13.8207100
  18.9994170 106.3275570  13.7820240  19.0012610 106.8447960  12.9766140
  18.1698480 105.8505750  13.7590170  28.7630930 109.7815830   9.4270080
  28.0586500 110.0700720  10.0073190  29.1243090 110.5915940   9.0669640
  18.6809500 108.0385530  11.7890690  19.0226310 108.8827580  11.4944560
  17.7425310 108.1869270  11.9056030  31.8317850 109.2270620   9.8179290
  30.8842760 109.2609600   9.9494720  32.1567840 110.0409570  10.2028650
  22.3637390 105.5267800   8.1135280  22.6712370 104.9714690   7.3970780
  21.4338090 105.6612260   7.9308270  24.7387230 109.8633630   1.8462560
  23.7990900 110.0247590   1.9315020  25.0570490 110.5819310   1.2998550
  28.2242000 111.3321470  12.7696460  27.8113180 112.1575180  13.0236450
  27.4917950 110.7466510  12.5772820  19.0703410 110.8924580  11.4114170
  19.6218000 111.0019920  10.6367420  19.5846920 111.2662180  12.1269400
  17.0579420 113.0126350   5.1321780  16.9377020 113.7388440   4.5203050
  16.7480310 112.2429260   4.6549690  31.7498570 110.3838050  16.6518580
  31.1342840 110.8917720  16.1234040  31.4294990 109.4836380  16.5944520
  19.5243080 106.3561420   8.5145450  19.0811230 107.1370960   8.1829970
  20.0828070 106.6791310   9.2216390  23.8112890 109.2229940  14.1180770
  23.3492260 109.4312960  14.9300710  23.4091000 108.4089290  13.8151440
  28.8117400 110.4438890  15.2477430  27.9610990 110.1444640  15.5686500
  28.6519190 110.6880900  14.3361250  25.9067110 111.9440640  17.3476220
  26.2320520 111.1104390  17.0078450  26.6947440 112.4669160  17.4954550
  22.6401900 105.9772120   3.3951280  22.0156080 105.9731990   4.1204590
  22.5532020 105.1103080   2.9987250  21.5618980 106.9008750  10.3735050
  21.8591310 107.8071580  10.2927070  22.1104540 106.4127530   9.7594620
  19.3157300 111.4794990   6.2426700  19.0898220 111.2632160   7.1473320
  18.5349830 111.9123450   5.8972670  26.5455060 111.4858360   4.8417350
  25.9463950 112.2094160   4.6580970  27.0934670 111.4235140   4.0593800
  21.7556510 112.3780570  16.9086970  21.6600110 111.4375300  16.7587370
  22.5988490 112.5995640  16.5135040  25.1519930 110.1221900   6.8720630
  25.5449500 110.4394100   6.0589320  25.5136780 109.2433780   6.9865150
  16.8867050 108.7894240  15.0620750  16.4930440 109.6369450  15.2693530
  16.1985450 108.1520610  15.2529390  23.4612100 108.8729210  18.1317490
  22.7710420 108.6801410  18.7663580  24.2044400 109.1563850  18.6641790
  14.1884100 106.7122700   9.0950830  13.8997150 107.2825560   9.8075810
  14.9329860 106.2327150   9.4582060  25.7375070 112.7127650  10.9671410
  25.0056190 113.2214460  11.3161510  25.3399410 111.8957630  10.6660190
  22.1752460 109.3881850   9.3723900  22.1788520 108.9471800   8.5228440
  23.0703580 109.7099180   9.4795720  18.0254840 109.2708340   8.3318110
  17.6854890 109.7483570   9.0885160  17.2632160 108.8173460   7.9719210
  22.2372610 110.3893930   2.3630660  22.3585430 110.3480410   3.3116480
  21.8521120 111.2518080   2.2077390  26.2000980 108.1661330  10.3794350
  26.2173720 108.6169980  11.2236200  25.9516560 107.2666970  10.5927790
  29.6271730 105.5793510  16.2180730  29.9517500 104.8483170  16.7438710
  29.6628240 105.2607150  15.3161720  15.3400920 108.1927320   7.2482780
  15.0547840 107.8282990   8.0861400  15.2779780 107.4607780   6.6345920
  20.2659800 112.4892270  13.4373520  19.9616870 113.3684250  13.6623880
  21.2206260 112.5492060  13.4730960  25.0139510 107.0856580   3.9696150
  24.2004120 106.5869750   3.8941460  24.8201460 107.9254830   3.5532500
  27.7287900 111.4576230   2.2658310  28.6167520 111.7693460   2.0909650
  27.6992990 110.5848480   1.8738890  17.8978170 105.0597130   5.8010280
  17.7692800 105.0515030   6.7495200  17.0740190 105.3980220   5.4501290
  14.8972100 106.8188250  15.2616980  14.1830620 107.0185170  15.8669590
  15.3167140 106.0427820  15.6331780  26.3910880 109.3110560  13.0118430
  26.7591700 108.4905770  13.3398000  25.5309080 109.3712450  13.4274080
  29.7572910 108.2667500   3.8205990  29.1286070 108.3713170   3.1064220
  29.2624830 108.4864280   4.6099870  21.7256940 110.5453450   5.2363870
  21.0173090 111.0139790   5.6777480  22.0101420 109.8875460   5.8709060
  23.3512870 111.9650150  13.2356400  23.8498120 112.4395970  13.9008250
  23.4935820 111.0413670  13.4426430  25.7572370 107.2704110   6.6759660
  25.6340150 107.2890240   5.7269170  26.7056930 107.3183050   6.7958060
  19.9291960 108.8538530   2.6114580  20.7782490 109.2908680   2.5454770
  19.5623230 109.1658790   3.4386640  30.5579730 108.1818110  14.0784790
  30.0553330 108.9223510  14.4178600  31.3736390 108.5702110  13.7621580
  28.8501740 113.4251290   7.5246150  27.9091880 113.4401520   7.6993840
  29.1645810 112.6387250   7.9706450  17.5230140 112.5395960   1.7683000
  17.6033730 111.5923470   1.8800400  18.4149890 112.8702840   1.8743660
  17.0824020 112.5040470  17.8989240  17.1229360 112.2054340  18.8074470
  17.9369520 112.9048080  17.7396760  19.0229830 111.0832570  15.8663730
  18.4926290 110.5923520  15.2387070  19.6917900 111.5116770  15.3321660
  28.3930060 112.8898190  17.6344070  28.9750830 112.1350510  17.5464550
  28.5691830 113.4205630  16.8575550  19.5102130 108.0494940  15.9461020
  19.4159000 107.4315690  15.2211890  18.9299520 108.7761230  15.7190930
  22.2763570 106.6068180  12.9788410  21.8280870 106.6292440  12.1333960
  21.6428770 106.2087200  13.5758710  25.0187020 113.2338690  14.9838690
  25.1383230 112.6379830  15.7233530  25.8781020 113.2708380  14.5639990
  21.7855790 109.7760040  16.2414510  22.3755480 109.4675890  16.9292330
  20.9676030 109.3039790  16.3974410  26.6049220 109.3925850  16.4747530
  25.9164740 108.7307390  16.4097520  27.3255240 108.9464120  16.9195990
  27.2349620 105.9877480   2.5337790  27.5151910 105.1445380   2.8897210
  26.4615350 106.2200590   3.0476540  15.1134680 113.7492140   7.3749360
  14.4583520 113.4803780   6.7309060  15.9512630 113.6396620   6.9251340
  31.5614850 113.4557570   5.2943650  31.1858450 112.6885500   4.8624940
  30.8317970 113.8380270   5.7818580  30.9514470 112.6029090  14.9283170
  30.7200560 112.3741840  14.0281120  31.2119020 113.5228640  14.8828060
  15.7026610 111.0453800  15.8211120  14.8082660 111.0120560  16.1604830
  16.2424160 111.2440590  16.5862370  29.3902540 107.8285520  17.7062870
  30.2672720 107.8368920  18.0896870  29.4023380 107.0916360  17.0955220
  14.3272760 110.9591070   3.3174690  13.4236840 111.2221270   3.1426350
  14.8113380 111.2302240   2.5374650  30.8365810 111.6815060   8.5950890
  31.3603290 111.1877710   7.9641060  31.4225230 111.8165420   9.3398460
  31.0155530 111.7654930  12.1170440  30.0658240 111.7318470  12.2315430
  31.1968540 112.6755040  11.8820210  30.3265780 110.9388410   4.5343300
  30.8224900 110.7059280   5.3192180  30.1281850 110.1000250   4.1180940
  16.2066320 105.3202130  10.1694340  16.8542510 104.7699510   9.7289500
  16.6268160 105.5745280  10.9910150  31.7552940 109.5749360   7.0680980
  31.6452220 109.4205400   8.0063250  32.5160530 109.0470300   6.8256390
  30.1018660 105.5143490  13.5263980  30.7390880 106.1277630  13.8923170
  30.2493550 105.5504150  12.5813210  32.7181700 108.1767940   2.9343830
  31.9233200 108.1113060   3.4636740  32.9224980 109.1118580   2.9229180
  15.9598320 105.4757800  12.9119660  15.6113140 105.9321620  13.6777840
  15.6286020 104.5814930  12.9942090  23.4723140 106.6669680  16.4339080
  23.4112030 107.2591510  17.1834490  24.4123520 106.5595640  16.2889340
  26.1097700 106.3239740  16.0731370  26.7238110 106.6419030  15.4112450
  26.6547260 105.8388330  16.6927230  16.6318960 105.0034000  16.1870430
  17.1801950 104.8222050  15.4236540  16.6974270 104.2128110  16.7226740
  26.8505740 104.8871880  12.4000660  25.9765580 105.2206990  12.1973590
  26.7416490 104.4145060  13.2252530  27.7577720 107.0942750  13.7842380
  27.4291080 106.2794510  13.4044110  28.7060020 107.0512560  13.6608070
  24.5980560 105.8041720  11.3393570  23.8152350 106.2787220  11.6190330
  24.3043490 104.8996550  11.2306750  29.1501630 106.5064820   9.3842660
  29.5909720 106.4509920   8.5364260  28.8809220 107.4222830   9.4552840
  31.0140200 106.1380060   7.3951480  30.9528600 105.1941280   7.2482500
  31.7932230 106.2460150   7.9404940  15.9420970 106.1089200   3.8607290
  16.7000330 106.2218080   3.2871320  15.4798140 106.9458400   3.8150720
  22.4834780 108.2228470   6.8509600  21.6709290 107.8485360   6.5105480
  22.9876420 107.4673550   7.1530790  26.9859760 104.8870920   8.0892670
  27.5889130 105.4591130   8.5641190  26.2452750 105.4510360   7.8666570
  30.1294360 105.2892480   3.3632950  30.3244990 106.1875930   3.6300380
  29.3424230 105.0579560   3.8565900  18.3146120 106.6353250   2.4009260
  18.8438880 105.8483050   2.2717210  18.9474440 107.3144440   2.6344790
  20.5083960 106.3728390   5.4554650  19.8786700 105.6715700   5.6224780
  19.9689100 107.1332520   5.2387810  20.6339520 105.6512370  17.8907140
  20.3523790 106.1545970  17.1267960  21.0159220 104.8534120  17.5249270
  27.2354980 105.0665950  18.4687610  27.1220430 105.3860560  19.3639130
  28.0524720 105.4678460  18.1724890  26.1413130  94.3114930 101.4783290
  26.0607180  93.3969540 101.2075000  25.7277550  94.8082000 100.7723000
  24.2731170  96.0893950 103.3592560  23.4973270  95.6094390 103.6491130
  24.9244100  95.4099600 103.1848720  18.2897000  96.4013760 104.2368320
  17.4581880  96.1462470 104.6364830  18.8977980  96.4724530 104.9726240
  28.2938600 100.4954140 102.1391690  27.8320130  99.7241380 102.4678860
  29.1064150 100.5220210 102.6444140  18.2698260 100.4353850 104.4326340
  18.5726300  99.5451590 104.2536560  19.0141850 100.9924070 104.2048590
  16.6988950  91.3615650  98.0210710  15.8105650  91.7031620  97.9190590
  16.9830140  91.1615970  97.1291540  14.6621960  93.9621300 103.9050410
  15.2338070  93.1943500 103.9054050  14.6623500  94.2610060 102.9957020
  24.5201910 102.7812150 101.7595680  23.9013350 103.2369650 101.1890120
  25.3753690 102.9363610 101.3585380  23.7140160  98.7651140 103.3662720
  23.6448440  97.8241080 103.2051850  24.4760020  98.8552550 103.9385290
  15.9046830  89.3705660 105.6919340  15.7249670  88.4731410 105.9722100
  15.5026910  89.9177530 106.3666290  24.7445330  91.5721520 103.5931650
  25.1210150  90.6993400 103.4805320  24.6464840  91.9080220 102.7022090
  18.8750340  89.9447150  99.0549090  18.9817090  90.8450880  99.3617850
  17.9642700  89.8965120  98.7643740  28.5269450  89.0671960 100.5259990
  29.3479070  88.5768530 100.5685470  28.5603530  89.6569620 101.2791830
  16.5233500  91.8666160 104.3001680  17.2043610  92.1304530 104.9189080
  16.2081550  91.0267030 104.6339690  20.7158070  92.9133520 103.3874270
  21.2236290  93.4114490 104.0279290  21.2471310  92.1368720 103.2113630
  32.8169000  91.0838710 107.0903620  32.1121170  91.4720420 106.5718730
  33.0826920  91.7789000 107.6924550  18.9994170  87.5532080 107.6537690
  19.0012610  88.0704470 106.8483590  18.1698480  87.0762260 107.6307620
  25.3865260  97.6651390  99.1527590  24.7682530  98.1300840  98.5890310
  25.8988510  98.3578870  99.5697100  20.2497020  97.1927260 105.8311190
  19.9166400  97.8196180 106.4732260  20.4263700  97.7189140 105.0512860
  28.7630930  91.0072340 103.2987530  28.0586500  91.2957230 103.8790640
  29.1243090  91.8172450 102.9387090  18.6809500  89.2642040 105.6608140
  19.0226310  90.1084090 105.3662010  17.7425310  89.4125780 105.7773480
  19.4616120  99.1608060 107.6460370  20.0790120  99.8359140 107.3644820
  18.6009240  99.5696040 107.5547870  14.7548460  98.3507920  96.5267220
  14.3776440  98.8395020  95.7952120  15.0121530  99.0233200  97.1573750
  30.3793710 100.6247470 105.5615010  29.6957230 101.2946580 105.5531680
  30.9188000 100.8228120 104.7959870  31.8317850  90.4527130 103.6896740
  30.8842760  90.4866110 103.8212170  32.1567840  91.2666080 104.0746100
  22.3637390  86.7524310 101.9852730  22.6712370  86.1971200 101.2688230
  21.4338090  86.8868770 101.8025720  27.9152450 102.4691600 104.2760190
  27.9279610 102.0653890 103.4082450  27.3627670 103.2438890 104.1721620
  29.2097870  99.1907820  99.3650360  29.0994200  98.2482150  99.4899780
  29.2066120  99.5523460 100.2513120  27.3137890  97.3721440 105.6042800
  27.7306680  97.1581550 104.7696260  28.0377710  97.6294230 106.1751420
  24.7518150  94.8173140  98.7212850  23.8247430  94.7510520  98.9501320
  24.9042970  95.7553270  98.6068090  24.7387230  91.0890140  95.7180010
  23.7990900  91.2504100  95.8032470  25.0570490  91.8075820  95.1716000
  31.2599990  95.7708660 105.6959040  30.4318620  95.8401750 105.2209170
  31.8550470  96.3562970 105.2274870  28.7815440  96.3793440  99.2248100
  28.1627860  96.0412990  98.5774400  28.7639890  95.7353200  99.9327290
  28.2242000  92.5577980 106.6413910  27.8113180  93.3831690 106.8953900
  27.4917950  91.9723020 106.4490270  20.3574790  95.3437880 101.5032580
  19.9531790  94.6315130 101.0078480  20.4437910  94.9991120 102.3920620
  20.8256490  99.0305440 103.6671790  20.5284780  98.4250910 102.9879570
  21.7756310  99.0682750 103.5561150  19.0703410  92.1181090 105.2831620
  19.6218000  92.2276430 104.5084870  19.5846920  92.4918690 105.9986850
  28.9142100 102.6037310 107.3294890  28.4372660 103.4109500 107.1367500
  28.2303890 101.9515640 107.4821100  19.9174920  98.7687130 110.3179590
  19.0203450  98.9927100 110.5652990  19.9427790  98.8922070 109.3690990
  26.9580140  95.6180250  96.2320850  27.3973420  94.7802680  96.0858670
  27.6708560  96.2509650  96.3184990  18.7446140  95.6400450 108.8936960
  18.6053910  96.5123250 109.2624360  17.8627500  95.2973260 108.7484900
  25.0675520 100.5576320 100.2002090  25.5071430 101.3000650  99.7857480
  25.0062410 100.8002890 101.1241050  30.5397280  86.8723060  94.5461890
  30.2269940  86.9649890  95.4460960  31.3009750  87.4504090  94.4959320
  17.0579420  94.2382860  99.0039230  16.9377020  94.9644950  98.3920500
  16.7480310  93.4685770  98.5267140  14.6964790  97.4098000 104.8107870
  14.7745210  97.5446770 103.8663590  15.3106470  96.7013890 105.0035990
  15.9412420  99.1098190 101.2214050  15.5340500  99.2512780 100.3667650
  16.8325430  98.8258350 101.0185260  31.8974560  99.5562100 109.5586290
  32.0237620  99.3173980 108.6403470  31.9395940  98.7246640 110.0308370
  25.7591300 103.2590100 108.1281100  26.2735970 103.1698110 108.9303530
  24.9160380 103.6049800 108.4209010  27.7345700 103.5445440  97.5565100
  27.5746840 103.2548380  98.4546930  27.5692410 102.7685570  97.0210330
  20.2134080 103.3243970  99.3336720  20.0376560 102.4079510  99.1204520
  19.3589820 103.6831260  99.5734520  27.4371830 101.0533000  96.1163100
  26.7436990 101.0510290  95.4565380  28.1794690 100.6292320  95.6857270
  27.0021760 102.6795710 100.1911590  27.4578710 101.8985090 100.5050210
  27.3414280 103.3902530 100.7352770  31.7498570  91.6094560 110.5236030
  31.1342840  92.1174230 109.9951490  31.4294990  90.7092890 110.4661970
  14.7524310  98.4512170 107.3502330  14.9155350  97.9817530 106.5321700
  15.2176760  97.9435730 108.0151170  19.5243080  87.5817930 102.3862900
  19.0811230  88.3627470 102.0547420  20.0828070  87.9047820 103.0933840
  23.8112890  90.4486450 107.9898220  23.3492260  90.6569470 108.8018160
  23.4091000  89.6345800 107.6868890  28.8117400  91.6695400 109.1194880
  27.9610990  91.3701150 109.4403950  28.6519190  91.9137410 108.2078700
  22.6401900  87.2028630  97.2668730  22.0156080  87.1988500  97.9922040
  22.5532020  86.3359590  96.8704700  21.5618980  88.1265260 104.2452500
  21.8591310  89.0328090 104.1644520  22.1104540  87.6384040 103.6312070
  19.3157300  92.7051500 100.1144150  19.0898220  92.4888670 101.0190770
  18.5349830  93.1379960  99.7690120  26.5455060  92.7114870  98.7134800
  25.9463950  93.4350670  98.5298420  27.0934670  92.6491650  97.9311250
  21.7556510  93.6037080 110.7804420  21.6600110  92.6631810 110.6304820
  22.5988490  93.8252150 110.3852490  25.1519930  91.3478410 100.7438080
  25.5449500  91.6650610  99.9306770  25.5136780  90.4690290 100.8582600
  16.8867050  90.0150750 108.9338200  16.4930440  90.8625960 109.1410980
  16.1985450  89.3777120 109.1246840  14.1884100  87.9379210 102.9668280
  13.8997150  88.5082070 103.6793260  14.9329860  87.4583660 103.3299510
  14.3754330  91.8799330  94.1771000  14.2929000  92.8230090  94.3185990
  14.0237390  91.7374240  93.2983350  25.7375070  93.9384160 104.8388860
  25.0056190  94.4470970 105.1878960  25.3399410  93.1214140 104.5377640
  22.1752460  90.6138360 103.2441350  22.1788520  90.1728310 102.3945890
  23.0703580  90.9355690 103.3513170  18.0254840  90.4964850 102.2035560
  17.6854890  90.9740080 102.9602610  17.2632160  90.0429970 101.8436660
  22.2372610  91.6150440  96.2348110  22.3585430  91.5736920  97.1833930
  21.8521120  92.4774590  96.0794840  26.2000980  89.3917840 104.2511800
  26.2173720  89.8426490 105.0953650  25.9516560  88.4923480 104.4645240
  21.2494110  93.9251580  95.6331410  20.6811010  93.4769830  95.0067320
  21.9583110  94.2844360  95.0996560  29.6271730  86.8050020 110.0898180
  29.9517500  86.0739680 110.6156160  29.6628240  86.4863660 109.1879170
  16.3263290  97.8263600 109.5098140  15.9418080  97.1857270 110.1081100
  16.6375480  98.5299720 110.0792870  22.4760430  94.6740140 104.9906760
  22.8430560  94.1998710 105.7368100  22.2865490  95.5481710 105.3315100
  15.3400920  89.4183830 101.1200230  15.0547840  89.0539500 101.9578850
  15.2779780  88.6864290 100.5063370  20.2659800  93.7148780 107.3090970
  19.9616870  94.5940760 107.5341330  21.2206260  93.7748570 107.3448410
  18.7941590  97.9209770  97.9057820  18.0203850  97.3807390  97.7456540
  19.5236220  97.4016380  97.5675580  29.5529570  96.9175130 103.6984210
  30.2728690  97.4130420 103.3080320  29.3511390  96.2393020 103.0538080
  25.0139510  88.3113090  97.8413600  24.2004120  87.8126260  97.7658910
  24.8201460  89.1511340  97.4249950  24.9348370  96.9884190 109.5853210
  24.8685680  96.0679860 109.3310800  24.3053510  97.0859630 110.2997850
  27.7287900  92.6832740  96.1375760  28.6167520  92.9949970  95.9627100
  27.6992990  91.8104990  95.7456340  18.8378990  97.5890150 101.5436630
  19.3557660  96.7858410 101.4893520  18.3863010  97.5269290 102.3853460
  23.7248490  98.8556430  96.8163930  24.0664190  99.5998660  96.3207250
  22.8961200  99.1687550  97.1788760  16.3223530  94.5551520 108.4562330
  15.9638470  95.2205370 109.0435670  16.0278090  93.7235070 108.8274950
  24.8665100  99.8104760 109.3357010  24.8809640  98.8785720 109.1175920
  24.1590200  99.8964520 109.9746780  30.0002170  93.9944580  95.6055620
  29.9165890  94.4258800  94.7552060  30.7196360  94.4542930  96.0382440
  31.0776310  96.4512100 108.6825590  30.3524500  97.0440880 108.4854980
  31.6051770  96.4435640 107.8838960  31.0289420 100.8486840  98.3337750
  30.3865580 100.1942460  98.6081470  30.6420080 101.2541930  97.5578420
  26.6075900  98.1772270 102.1809440  26.9599720  97.5800400 101.5210810
  25.7238230  97.8516500 102.3517690  22.6939180  98.9369960  99.5879850
  23.3810310  99.4839170  99.9687440  21.9071600  99.4810690  99.6229460
  14.8331580  94.5542780  95.0796930  15.7026430  94.8367580  95.3632850
  14.3421900  95.3678650  94.9645740  21.9966390  95.9415990  99.2005210
  22.4529170  96.7521240  99.4265400  21.6454600  95.6239130 100.0323700
  24.2999000 101.4522330 106.4297510  24.9441220 101.6581710 107.1070930
  24.6628440 100.6910730 105.9768360  17.8978170  86.2853640  99.6727730
  17.7692800  86.2771540 100.6212650  17.0740190  86.6236730  99.3218740
  25.5731080  99.4554680 105.1474960  26.2153310  98.7547840 105.2607130
  26.0980430 100.2353120 104.9671850  29.4186800  99.7403300  94.8714100
  29.1924380  99.0233740  95.4638740  29.0283000  99.4915740  94.0335850
  27.3468700 100.2549580 108.3511020  27.6824940 100.8416270 109.0288940
  26.4269040 100.1242290 108.5808810  15.2002830 103.7670160  95.6458560
  15.5600470 104.3659500  94.9915830  15.0595170 104.3130050  96.4193590
  14.8972100  88.0444760 109.1334430  14.1830620  88.2441680 109.7387040
  15.3167140  87.2684330 109.5049230  29.0003050  97.6575240  96.5328260
  28.7124750  98.1187930  97.3206140  29.7955220  97.1973010  96.8012480
  15.1844690 102.0325020 110.1200960  15.2935810 101.0919760 109.9796350
  14.5325250 102.2979770 109.4714690  21.2171450 101.1501360  96.4632230
  21.2081550 101.8831050  95.8476740  20.2969810 100.9032940  96.5559190
  16.8178090  96.3716250  97.2078990  16.2106040  97.1115150  97.2174290
  17.2927440  96.4615610  96.3817190  26.3910880  90.5367070 106.8835880
  26.7591700  89.7162280 107.2115450  25.5309080  90.5968960 107.2991530
  29.7572910  89.4924010  97.6923440  29.1286070  89.5969680  96.9781670
  29.2624830  89.7120790  98.4817320  24.2031050 101.2129600  95.1257420
  24.3043030 101.0093590  94.1959400  23.3032790 100.9587880  95.3305200
  21.7256940  91.7709960  99.1081320  21.0173090  92.2396300  99.5494930
  22.0101420  91.1131970  99.7426510  23.3512870  93.1906660 107.1073850
  23.8498120  93.6652480 107.7725700  23.4935820  92.2670180 107.3143880
  25.7572370  88.4960620 100.5477110  25.6340150  88.5146750  99.5986620
  26.7056930  88.5439560 100.6675510  22.8449160 103.7315920  99.8205090
  23.0990660 103.6937310  98.8984460  21.8961640 103.6049250  99.8133340
  19.9291960  90.0795040  96.4832030  20.7782490  90.5165190  96.4172220
  19.5623230  90.3915300  97.3104090  30.5579730  89.4074620 107.9502240
  30.0553330  90.1480020 108.2896050  31.3736390  89.7958620 107.6339030
  28.8501740  94.6507800 101.3963600  27.9091880  94.6658030 101.5711290
  29.1645810  93.8643760 101.8423900  18.8283380  96.3327400  94.9567560
  19.5946650  96.2208760  95.5192990  18.9058070  95.6365370  94.3044330
  17.5230140  93.7652470  95.6400450  17.6033730  92.8179980  95.7517850
  18.4149890  94.0959350  95.7461110  30.8527320 101.8216650 103.0717860
  30.9774740 102.6447820 103.5441670  31.7192880 101.6107380 102.7242010
  18.3244850 103.9147860 102.7434990  19.0607330 103.3663320 103.0143560
  18.7085770 104.7803870 102.6040980  15.2090330  99.9821430  98.6176500
  14.2830110 100.2242570  98.6081910  15.6746760 100.8095690  98.4961250
  21.4347160 103.0878170  94.5660560  22.2275770 103.3767000  94.1142350
  20.9151510 102.6570340  93.8873040  30.4877330 102.3148300  95.9897300
  30.2018840 101.9013440  95.1751480  30.2896880 103.2436010  95.8697820
  21.9524560  98.3081580  94.4302910  21.8475200  97.6933930  95.1564290
  21.7848780  97.7847470  93.6465920  22.1038880  96.9938380 110.4092140
  21.3384550  97.5623380 110.3246810  22.2854840  96.7014590 109.5160370
  25.1927290  97.3701610  95.0344900  24.6437390  97.8170910  95.6787640
  25.8146550  96.8650860  95.5582570  29.2462230  98.7243710 110.9667160
  29.9871700  99.0619470 110.4634620  28.4834910  98.8935770 110.4136930
  20.8602410  96.3292530  96.9310200  21.2818830  96.1632400  97.7741590
  20.9853250  95.5192760  96.4365340  19.0229830  92.3089080 109.7381180
  18.4926290  91.8180030 109.1104520  19.6917900  92.7373280 109.2039110
  23.3730050  95.3530140  94.1787300  23.8935710  94.6379160  93.8128450
  24.0198450  95.9916010  94.4787810  27.9207890  96.7758540 109.5022370
  28.3348910  96.9303620 110.3512790  26.9858890  96.9013760 109.6648150
  19.5102130  89.2751450 109.8178470  19.4159000  88.6572200 109.0929340
  18.9299520  90.0017740 109.5908380  22.2763570  87.8324690 106.8505860
  21.8280870  87.8548950 106.0051410  21.6428770  87.4343710 107.4476160
  22.6823120  96.7279020 107.4718300  23.1011230  97.5711750 107.2994540
  21.7631750  96.8651060 107.2425080  25.0187020  94.4595200 108.8556140
  25.1383230  93.8636340 109.5950980  25.8781020  94.4964890 108.4357440
  27.3574920  95.0132390 107.4318650  26.8310140  95.5375010 106.8283790
  27.7006260  95.6459780 108.0628380  19.7561310  92.4025760  93.8768360
  19.5550370  91.5393120  94.2381700  19.5853360  92.3159120  92.9389960
  20.5330540 103.0332030 108.5876030  19.9951630 103.7578090 108.2684730
  20.7864500 102.5562370 107.7973370  21.7855790  91.0016550 110.1131960
  22.3755480  90.6932400 110.8009780  20.9676030  90.5296300 110.2691860
  26.6049220  90.6182360 110.3464980  25.9164740  89.9563900 110.2814970
  27.3255240  90.1720630 110.7913440  27.2349620  87.2133990  96.4055240
  27.5151910  86.3701890  96.7614660  26.4615350  87.4457100  96.9193990
  18.5544110  89.5026380  93.8646240  18.8570010  89.5093810  92.9565390
  19.2938700  89.1524240  94.3613900  23.3892750 104.2683240 108.8462680
  23.3151450 105.1718380 109.1535050  22.4871590 103.9495140 108.8184750
  21.7729040  88.4461000  94.8502440  21.4251040  87.7684990  94.2704890
  21.9741810  87.9850510  95.6645830  23.9378080 103.4341750  96.4689040
  24.8328870 103.7726720  96.4907800  23.9695710 102.7121160  95.8413320
  17.5774240  98.8068800  94.6976040  18.0149110  99.3498470  95.3533620
  18.0621970  97.9815750  94.7072380  14.7920040 101.5957830 102.1496300
  15.1223050 100.7278890 101.9174940  15.2211040 101.8016350 102.9801260
  19.3881960  99.9266840  99.8098270  19.0877500  99.8031810 100.7102180
  19.2819450  99.0675430  99.4014000  15.2810250 102.4628420 104.8877930
  14.8441240 102.6429220 105.7202080  15.8487930 103.2203040 104.7459650
  30.9172430 101.9645420 109.1755240  30.3174420 102.0237980 108.4319160
  31.0466330 101.0250400 109.3052090  32.1573880  99.7063240  94.5124950
  31.3266840  99.7739890  94.9832180  32.3345710 100.5967360  94.2091810
  31.6130340  96.4510720  97.0159150  32.3749250  97.0207370  97.1218840
  31.6284710  95.8837920  97.7867460  15.1134680  94.9748650 101.2466810
  14.4583520  94.7060290 100.6026510  15.9512630  94.8653130 100.7968790
  32.6190310  97.3060820 101.8601080  32.9899140  96.5228140 101.4537050
  33.2592240  97.9949920 101.6818380  29.6024070  98.6897400 107.2731400
  28.7883910  99.1194560 107.5357190  30.0098270  99.3015810 106.6600450
  31.6649510  96.7445090  94.1731670  31.9398350  97.6523970  94.0450890
  31.4760250  96.6807620  95.1093660  28.0625120  89.7689940  95.4685300
  28.4810000  89.5820920  94.6281960  27.7561180  88.9168990  95.7788230
  31.5614850  94.6814080  99.1661100  31.1858450  93.9142010  98.7342390
  30.8317970  95.0636780  99.6536030  16.1510610  95.3601220 105.7870150
  16.5183650  95.2728620 106.6666170  15.5821430  94.5967770 105.6877010
  30.9514470  93.8285600 108.8000620  30.7200560  93.5998350 107.8998570
  31.2119020  94.7485150 108.7545510  15.7026610  92.2710310 109.6928570
  14.8082660  92.2377070 110.0322280  16.2424160  92.4697100 110.4579820
  14.3272760  92.1847580  97.1892140  13.4236840  92.4477780  97.0143800
  14.8113380  92.4558750  96.4092100  30.8365810  92.9071570 102.4668340
  31.3603290  92.4134220 101.8358510  31.4225230  93.0421930 103.2115910
  31.0155530  92.9911440 105.9887890  30.0658240  92.9574980 106.1032880
  31.1968540  93.9011550 105.7537660  16.8699970  91.2413120  95.0986520
  17.5791670  90.8196340  94.6133800  16.1539910  91.3088350  94.4669870
  16.5174130  87.2952450  94.1389170  17.2402260  87.8361390  94.4570390
  16.7898650  87.0215870  93.2630710  30.3265780  92.1644920  98.4060750
  30.8224900  91.9315790  99.1909630  30.1281850  91.3256760  97.9898390
  16.2066320  86.5458640 104.0411790  16.8542510  85.9956020 103.6006950
  16.6268160  86.8001790 104.8627600  31.7552940  90.8005870 100.9398430
  31.6452220  90.6461910 101.8780700  32.5160530  90.2726810 100.6973840
  30.1018660  86.7400000 107.3981430  30.7390880  87.3534140 107.7640620
  30.2493550  86.7760660 106.4530660  32.6443210  88.6313790  94.1804570
  33.5692520  88.4994970  93.9722860  32.6219000  88.7106610  95.1341020
  32.7181700  89.4024450  96.8061280  31.9233200  89.3369570  97.3354190
  32.9224980  90.3375090  96.7946630  29.6600120 103.4416000 100.7999670
  30.2559190 103.1200570 100.1234090  29.9178270 102.9687820 101.5912940
  15.9598320  86.7014310 106.7837110  15.6113140  87.1578130 107.5495290
  15.6286020  85.8071440 106.8659540  21.2668720 101.4293500 106.5500020
  21.0260080 101.6968060 105.6630540  22.2071360 101.5999230 106.6050880
  26.1097700  87.5496250 109.9448820  26.7238110  87.8675540 109.2829900
  26.6547260  87.0644840 110.5644680  32.5272880 103.4487880 107.3510660
  32.0331160 103.8456750 106.6337790  31.9186170 102.8237090 107.7447940
  16.6318960  86.2290510 110.0587880  17.1801950  86.0478560 109.2953990
  16.6974270  85.4384620 110.5944190  17.4050720 102.8196160 108.0688080
  16.8111040 102.6880860 108.8078120  17.3974560 101.9834300 107.6030180
  26.8505740  86.1128390 106.2718110  25.9765580  86.4463500 106.0691040
  26.7416490  85.6401570 107.0969980  27.7577720  88.3199260 107.6559830
  27.4291080  87.5051020 107.2761560  28.7060020  88.2769070 107.5325520
  30.2112330 104.0911300 104.6297400  29.7515300 104.8427110 104.2555420
  29.5824790 103.3717770 104.5712200  17.0362950 100.1854540 107.0196120
  16.3097010  99.5659830 106.9522070  17.0972100 100.5795150 106.1494200
  20.6408050 102.3999540 103.8045530  21.1573070 101.7886900 103.2793790
  21.2905430 102.9028320 104.2956540  23.3803550 103.2908030 104.6314510
  23.6681360 103.0362330 103.7547520  23.8926770 102.7385390 105.2220080
  24.5980560  87.0298230 105.2111020  23.8152350  87.5043730 105.4907780
  24.3043490  86.1253060 105.1024200  29.1501630  87.7321330 103.2560110
  29.5909720  87.6766430 102.4081710  28.8809220  88.6479340 103.3270290
  31.0140200  87.3636570 101.2668930  30.9528600  86.4197790 101.1199950
  31.7932230  87.4716660 101.8122390  15.3192950 103.5028930 100.2292880
  15.1514990 102.8699610 100.9274770  14.4527460 103.7088330  99.8787070
  15.9420970  87.3345710  97.7324740  16.7000330  87.4474590  97.1588770
  15.4798140  88.1714910  97.6868170  22.4834780  89.4484980 100.7227050
  21.6709290  89.0741870 100.3822930  22.9876420  88.6930060 101.0248240
  26.9859760  86.1127430 101.9610120  27.5889130  86.6847640 102.4358640
  26.2452750  86.6766870 101.7384020  30.1294360  86.5148990  97.2350400
  30.3244990  87.4132440  97.5017830  29.3424230  86.2836070  97.7283350
  16.9255650 102.1962160  97.6743020  16.4003270 102.5770190  96.9704980
  16.8500230 102.8212930  98.3952730  18.3146120  87.8609760  96.2726710
  18.8438880  87.0739560  96.1434660  18.9474440  88.5400950  96.5062240
  20.5083960  87.5984900  99.3272100  19.8786700  86.8972210  99.4942230
  19.9689100  88.3589030  99.1105260  31.6820970 103.7549700  98.9956960
  31.8573160 103.0687440  98.3517880  30.9842540 104.2796750  98.6033630
  19.5248620 104.1444540  96.5492270  20.2567440 103.8603820  96.0016160
  19.7842290 103.9057820  97.4391650  18.6863410 100.2609270  96.5538600
  18.0572290 100.7294370  97.1024430  18.8011240  99.4158490  96.9884790
  26.1413130  94.3114930  82.7039800  26.0607180  93.3969540  82.4331510
  25.7277550  94.8082000  81.9979510  24.2731170  96.0893950  84.5849070
  23.4973270  95.6094390  84.8747640  24.9244100  95.4099600  84.4105230
  18.2897000  96.4013760  85.4624830  17.4581880  96.1462470  85.8621340
  18.8977980  96.4724530  86.1982750  28.2938600 100.4954140  83.3648200
  27.8320130  99.7241380  83.6935370  29.1064150 100.5220210  83.8700650
  18.2698260 100.4353850  85.6582850  18.5726300  99.5451590  85.4793070
  19.0141850 100.9924070  85.4305100  16.6988950  91.3615650  79.2467220
  15.8105650  91.7031620  79.1447100  16.9830140  91.1615970  78.3548050
  14.6621960  93.9621300  85.1306920  15.2338070  93.1943500  85.1310560
  14.6623500  94.2610060  84.2213530  24.5201910 102.7812150  82.9852190
  23.9013350 103.2369650  82.4146630  25.3753690 102.9363610  82.5841890
  23.7140160  98.7651140  84.5919230  23.6448440  97.8241080  84.4308360
  24.4760020  98.8552550  85.1641800  15.9046830  89.3705660  86.9175850
  15.7249670  88.4731410  87.1978610  15.5026910  89.9177530  87.5922800
  24.7445330  91.5721520  84.8188160  25.1210150  90.6993400  84.7061830
  24.6464840  91.9080220  83.9278600  18.8750340  89.9447150  80.2805600
  18.9817090  90.8450880  80.5874360  17.9642700  89.8965120  79.9900250
  28.5269450  89.0671960  81.7516500  29.3479070  88.5768530  81.7941980
  28.5603530  89.6569620  82.5048340  16.5233500  91.8666160  85.5258190
  17.2043610  92.1304530  86.1445590  16.2081550  91.0267030  85.8596200
  20.7158070  92.9133520  84.6130780  21.2236290  93.4114490  85.2535800
  21.2471310  92.1368720  84.4370140  32.8169000  91.0838710  88.3160130
  32.1121170  91.4720420  87.7975240  33.0826920  91.7789000  88.9181060
  18.9994170  87.5532080  88.8794200  19.0012610  88.0704470  88.0740100
  18.1698480  87.0762260  88.8564130  25.3865260  97.6651390  80.3784100
  24.7682530  98.1300840  79.8146820  25.8988510  98.3578870  80.7953610
  20.2497020  97.1927260  87.0567700  19.9166400  97.8196180  87.6988770
  20.4263700  97.7189140  86.2769370  28.7630930  91.0072340  84.5244040
  28.0586500  91.2957230  85.1047150  29.1243090  91.8172450  84.1643600
  18.6809500  89.2642040  86.8864650  19.0226310  90.1084090  86.5918520
  17.7425310  89.4125780  87.0029990  19.4616120  99.1608060  88.8716880
  20.0790120  99.8359140  88.5901330  18.6009240  99.5696040  88.7804380
  14.7548460  98.3507920  77.7523730  14.3776440  98.8395020  77.0208630
  15.0121530  99.0233200  78.3830260  30.3793710 100.6247470  86.7871520
  29.6957230 101.2946580  86.7788190  30.9188000 100.8228120  86.0216380
  31.8317850  90.4527130  84.9153250  30.8842760  90.4866110  85.0468680
  32.1567840  91.2666080  85.3002610  22.3637390  86.7524310  83.2109240
  22.6712370  86.1971200  82.4944740  21.4338090  86.8868770  83.0282230
  27.9152450 102.4691600  85.5016700  27.9279610 102.0653890  84.6338960
  27.3627670 103.2438890  85.3978130  29.2097870  99.1907820  80.5906870
  29.0994200  98.2482150  80.7156290  29.2066120  99.5523460  81.4769630
  27.3137890  97.3721440  86.8299310  27.7306680  97.1581550  85.9952770
  28.0377710  97.6294230  87.4007930  24.7518150  94.8173140  79.9469360
  23.8247430  94.7510520  80.1757830  24.9042970  95.7553270  79.8324600
  24.7387230  91.0890140  76.9436520  23.7990900  91.2504100  77.0288980
  25.0570490  91.8075820  76.3972510  31.2599990  95.7708660  86.9215550
  30.4318620  95.8401750  86.4465680  31.8550470  96.3562970  86.4531380
  28.7815440  96.3793440  80.4504610  28.1627860  96.0412990  79.8030910
  28.7639890  95.7353200  81.1583800  28.2242000  92.5577980  87.8670420
  27.8113180  93.3831690  88.1210410  27.4917950  91.9723020  87.6746780
  20.3574790  95.3437880  82.7289090  19.9531790  94.6315130  82.2334990
  20.4437910  94.9991120  83.6177130  20.8256490  99.0305440  84.8928300
  20.5284780  98.4250910  84.2136080  21.7756310  99.0682750  84.7817660
  19.0703410  92.1181090  86.5088130  19.6218000  92.2276430  85.7341380
  19.5846920  92.4918690  87.2243360  28.9142100 102.6037310  88.5551400
  28.4372660 103.4109500  88.3624010  28.2303890 101.9515640  88.7077610
  19.9174920  98.7687130  91.5436100  19.0203450  98.9927100  91.7909500
  19.9427790  98.8922070  90.5947500  26.9580140  95.6180250  77.4577360
  27.3973420  94.7802680  77.3115180  27.6708560  96.2509650  77.5441500
  18.7446140  95.6400450  90.1193470  18.6053910  96.5123250  90.4880870
  17.8627500  95.2973260  89.9741410  25.0675520 100.5576320  81.4258600
  25.5071430 101.3000650  81.0113990  25.0062410 100.8002890  82.3497560
  20.5426490 101.5822150  92.3278620  20.5141920 101.9865100  91.4607050
  20.3791460 100.6532510  92.1650220  30.5397280  86.8723060  75.7718400
  30.2269940  86.9649890  76.6717470  31.3009750  87.4504090  75.7215830
  17.0579420  94.2382860  80.2295740  16.9377020  94.9644950  79.6177010
  16.7480310  93.4685770  79.7523650  32.4941310 102.3649250  93.6242790
  32.9701030 102.8432140  94.3031870  33.1148470 102.2966740  92.8988290
  14.6964790  97.4098000  86.0364380  14.7745210  97.5446770  85.0920100
  15.3106470  96.7013890  86.2292500  15.9412420  99.1098190  82.4470560
  15.5340500  99.2512780  81.5924160  16.8325430  98.8258350  82.2441770
  31.8974560  99.5562100  90.7842800  32.0237620  99.3173980  89.8659980
  31.9395940  98.7246640  91.2564880  25.7591300 103.2590100  89.3537610
  26.2735970 103.1698110  90.1560040  24.9160380 103.6049800  89.6465520
  27.7345700 103.5445440  78.7821610  27.5746840 103.2548380  79.6803440
  27.5692410 102.7685570  78.2466840  20.2134080 103.3243970  80.5593230
  20.0376560 102.4079510  80.3461030  19.3589820 103.6831260  80.7991030
  27.4371830 101.0533000  77.3419610  26.7436990 101.0510290  76.6821890
  28.1794690 100.6292320  76.9113780  27.0021760 102.6795710  81.4168100
  27.4578710 101.8985090  81.7306720  27.3414280 103.3902530  81.9609280
  31.7498570  91.6094560  91.7492540  31.1342840  92.1174230  91.2208000
  31.4294990  90.7092890  91.6918480  14.7524310  98.4512170  88.5758840
  14.9155350  97.9817530  87.7578210  15.2176760  97.9435730  89.2407680
  19.5243080  87.5817930  83.6119410  19.0811230  88.3627470  83.2803930
  20.0828070  87.9047820  84.3190350  23.8112890  90.4486450  89.2154730
  23.3492260  90.6569470  90.0274670  23.4091000  89.6345800  88.9125400
  28.8117400  91.6695400  90.3451390  27.9610990  91.3701150  90.6660460
  28.6519190  91.9137410  89.4335210  25.9067110  93.1697150  92.4450180
  26.2320520  92.3360900  92.1052410  26.6947440  93.6925670  92.5928510
  22.6401900  87.2028630  78.4925240  22.0156080  87.1988500  79.2178550
  22.5532020  86.3359590  78.0961210  21.5618980  88.1265260  85.4709010
  21.8591310  89.0328090  85.3901030  22.1104540  87.6384040  84.8568580
  19.3157300  92.7051500  81.3400660  19.0898220  92.4888670  82.2447280
  18.5349830  93.1379960  80.9946630  26.5455060  92.7114870  79.9391310
  25.9463950  93.4350670  79.7554930  27.0934670  92.6491650  79.1567760
  21.7556510  93.6037080  92.0060930  21.6600110  92.6631810  91.8561330
  22.5988490  93.8252150  91.6109000  25.1519930  91.3478410  81.9694590
  25.5449500  91.6650610  81.1563280  25.5136780  90.4690290  82.0839110
  16.8867050  90.0150750  90.1594710  16.4930440  90.8625960  90.3667490
  16.1985450  89.3777120  90.3503350  23.4612100  90.0985720  93.2291450
  22.7710420  89.9057920  93.8637540  24.2044400  90.3820360  93.7615750
  14.1884100  87.9379210  84.1924790  13.8997150  88.5082070  84.9049770
  14.9329860  87.4583660  84.5556020  14.3754330  91.8799330  75.4027510
  14.2929000  92.8230090  75.5442500  14.0237390  91.7374240  74.5239860
  25.7375070  93.9384160  86.0645370  25.0056190  94.4470970  86.4135470
  25.3399410  93.1214140  85.7634150  22.1752460  90.6138360  84.4697860
  22.1788520  90.1728310  83.6202400  23.0703580  90.9355690  84.5769680
  18.0254840  90.4964850  83.4292070  17.6854890  90.9740080  84.1859120
  17.2632160  90.0429970  83.0693170  22.2372610  91.6150440  77.4604620
  22.3585430  91.5736920  78.4090440  21.8521120  92.4774590  77.3051350
  26.2000980  89.3917840  85.4768310  26.2173720  89.8426490  86.3210160
  25.9516560  88.4923480  85.6901750  21.2494110  93.9251580  76.8587920
  20.6811010  93.4769830  76.2323830  21.9583110  94.2844360  76.3253070
  29.6271730  86.8050020  91.3154690  29.9517500  86.0739680  91.8412670
  29.6628240  86.4863660  90.4135680  16.3263290  97.8263600  90.7354650
  15.9418080  97.1857270  91.3337610  16.6375480  98.5299720  91.3049380
  22.4760430  94.6740140  86.2163270  22.8430560  94.1998710  86.9624610
  22.2865490  95.5481710  86.5571610  15.3400920  89.4183830  82.3456740
  15.0547840  89.0539500  83.1835360  15.2779780  88.6864290  81.7319880
  20.2659800  93.7148780  88.5347480  19.9616870  94.5940760  88.7597840
  21.2206260  93.7748570  88.5704920  18.7941590  97.9209770  79.1314330
  18.0203850  97.3807390  78.9713050  19.5236220  97.4016380  78.7932090
  29.5529570  96.9175130  84.9240720  30.2728690  97.4130420  84.5336830
  29.3511390  96.2393020  84.2794590  25.0139510  88.3113090  79.0670110
  24.2004120  87.8126260  78.9915420  24.8201460  89.1511340  78.6506460
  24.9348370  96.9884190  90.8109720  24.8685680  96.0679860  90.5567310
  24.3053510  97.0859630  91.5254360  27.7287900  92.6832740  77.3632270
  28.6167520  92.9949970  77.1883610  27.6992990  91.8104990  76.9712850
  18.8378990  97.5890150  82.7693140  19.3557660  96.7858410  82.7150030
  18.3863010  97.5269290  83.6109970  23.7248490  98.8556430  78.0420440
  24.0664190  99.5998660  77.5463760  22.8961200  99.1687550  78.4045270
  16.3223530  94.5551520  89.6818840  15.9638470  95.2205370  90.2692180
  16.0278090  93.7235070  90.0531460  19.5236650  95.0135760  92.5658390
  19.2236790  95.1592940  91.6686210  20.2947890  94.4541050  92.4731780
  24.8665100  99.8104760  90.5613520  24.8809640  98.8785720  90.3432430
  24.1590200  99.8964520  91.2003290  30.0002170  93.9944580  76.8312130
  29.9165890  94.4258800  75.9808570  30.7196360  94.4542930  77.2638950
  31.0776310  96.4512100  89.9082100  30.3524500  97.0440880  89.7111490
  31.6051770  96.4435640  89.1095470  31.0289420 100.8486840  79.5594260
  30.3865580 100.1942460  79.8337980  30.6420080 101.2541930  78.7834930
  26.6075900  98.1772270  83.4065950  26.9599720  97.5800400  82.7467320
  25.7238230  97.8516500  83.5774200  22.6939180  98.9369960  80.8136360
  23.3810310  99.4839170  81.1943950  21.9071600  99.4810690  80.8485970
  14.8331580  94.5542780  76.3053440  15.7026430  94.8367580  76.5889360
  14.3421900  95.3678650  76.1902250  21.9966390  95.9415990  80.4261720
  22.4529170  96.7521240  80.6521910  21.6454600  95.6239130  81.2580210
  24.2999000 101.4522330  87.6554020  24.9441220 101.6581710  88.3327440
  24.6628440 100.6910730  87.2024870  17.8978170  86.2853640  80.8984240
  17.7692800  86.2771540  81.8469160  17.0740190  86.6236730  80.5475250
  25.5731080  99.4554680  86.3731470  26.2153310  98.7547840  86.4863640
  26.0980430 100.2353120  86.1928360  29.4186800  99.7403300  76.0970610
  29.1924380  99.0233740  76.6895250  29.0283000  99.4915740  75.2592360
  27.3468700 100.2549580  89.5767530  27.6824940 100.8416270  90.2545450
  26.4269040 100.1242290  89.8065320  15.2002830 103.7670160  76.8715070
  15.5600470 104.3659500  76.2172340  15.0595170 104.3130050  77.6450100
  14.8972100  88.0444760  90.3590940  14.1830620  88.2441680  90.9643550
  15.3167140  87.2684330  90.7305740  29.0003050  97.6575240  77.7584770
  28.7124750  98.1187930  78.5462650  29.7955220  97.1973010  78.0268990
  15.1844690 102.0325020  91.3457470  15.2935810 101.0919760  91.2052860
  14.5325250 102.2979770  90.6971200  23.1757280 100.3040910  92.7455590
  22.8554150  99.5850150  93.2901280  22.5015640 100.9795980  92.8191650
  21.2171450 101.1501360  77.6888740  21.2081550 101.8831050  77.0733250
  20.2969810 100.9032940  77.7815700  16.8178090  96.3716250  78.4335500
  16.2106040  97.1115150  78.4430800  17.2927440  96.4615610  77.6073700
  26.3910880  90.5367070  88.1092390  26.7591700  89.7162280  88.4371960
  25.5309080  90.5968960  88.5248040  29.7572910  89.4924010  78.9179950
  29.1286070  89.5969680  78.2038180  29.2624830  89.7120790  79.7073830
  24.2031050 101.2129600  76.3513930  24.3043030 101.0093590  75.4215910
  23.3032790 100.9587880  76.5561710  21.7256940  91.7709960  80.3337830
  21.0173090  92.2396300  80.7751440  22.0101420  91.1131970  80.9683020
  23.3512870  93.1906660  88.3330360  23.8498120  93.6652480  88.9982210
  23.4935820  92.2670180  88.5400390  25.7572370  88.4960620  81.7733620
  25.6340150  88.5146750  80.8243130  26.7056930  88.5439560  81.8932020
  22.8449160 103.7315920  81.0461600  23.0990660 103.6937310  80.1240970
  21.8961640 103.6049250  81.0389850  19.9291960  90.0795040  77.7088540
  20.7782490  90.5165190  77.6428730  19.5623230  90.3915300  78.5360600
  30.5579730  89.4074620  89.1758750  30.0553330  90.1480020  89.5152560
  31.3736390  89.7958620  88.8595540  28.8501740  94.6507800  82.6220110
  27.9091880  94.6658030  82.7967800  29.1645810  93.8643760  83.0680410
  18.8283380  96.3327400  76.1824070  19.5946650  96.2208760  76.7449500
  18.9058070  95.6365370  75.5300840  17.5230140  93.7652470  76.8656960
  17.6033730  92.8179980  76.9774360  18.4149890  94.0959350  76.9717620
  30.8527320 101.8216650  84.2974370  30.9774740 102.6447820  84.7698180
  31.7192880 101.6107380  83.9498520  18.3244850 103.9147860  83.9691500
  19.0607330 103.3663320  84.2400070  18.7085770 104.7803870  83.8297490
  15.2090330  99.9821430  79.8433010  14.2830110 100.2242570  79.8338420
  15.6746760 100.8095690  79.7217760  17.3303130 103.0993930  93.1577080
  18.1315860 103.4205980  93.5712480  16.8154950 102.7389510  93.8796990
  21.4347160 103.0878170  75.7917070  22.2275770 103.3767000  75.3398860
  20.9151510 102.6570340  75.1129550  26.1667760  99.2073800  93.1052490
  25.5605920  99.2305400  92.3648240  25.8621870  98.4756840  93.6419740
  27.5968130 102.9354090  91.7161900  28.5489880 102.8512110  91.6662140
  27.4496350 103.5995800  92.3895690  30.4877330 102.3148300  77.2153810
  30.2018840 101.9013440  76.4007990  30.2896880 103.2436010  77.0954330
  15.0500940  95.5867390  92.1013130  15.5539960  95.0074670  92.6729360
  14.3108360  95.8707620  92.6389500  21.9524560  98.3081580  75.6559420
  21.8475200  97.6933930  76.3820800  21.7848780  97.7847470  74.8722430
  22.1038880  96.9938380  91.6348650  21.3384550  97.5623380  91.5503320
  22.2854840  96.7014590  90.7416880  25.1927290  97.3701610  76.2601410
  24.6437390  97.8170910  76.9044150  25.8146550  96.8650860  76.7839080
  29.2462230  98.7243710  92.1923670  29.9871700  99.0619470  91.6891130
  28.4834910  98.8935770  91.6393440  17.0824020  93.7296980  92.9963200
  17.1229360  93.4310850  93.9048430  17.9369520  94.1304590  92.8370720
  20.8602410  96.3292530  78.1566710  21.2818830  96.1632400  78.9998100
  20.9853250  95.5192760  77.6621850  19.0229830  92.3089080  90.9637690
  18.4926290  91.8180030  90.3361030  19.6917900  92.7373280  90.4295620
  23.3730050  95.3530140  75.4043810  23.8935710  94.6379160  75.0384960
  24.0198450  95.9916010  75.7044320  27.9207890  96.7758540  90.7278880
  28.3348910  96.9303620  91.5769300  26.9858890  96.9013760  90.8904660
  28.3930060  94.1154700  92.7318030  28.9750830  93.3607020  92.6438510
  28.5691830  94.6462140  91.9549510  19.5102130  89.2751450  91.0434980
  19.4159000  88.6572200  90.3185850  18.9299520  90.0017740  90.8164890
  22.2763570  87.8324690  88.0762370  21.8280870  87.8548950  87.2307920
  21.6428770  87.4343710  88.6732670  22.6823120  96.7279020  88.6974810
  23.1011230  97.5711750  88.5251050  21.7631750  96.8651060  88.4681590
  25.0187020  94.4595200  90.0812650  25.1383230  93.8636340  90.8207490
  25.8781020  94.4964890  89.6613950  27.3574920  95.0132390  88.6575160
  26.8310140  95.5375010  88.0540300  27.7006260  95.6459780  89.2884890
  19.7561310  92.4025760  75.1024870  19.5550370  91.5393120  75.4638210
  19.5853360  92.3159120  74.1646470  20.5330540 103.0332030  89.8132540
  19.9951630 103.7578090  89.4941240  20.7864500 102.5562370  89.0229880
  21.7855790  91.0016550  91.3388470  22.3755480  90.6932400  92.0266290
  20.9676030  90.5296300  91.4948370  26.6049220  90.6182360  91.5721490
  25.9164740  89.9563900  91.5071480  27.3255240  90.1720630  92.0169950
  27.2349620  87.2133990  77.6311750  27.5151910  86.3701890  77.9871170
  26.4615350  87.4457100  78.1450500  18.5544110  89.5026380  75.0902750
  18.8570010  89.5093810  74.1821900  19.2938700  89.1524240  75.5870410
  23.3892750 104.2683240  90.0719190  23.3151450 105.1718380  90.3791560
  22.4871590 103.9495140  90.0441260  21.7729040  88.4461000  76.0758950
  21.4251040  87.7684990  75.4961400  21.9741810  87.9850510  76.8902340
  23.9378080 103.4341750  77.6945550  24.8328870 103.7726720  77.7164310
  23.9695710 102.7121160  77.0669830  17.5774240  98.8068800  75.9232550
  18.0149110  99.3498470  76.5790130  18.0621970  97.9815750  75.9328890
  14.7920040 101.5957830  83.3752810  15.1223050 100.7278890  83.1431450
  15.2211040 101.8016350  84.2057770  19.3881960  99.9266840  81.0354780
  19.0877500  99.8031810  81.9358690  19.2819450  99.0675430  80.6270510
  15.2810250 102.4628420  86.1134440  14.8441240 102.6429220  86.9458590
  15.8487930 103.2203040  85.9716160  30.9172430 101.9645420  90.4011750
  30.3174420 102.0237980  89.6575670  31.0466330 101.0250400  90.5308600
  32.1573880  99.7063240  75.7381460  31.3266840  99.7739890  76.2088690
  32.3345710 100.5967360  75.4348320  31.6130340  96.4510720  78.2415660
  32.3749250  97.0207370  78.3475350  31.6284710  95.8837920  79.0123970
  15.1134680  94.9748650  82.4723320  14.4583520  94.7060290  81.8283020
  15.9512630  94.8653130  82.0225300  32.6190310  97.3060820  83.0857590
  32.9899140  96.5228140  82.6793560  33.2592240  97.9949920  82.9074890
  29.6024070  98.6897400  88.4987910  28.7883910  99.1194560  88.7613700
  30.0098270  99.3015810  87.8856960  31.6649510  96.7445090  75.3988180
  31.9398350  97.6523970  75.2707400  31.4760250  96.6807620  76.3350170
  28.0625120  89.7689940  76.6941810  28.4810000  89.5820920  75.8538470
  27.7561180  88.9168990  77.0044740  31.5614850  94.6814080  80.3917610
  31.1858450  93.9142010  79.9598900  30.8317970  95.0636780  80.8792540
  16.1510610  95.3601220  87.0126660  16.5183650  95.2728620  87.8922680
  15.5821430  94.5967770  86.9133520  30.9514470  93.8285600  90.0257130
  30.7200560  93.5998350  89.1255080  31.2119020  94.7485150  89.9802020
  15.7026610  92.2710310  90.9185080  14.8082660  92.2377070  91.2578790
  16.2424160  92.4697100  91.6836330  29.3902540  89.0542030  92.8036830
  30.2672720  89.0625430  93.1870830  29.4023380  88.3172870  92.1929180
  14.3272760  92.1847580  78.4148650  13.4236840  92.4477780  78.2400310
  14.8113380  92.4558750  77.6348610  30.8365810  92.9071570  83.6924850
  31.3603290  92.4134220  83.0615020  31.4225230  93.0421930  84.4372420
  31.0155530  92.9911440  87.2144400  30.0658240  92.9574980  87.3289390
  31.1968540  93.9011550  86.9794170  16.8699970  91.2413120  76.3243030
  17.5791670  90.8196340  75.8390310  16.1539910  91.3088350  75.6926380
  16.5174130  87.2952450  75.3645680  17.2402260  87.8361390  75.6826900
  16.7898650  87.0215870  74.4887220  30.3265780  92.1644920  79.6317260
  30.8224900  91.9315790  80.4166140  30.1281850  91.3256760  79.2154900
  16.2066320  86.5458640  85.2668300  16.8542510  85.9956020  84.8263460
  16.6268160  86.8001790  86.0884110  31.7552940  90.8005870  82.1654940
  31.6452220  90.6461910  83.1037210  32.5160530  90.2726810  81.9230350
  30.1018660  86.7400000  88.6237940  30.7390880  87.3534140  88.9897130
  30.2493550  86.7760660  87.6787170  32.6443210  88.6313790  75.4061080
  33.5692520  88.4994970  75.1979370  32.6219000  88.7106610  76.3597530
  32.7181700  89.4024450  78.0317790  31.9233200  89.3369570  78.5610700
  32.9224980  90.3375090  78.0203140  29.6600120 103.4416000  82.0256180
  30.2559190 103.1200570  81.3490600  29.9178270 102.9687820  82.8169450
  15.9598320  86.7014310  88.0093620  15.6113140  87.1578130  88.7751800
  15.6286020  85.8071440  88.0916050  17.5662690  99.8733910  92.1746810
  17.5232320  99.5026820  93.0561270  17.6973700 100.8111480  92.3148630
  21.2668720 101.4293500  87.7756530  21.0260080 101.6968060  86.8887050
  22.2071360 101.5999230  87.8307390  23.4723140  87.8926190  91.5313040
  23.4112030  88.4848020  92.2808450  24.4123520  87.7852150  91.3863300
  26.1097700  87.5496250  91.1705330  26.7238110  87.8675540  90.5086410
  26.6547260  87.0644840  91.7901190  32.5272880 103.4487880  88.5767170
  32.0331160 103.8456750  87.8594300  31.9186170 102.8237090  88.9704450
  16.6318960  86.2290510  91.2844390  17.1801950  86.0478560  90.5210500
  16.6974270  85.4384620  91.8200700  17.4050720 102.8196160  89.2944590
  16.8111040 102.6880860  90.0334630  17.3974560 101.9834300  88.8286690
  26.8505740  86.1128390  87.4974620  25.9765580  86.4463500  87.2947550
  26.7416490  85.6401570  88.3226490  27.7577720  88.3199260  88.8816340
  27.4291080  87.5051020  88.5018070  28.7060020  88.2769070  88.7582030
  30.2112330 104.0911300  85.8553910  29.7515300 104.8427110  85.4811930
  29.5824790 103.3717770  85.7968710  17.0362950 100.1854540  88.2452630
  16.3097010  99.5659830  88.1778580  17.0972100 100.5795150  87.3750710
  20.6408050 102.3999540  85.0302040  21.1573070 101.7886900  84.5050300
  21.2905430 102.9028320  85.5213050  23.3803550 103.2908030  85.8571020
  23.6681360 103.0362330  84.9804030  23.8926770 102.7385390  86.4476590
  24.5980560  87.0298230  86.4367530  23.8152350  87.5043730  86.7164290
  24.3043490  86.1253060  86.3280710  29.1501630  87.7321330  84.4816620
  29.5909720  87.6766430  83.6338220  28.8809220  88.6479340  84.5526800
  31.0140200  87.3636570  82.4925440  30.9528600  86.4197790  82.3456460
  31.7932230  87.4716660  83.0378900  15.3192950 103.5028930  81.4549390
  15.1514990 102.8699610  82.1531280  14.4527460 103.7088330  81.1043580
  15.9420970  87.3345710  78.9581250  16.7000330  87.4474590  78.3845280
  15.4798140  88.1714910  78.9124680  22.4834780  89.4484980  81.9483560
  21.6709290  89.0741870  81.6079440  22.9876420  88.6930060  82.2504750
  26.9859760  86.1127430  83.1866630  27.5889130  86.6847640  83.6615150
  26.2452750  86.6766870  82.9640530  30.1294360  86.5148990  78.4606910
  30.3244990  87.4132440  78.7274340  29.3424230  86.2836070  78.9539860
  16.9255650 102.1962160  78.8999530  16.4003270 102.5770190  78.1961490
  16.8500230 102.8212930  79.6209240  18.3146120  87.8609760  77.4983220
  18.8438880  87.0739560  77.3691170  18.9474440  88.5400950  77.7318750
  20.5083960  87.5984900  80.5528610  19.8786700  86.8972210  80.7198740
  19.9689100  88.3589030  80.3361770  23.4475910 104.2124130  93.2239220
  24.3743220 103.9768400  93.2675180  23.4326340 105.0396130  92.7425250
  31.6820970 103.7549700  80.2213470  31.8573160 103.0687440  79.5774390
  30.9842540 104.2796750  79.8290140  20.6339520  86.8768880  92.9881100
  20.3523790  87.3802480  92.2241920  21.0159220  86.0790630  92.6223230
  19.5248620 104.1444540  77.7748780  20.2567440 103.8603820  77.2272670
  19.7842290 103.9057820  78.6648160  18.6863410 100.2609270  77.7795110
  18.0572290 100.7294370  78.3280940  18.8011240  99.4158490  78.2141300
  27.2354980  86.2922460  93.5661570  27.1220430  86.6117070  94.4613090
  28.0524720  86.6934970  93.2698850  30.0153470 103.4393990  93.0480260
  30.8078790 102.9443220  92.8406220  30.3086620 104.1184130  93.6555870
  26.1413130  94.3114930  63.9296310  26.0607180  93.3969540  63.6588020
  25.7277550  94.8082000  63.2236020  24.2731170  96.0893950  65.8105580
  23.4973270  95.6094390  66.1004150  24.9244100  95.4099600  65.6361740
  18.2897000  96.4013760  66.6881340  17.4581880  96.1462470  67.0877850
  18.8977980  96.4724530  67.4239260  28.2938600 100.4954140  64.5904710
  27.8320130  99.7241380  64.9191880  29.1064150 100.5220210  65.0957160
  18.2698260 100.4353850  66.8839360  18.5726300  99.5451590  66.7049580
  19.0141850 100.9924070  66.6561610  16.6988950  91.3615650  60.4723730
  15.8105650  91.7031620  60.3703610  16.9830140  91.1615970  59.5804560
  14.6621960  93.9621300  66.3563430  15.2338070  93.1943500  66.3567070
  14.6623500  94.2610060  65.4470040  24.5201910 102.7812150  64.2108700
  23.9013350 103.2369650  63.6403140  25.3753690 102.9363610  63.8098400
  23.7140160  98.7651140  65.8175740  23.6448440  97.8241080  65.6564870
  24.4760020  98.8552550  66.3898310  15.9046830  89.3705660  68.1432360
  15.7249670  88.4731410  68.4235120  15.5026910  89.9177530  68.8179310
  24.7445330  91.5721520  66.0444670  25.1210150  90.6993400  65.9318340
  24.6464840  91.9080220  65.1535110  18.8750340  89.9447150  61.5062110
  18.9817090  90.8450880  61.8130870  17.9642700  89.8965120  61.2156760
  28.5269450  89.0671960  62.9773010  29.3479070  88.5768530  63.0198490
  28.5603530  89.6569620  63.7304850  16.5233500  91.8666160  66.7514700
  17.2043610  92.1304530  67.3702100  16.2081550  91.0267030  67.0852710
  20.7158070  92.9133520  65.8387290  21.2236290  93.4114490  66.4792310
  21.2471310  92.1368720  65.6626650  32.8169000  91.0838710  69.5416640
  32.1121170  91.4720420  69.0231750  33.0826920  91.7789000  70.1437570
  18.9994170  87.5532080  70.1050710  19.0012610  88.0704470  69.2996610
  18.1698480  87.0762260  70.0820640  25.3865260  97.6651390  61.6040610
  24.7682530  98.1300840  61.0403330  25.8988510  98.3578870  62.0210120
  20.2497020  97.1927260  68.2824210  19.9166400  97.8196180  68.9245280
  20.4263700  97.7189140  67.5025880  28.7630930  91.0072340  65.7500550
  28.0586500  91.2957230  66.3303660  29.1243090  91.8172450  65.3900110
  18.6809500  89.2642040  68.1121160  19.0226310  90.1084090  67.8175030
  17.7425310  89.4125780  68.2286500  19.4616120  99.1608060  70.0973390
  20.0790120  99.8359140  69.8157840  18.6009240  99.5696040  70.0060890
  14.7548460  98.3507920  58.9780240  14.3776440  98.8395020  58.2465140
  15.0121530  99.0233200  59.6086770  30.3793710 100.6247470  68.0128030
  29.6957230 101.2946580  68.0044700  30.9188000 100.8228120  67.2472890
  31.8317850  90.4527130  66.1409760  30.8842760  90.4866110  66.2725190
  32.1567840  91.2666080  66.5259120  22.3637390  86.7524310  64.4365750
  22.6712370  86.1971200  63.7201250  21.4338090  86.8868770  64.2538740
  27.9152450 102.4691600  66.7273210  27.9279610 102.0653890  65.8595470
  27.3627670 103.2438890  66.6234640  29.2097870  99.1907820  61.8163380
  29.0994200  98.2482150  61.9412800  29.2066120  99.5523460  62.7026140
  27.3137890  97.3721440  68.0555820  27.7306680  97.1581550  67.2209280
  28.0377710  97.6294230  68.6264440  24.7518150  94.8173140  61.1725870
  23.8247430  94.7510520  61.4014340  24.9042970  95.7553270  61.0581110
  24.7387230  91.0890140  58.1693030  23.7990900  91.2504100  58.2545490
  25.0570490  91.8075820  57.6229020  31.2599990  95.7708660  68.1472060
  30.4318620  95.8401750  67.6722190  31.8550470  96.3562970  67.6787890
  28.7815440  96.3793440  61.6761120  28.1627860  96.0412990  61.0287420
  28.7639890  95.7353200  62.3840310  28.2242000  92.5577980  69.0926930
  27.8113180  93.3831690  69.3466920  27.4917950  91.9723020  68.9003290
  20.3574790  95.3437880  63.9545600  19.9531790  94.6315130  63.4591500
  20.4437910  94.9991120  64.8433640  20.8256490  99.0305440  66.1184810
  20.5284780  98.4250910  65.4392590  21.7756310  99.0682750  66.0074170
  19.0703410  92.1181090  67.7344640  19.6218000  92.2276430  66.9597890
  19.5846920  92.4918690  68.4499870  28.9142100 102.6037310  69.7807910
  28.4372660 103.4109500  69.5880520  28.2303890 101.9515640  69.9334120
  19.9174920  98.7687130  72.7692610  19.0203450  98.9927100  73.0166010
  19.9427790  98.8922070  71.8204010  26.9580140  95.6180250  58.6833870
  27.3973420  94.7802680  58.5371690  27.6708560  96.2509650  58.7698010
  18.7446140  95.6400450  71.3449980  18.6053910  96.5123250  71.7137380
  17.8627500  95.2973260  71.1997920  25.0675520 100.5576320  62.6515110
  25.5071430 101.3000650  62.2370500  25.0062410 100.8002890  63.5754070
  20.5426490 101.5822150  73.5535130  20.5141920 101.9865100  72.6863560
  20.3791460 100.6532510  73.3906730  30.5397280  86.8723060  56.9974910
  30.2269940  86.9649890  57.8973980  31.3009750  87.4504090  56.9472340
  17.0579420  94.2382860  61.4552250  16.9377020  94.9644950  60.8433520
  16.7480310  93.4685770  60.9780160  32.4941310 102.3649250  74.8499300
  32.9701030 102.8432140  75.5288380  33.1148470 102.2966740  74.1244800
  14.6964790  97.4098000  67.2620890  14.7745210  97.5446770  66.3176610
  15.3106470  96.7013890  67.4549010  15.9412420  99.1098190  63.6727070
  15.5340500  99.2512780  62.8180670  16.8325430  98.8258350  63.4698280
  31.8974560  99.5562100  72.0099310  32.0237620  99.3173980  71.0916490
  31.9395940  98.7246640  72.4821390  25.7591300 103.2590100  70.5794120
  26.2735970 103.1698110  71.3816550  24.9160380 103.6049800  70.8722030
  27.7345700 103.5445440  60.0078120  27.5746840 103.2548380  60.9059950
  27.5692410 102.7685570  59.4723350  20.2134080 103.3243970  61.7849740
  20.0376560 102.4079510  61.5717540  19.3589820 103.6831260  62.0247540
  27.4371830 101.0533000  58.5676120  26.7436990 101.0510290  57.9078400
  28.1794690 100.6292320  58.1370290  27.0021760 102.6795710  62.6424610
  27.4578710 101.8985090  62.9563230  27.3414280 103.3902530  63.1865790
  31.7498570  91.6094560  72.9749050  31.1342840  92.1174230  72.4464510
  31.4294990  90.7092890  72.9174990  14.7524310  98.4512170  69.8015350
  14.9155350  97.9817530  68.9834720  15.2176760  97.9435730  70.4664190
  19.5243080  87.5817930  64.8375920  19.0811230  88.3627470  64.5060440
  20.0828070  87.9047820  65.5446860  23.8112890  90.4486450  70.4411240
  23.3492260  90.6569470  71.2531180  23.4091000  89.6345800  70.1381910
  28.8117400  91.6695400  71.5707900  27.9610990  91.3701150  71.8916970
  28.6519190  91.9137410  70.6591720  25.9067110  93.1697150  73.6706690
  26.2320520  92.3360900  73.3308920  26.6947440  93.6925670  73.8185020
  22.6401900  87.2028630  59.7181750  22.0156080  87.1988500  60.4435060
  22.5532020  86.3359590  59.3217720  21.5618980  88.1265260  66.6965520
  21.8591310  89.0328090  66.6157540  22.1104540  87.6384040  66.0825090
  19.3157300  92.7051500  62.5657170  19.0898220  92.4888670  63.4703790
  18.5349830  93.1379960  62.2203140  26.5455060  92.7114870  61.1647820
  25.9463950  93.4350670  60.9811440  27.0934670  92.6491650  60.3824270
  21.7556510  93.6037080  73.2317440  21.6600110  92.6631810  73.0817840
  22.5988490  93.8252150  72.8365510  25.1519930  91.3478410  63.1951100
  25.5449500  91.6650610  62.3819790  25.5136780  90.4690290  63.3095620
  16.8867050  90.0150750  71.3851220  16.4930440  90.8625960  71.5924000
  16.1985450  89.3777120  71.5759860  23.4612100  90.0985720  74.4547960
  22.7710420  89.9057920  75.0894050  24.2044400  90.3820360  74.9872260
  14.1884100  87.9379210  65.4181300  13.8997150  88.5082070  66.1306280
  14.9329860  87.4583660  65.7812530  14.3754330  91.8799330  56.6284020
  14.2929000  92.8230090  56.7699010  14.0237390  91.7374240  55.7496370
  25.7375070  93.9384160  67.2901880  25.0056190  94.4470970  67.6391980
  25.3399410  93.1214140  66.9890660  22.1752460  90.6138360  65.6954370
  22.1788520  90.1728310  64.8458910  23.0703580  90.9355690  65.8026190
  18.0254840  90.4964850  64.6548580  17.6854890  90.9740080  65.4115630
  17.2632160  90.0429970  64.2949680  22.2372610  91.6150440  58.6861130
  22.3585430  91.5736920  59.6346950  21.8521120  92.4774590  58.5307860
  26.2000980  89.3917840  66.7024820  26.2173720  89.8426490  67.5466670
  25.9516560  88.4923480  66.9158260  21.2494110  93.9251580  58.0844430
  20.6811010  93.4769830  57.4580340  21.9583110  94.2844360  57.5509580
  29.6271730  86.8050020  72.5411200  29.9517500  86.0739680  73.0669180
  29.6628240  86.4863660  71.6392190  16.3263290  97.8263600  71.9611160
  15.9418080  97.1857270  72.5594120  16.6375480  98.5299720  72.5305890
  22.4760430  94.6740140  67.4419780  22.8430560  94.1998710  68.1881120
  22.2865490  95.5481710  67.7828120  15.3400920  89.4183830  63.5713250
  15.0547840  89.0539500  64.4091870  15.2779780  88.6864290  62.9576390
  20.2659800  93.7148780  69.7603990  19.9616870  94.5940760  69.9854350
  21.2206260  93.7748570  69.7961430  18.7941590  97.9209770  60.3570840
  18.0203850  97.3807390  60.1969560  19.5236220  97.4016380  60.0188600
  29.5529570  96.9175130  66.1497230  30.2728690  97.4130420  65.7593340
  29.3511390  96.2393020  65.5051100  25.0139510  88.3113090  60.2926620
  24.2004120  87.8126260  60.2171930  24.8201460  89.1511340  59.8762970
  24.9348370  96.9884190  72.0366230  24.8685680  96.0679860  71.7823820
  24.3053510  97.0859630  72.7510870  27.7287900  92.6832740  58.5888780
  28.6167520  92.9949970  58.4140120  27.6992990  91.8104990  58.1969360
  18.8378990  97.5890150  63.9949650  19.3557660  96.7858410  63.9406540
  18.3863010  97.5269290  64.8366480  23.7248490  98.8556430  59.2676950
  24.0664190  99.5998660  58.7720270  22.8961200  99.1687550  59.6301780
  16.3223530  94.5551520  70.9075350  15.9638470  95.2205370  71.4948690
  16.0278090  93.7235070  71.2787970  19.5236650  95.0135760  73.7914900
  19.2236790  95.1592940  72.8942720  20.2947890  94.4541050  73.6988290
  24.8665100  99.8104760  71.7870030  24.8809640  98.8785720  71.5688940
  24.1590200  99.8964520  72.4259800  30.0002170  93.9944580  58.0568640
  29.9165890  94.4258800  57.2065080  30.7196360  94.4542930  58.4895460
  31.0776310  96.4512100  71.1338610  30.3524500  97.0440880  70.9368000
  31.6051770  96.4435640  70.3351980  31.0289420 100.8486840  60.7850770
  30.3865580 100.1942460  61.0594490  30.6420080 101.2541930  60.0091440
  26.6075900  98.1772270  64.6322460  26.9599720  97.5800400  63.9723830
  25.7238230  97.8516500  64.8030710  22.6939180  98.9369960  62.0392870
  23.3810310  99.4839170  62.4200460  21.9071600  99.4810690  62.0742480
  14.8331580  94.5542780  57.5309950  15.7026430  94.8367580  57.8145870
  14.3421900  95.3678650  57.4158760  21.9966390  95.9415990  61.6518230
  22.4529170  96.7521240  61.8778420  21.6454600  95.6239130  62.4836720
  24.2999000 101.4522330  68.8810530  24.9441220 101.6581710  69.5583950
  24.6628440 100.6910730  68.4281380  17.8978170  86.2853640  62.1240750
  17.7692800  86.2771540  63.0725670  17.0740190  86.6236730  61.7731760
  25.5731080  99.4554680  67.5987980  26.2153310  98.7547840  67.7120150
  26.0980430 100.2353120  67.4184870  29.4186800  99.7403300  57.3227120
  29.1924380  99.0233740  57.9151760  29.0283000  99.4915740  56.4848870
  27.3468700 100.2549580  70.8024040  27.6824940 100.8416270  71.4801960
  26.4269040 100.1242290  71.0321830  15.2002830 103.7670160  58.0971580
  15.5600470 104.3659500  57.4428850  15.0595170 104.3130050  58.8706610
  14.8972100  88.0444760  71.5847450  14.1830620  88.2441680  72.1900060
  15.3167140  87.2684330  71.9562250  29.0003050  97.6575240  58.9841280
  28.7124750  98.1187930  59.7719160  29.7955220  97.1973010  59.2525500
  15.1844690 102.0325020  72.5713980  15.2935810 101.0919760  72.4309370
  14.5325250 102.2979770  71.9227710  23.1757280 100.3040910  73.9712100
  22.8554150  99.5850150  74.5157790  22.5015640 100.9795980  74.0448160
  21.2171450 101.1501360  58.9145250  21.2081550 101.8831050  58.2989760
  20.2969810 100.9032940  59.0072210  16.8178090  96.3716250  59.6592010
  16.2106040  97.1115150  59.6687310  17.2927440  96.4615610  58.8330210
  26.3910880  90.5367070  69.3348900  26.7591700  89.7162280  69.6628470
  25.5309080  90.5968960  69.7504550  29.7572910  89.4924010  60.1436460
  29.1286070  89.5969680  59.4294690  29.2624830  89.7120790  60.9330340
  24.2031050 101.2129600  57.5770440  24.3043030 101.0093590  56.6472420
  23.3032790 100.9587880  57.7818220  21.7256940  91.7709960  61.5594340
  21.0173090  92.2396300  62.0007950  22.0101420  91.1131970  62.1939530
  23.3512870  93.1906660  69.5586870  23.8498120  93.6652480  70.2238720
  23.4935820  92.2670180  69.7656900  25.7572370  88.4960620  62.9990130
  25.6340150  88.5146750  62.0499640  26.7056930  88.5439560  63.1188530
  22.8449160 103.7315920  62.2718110  23.0990660 103.6937310  61.3497480
  21.8961640 103.6049250  62.2646360  19.9291960  90.0795040  58.9345050
  20.7782490  90.5165190  58.8685240  19.5623230  90.3915300  59.7617110
  30.5579730  89.4074620  70.4015260  30.0553330  90.1480020  70.7409070
  31.3736390  89.7958620  70.0852050  28.8501740  94.6507800  63.8476620
  27.9091880  94.6658030  64.0224310  29.1645810  93.8643760  64.2936920
  18.8283380  96.3327400  57.4080580  19.5946650  96.2208760  57.9706010
  18.9058070  95.6365370  56.7557350  17.5230140  93.7652470  58.0913470
  17.6033730  92.8179980  58.2030870  18.4149890  94.0959350  58.1974130
  30.8527320 101.8216650  65.5230880  30.9774740 102.6447820  65.9954690
  31.7192880 101.6107380  65.1755030  18.3244850 103.9147860  65.1948010
  19.0607330 103.3663320  65.4656580  18.7085770 104.7803870  65.0554000
  15.2090330  99.9821430  61.0689520  14.2830110 100.2242570  61.0594930
  15.6746760 100.8095690  60.9474270  17.3303130 103.0993930  74.3833590
  18.1315860 103.4205980  74.7968990  16.8154950 102.7389510  75.1053500
  21.4347160 103.0878170  57.0173580  22.2275770 103.3767000  56.5655370
  20.9151510 102.6570340  56.3386060  26.1667760  99.2073800  74.3309000
  25.5605920  99.2305400  73.5904750  25.8621870  98.4756840  74.8676250
  27.5968130 102.9354090  72.9418410  28.5489880 102.8512110  72.8918650
  27.4496350 103.5995800  73.6152200  30.4877330 102.3148300  58.4410320
  30.2018840 101.9013440  57.6264500  30.2896880 103.2436010  58.3210840
  15.0500940  95.5867390  73.3269640  15.5539960  95.0074670  73.8985870
  14.3108360  95.8707620  73.8646010  21.9524560  98.3081580  56.8815930
  21.8475200  97.6933930  57.6077310  21.7848780  97.7847470  56.0978940
  22.1038880  96.9938380  72.8605160  21.3384550  97.5623380  72.7759830
  22.2854840  96.7014590  71.9673390  25.1927290  97.3701610  57.4857920
  24.6437390  97.8170910  58.1300660  25.8146550  96.8650860  58.0095590
  29.2462230  98.7243710  73.4180180  29.9871700  99.0619470  72.9147640
  28.4834910  98.8935770  72.8649950  17.0824020  93.7296980  74.2219710
  17.1229360  93.4310850  75.1304940  17.9369520  94.1304590  74.0627230
  20.8602410  96.3292530  59.3823220  21.2818830  96.1632400  60.2254610
  20.9853250  95.5192760  58.8878360  19.0229830  92.3089080  72.1894200
  18.4926290  91.8180030  71.5617540  19.6917900  92.7373280  71.6552130
  23.3730050  95.3530140  56.6300320  23.8935710  94.6379160  56.2641470
  24.0198450  95.9916010  56.9300830  27.9207890  96.7758540  71.9535390
  28.3348910  96.9303620  72.8025810  26.9858890  96.9013760  72.1161170
  28.3930060  94.1154700  73.9574540  28.9750830  93.3607020  73.8695020
  28.5691830  94.6462140  73.1806020  19.5102130  89.2751450  72.2691490
  19.4159000  88.6572200  71.5442360  18.9299520  90.0017740  72.0421400
  22.2763570  87.8324690  69.3018880  21.8280870  87.8548950  68.4564430
  21.6428770  87.4343710  69.8989180  22.6823120  96.7279020  69.9231320
  23.1011230  97.5711750  69.7507560  21.7631750  96.8651060  69.6938100
  25.0187020  94.4595200  71.3069160  25.1383230  93.8636340  72.0464000
  25.8781020  94.4964890  70.8870460  27.3574920  95.0132390  69.8831670
  26.8310140  95.5375010  69.2796810  27.7006260  95.6459780  70.5141400
  19.7561310  92.4025760  56.3281380  19.5550370  91.5393120  56.6894720
  19.5853360  92.3159120  55.3902980  20.5330540 103.0332030  71.0389050
  19.9951630 103.7578090  70.7197750  20.7864500 102.5562370  70.2486390
  21.7855790  91.0016550  72.5644980  22.3755480  90.6932400  73.2522800
  20.9676030  90.5296300  72.7204880  26.6049220  90.6182360  72.7978000
  25.9164740  89.9563900  72.7327990  27.3255240  90.1720630  73.2426460
  27.2349620  87.2133990  58.8568260  27.5151910  86.3701890  59.2127680
  26.4615350  87.4457100  59.3707010  18.5544110  89.5026380  56.3159260
  18.8570010  89.5093810  55.4078410  19.2938700  89.1524240  56.8126920
  23.3892750 104.2683240  71.2975700  23.3151450 105.1718380  71.6048070
  22.4871590 103.9495140  71.2697770  21.7729040  88.4461000  57.3015460
  21.4251040  87.7684990  56.7217910  21.9741810  87.9850510  58.1158850
  23.9378080 103.4341750  58.9202060  24.8328870 103.7726720  58.9420820
  23.9695710 102.7121160  58.2926340  17.5774240  98.8068800  57.1489060
  18.0149110  99.3498470  57.8046640  18.0621970  97.9815750  57.1585400
  14.7920040 101.5957830  64.6009320  15.1223050 100.7278890  64.3687960
  15.2211040 101.8016350  65.4314280  19.3881960  99.9266840  62.2611290
  19.0877500  99.8031810  63.1615200  19.2819450  99.0675430  61.8527020
  15.2810250 102.4628420  67.3390950  14.8441240 102.6429220  68.1715100
  15.8487930 103.2203040  67.1972670  30.9172430 101.9645420  71.6268260
  30.3174420 102.0237980  70.8832180  31.0466330 101.0250400  71.7565110
  32.1573880  99.7063240  56.9637970  31.3266840  99.7739890  57.4345200
  32.3345710 100.5967360  56.6604830  31.6130340  96.4510720  59.4672170
  32.3749250  97.0207370  59.5731860  31.6284710  95.8837920  60.2380480
  15.1134680  94.9748650  63.6979830  14.4583520  94.7060290  63.0539530
  15.9512630  94.8653130  63.2481810  32.6190310  97.3060820  64.3114100
  32.9899140  96.5228140  63.9050070  33.2592240  97.9949920  64.1331400
  29.6024070  98.6897400  69.7244420  28.7883910  99.1194560  69.9870210
  30.0098270  99.3015810  69.1113470  31.6649510  96.7445090  56.6244690
  31.9398350  97.6523970  56.4963910  31.4760250  96.6807620  57.5606680
  28.0625120  89.7689940  57.9198320  28.4810000  89.5820920  57.0794980
  27.7561180  88.9168990  58.2301250  31.5614850  94.6814080  61.6174120
  31.1858450  93.9142010  61.1855410  30.8317970  95.0636780  62.1049050
  16.1510610  95.3601220  68.2383170  16.5183650  95.2728620  69.1179190
  15.5821430  94.5967770  68.1390030  30.9514470  93.8285600  71.2513640
  30.7200560  93.5998350  70.3511590  31.2119020  94.7485150  71.2058530
  15.7026610  92.2710310  72.1441590  14.8082660  92.2377070  72.4835300
  16.2424160  92.4697100  72.9092840  29.3902540  89.0542030  74.0293340
  30.2672720  89.0625430  74.4127340  29.4023380  88.3172870  73.4185690
  14.3272760  92.1847580  59.6405160  13.4236840  92.4477780  59.4656820
  14.8113380  92.4558750  58.8605120  30.8365810  92.9071570  64.9181360
  31.3603290  92.4134220  64.2871530  31.4225230  93.0421930  65.6628930
  31.0155530  92.9911440  68.4400910  30.0658240  92.9574980  68.5545900
  31.1968540  93.9011550  68.2050680  16.8699970  91.2413120  57.5499540
  17.5791670  90.8196340  57.0646820  16.1539910  91.3088350  56.9182890
  16.5174130  87.2952450  56.5902190  17.2402260  87.8361390  56.9083410
  16.7898650  87.0215870  55.7143730  30.3265780  92.1644920  60.8573770
  30.8224900  91.9315790  61.6422650  30.1281850  91.3256760  60.4411410
  16.2066320  86.5458640  66.4924810  16.8542510  85.9956020  66.0519970
  16.6268160  86.8001790  67.3140620  31.7552940  90.8005870  63.3911450
  31.6452220  90.6461910  64.3293720  32.5160530  90.2726810  63.1486860
  30.1018660  86.7400000  69.8494450  30.7390880  87.3534140  70.2153640
  30.2493550  86.7760660  68.9043680  32.6443210  88.6313790  56.6317590
  33.5692520  88.4994970  56.4235880  32.6219000  88.7106610  57.5854040
  32.7181700  89.4024450  59.2574300  31.9233200  89.3369570  59.7867210
  32.9224980  90.3375090  59.2459650  29.6600120 103.4416000  63.2512690
  30.2559190 103.1200570  62.5747110  29.9178270 102.9687820  64.0425960
  15.9598320  86.7014310  69.2350130  15.6113140  87.1578130  70.0008310
  15.6286020  85.8071440  69.3172560  17.5662690  99.8733910  73.4003320
  17.5232320  99.5026820  74.2817780  17.6973700 100.8111480  73.5405140
  21.2668720 101.4293500  69.0013040  21.0260080 101.6968060  68.1143560
  22.2071360 101.5999230  69.0563900  23.4723140  87.8926190  72.7569550
  23.4112030  88.4848020  73.5064960  24.4123520  87.7852150  72.6119810
  26.1097700  87.5496250  72.3961840  26.7238110  87.8675540  71.7342920
  26.6547260  87.0644840  73.0157700  32.5272880 103.4487880  69.8023680
  32.0331160 103.8456750  69.0850810  31.9186170 102.8237090  70.1960960
  16.6318960  86.2290510  72.5100900  17.1801950  86.0478560  71.7467010
  16.6974270  85.4384620  73.0457210  17.4050720 102.8196160  70.5201100
  16.8111040 102.6880860  71.2591140  17.3974560 101.9834300  70.0543200
  26.8505740  86.1128390  68.7231130  25.9765580  86.4463500  68.5204060
  26.7416490  85.6401570  69.5483000  27.7577720  88.3199260  70.1072850
  27.4291080  87.5051020  69.7274580  28.7060020  88.2769070  69.9838540
  30.2112330 104.0911300  67.0810420  29.7515300 104.8427110  66.7068440
  29.5824790 103.3717770  67.0225220  17.0362950 100.1854540  69.4709140
  16.3097010  99.5659830  69.4035090  17.0972100 100.5795150  68.6007220
  20.6408050 102.3999540  66.2558550  21.1573070 101.7886900  65.7306810
  21.2905430 102.9028320  66.7469560  23.3803550 103.2908030  67.0827530
  23.6681360 103.0362330  66.2060540  23.8926770 102.7385390  67.6733100
  24.5980560  87.0298230  67.6624040  23.8152350  87.5043730  67.9420800
  24.3043490  86.1253060  67.5537220  29.1501630  87.7321330  65.7073130
  29.5909720  87.6766430  64.8594730  28.8809220  88.6479340  65.7783310
  31.0140200  87.3636570  63.7181950  30.9528600  86.4197790  63.5712970
  31.7932230  87.4716660  64.2635410  15.3192950 103.5028930  62.6805900
  15.1514990 102.8699610  63.3787790  14.4527460 103.7088330  62.3300090
  15.9420970  87.3345710  60.1837760  16.7000330  87.4474590  59.6101790
  15.4798140  88.1714910  60.1381190  22.4834780  89.4484980  63.1740070
  21.6709290  89.0741870  62.8335950  22.9876420  88.6930060  63.4761260
  26.9859760  86.1127430  64.4123140  27.5889130  86.6847640  64.8871660
  26.2452750  86.6766870  64.1897040  30.1294360  86.5148990  59.6863420
  30.3244990  87.4132440  59.9530850  29.3424230  86.2836070  60.1796370
  16.9255650 102.1962160  60.1256040  16.4003270 102.5770190  59.4218000
  16.8500230 102.8212930  60.8465750  18.3146120  87.8609760  58.7239730
  18.8438880  87.0739560  58.5947680  18.9474440  88.5400950  58.9575260
  20.5083960  87.5984900  61.7785120  19.8786700  86.8972210  61.9455250
  19.9689100  88.3589030  61.5618280  23.4475910 104.2124130  74.4495730
  24.3743220 103.9768400  74.4931690  23.4326340 105.0396130  73.9681760
  31.6820970 103.7549700  61.4469980  31.8573160 103.0687440  60.8030900
  30.9842540 104.2796750  61.0546650  20.6339520  86.8768880  74.2137610
  20.3523790  87.3802480  73.4498430  21.0159220  86.0790630  73.8479740
  19.5248620 104.1444540  59.0005290  20.2567440 103.8603820  58.4529180
  19.7842290 103.9057820  59.8904670  18.6863410 100.2609270  59.0051620
  18.0572290 100.7294370  59.5537450  18.8011240  99.4158490  59.4397810
  27.2354980  86.2922460  74.7918080  27.1220430  86.6117070  75.6869600
  28.0524720  86.6934970  74.4955360  30.0153470 103.4393990  74.2736770
  30.8078790 102.9443220  74.0662730  30.3086620 104.1184130  74.8812380
  26.1413130  94.3114930  45.1552820  26.0607180  93.3969540  44.8844530
  25.7277550  94.8082000  44.4492530  24.2731170  96.0893950  47.0362090
  23.4973270  95.6094390  47.3260660  24.9244100  95.4099600  46.8618250
  18.2897000  96.4013760  47.9137850  17.4581880  96.1462470  48.3134360
  18.8977980  96.4724530  48.6495770  28.2938600 100.4954140  45.8161220
  27.8320130  99.7241380  46.1448390  29.1064150 100.5220210  46.3213670
  18.2698260 100.4353850  48.1095870  18.5726300  99.5451590  47.9306090
  19.0141850 100.9924070  47.8818120  16.6988950  91.3615650  41.6980240
  15.8105650  91.7031620  41.5960120  16.9830140  91.1615970  40.8061070
  14.6621960  93.9621300  47.5819940  15.2338070  93.1943500  47.5823580
  14.6623500  94.2610060  46.6726550  24.5201910 102.7812150  45.4365210
  23.9013350 103.2369650  44.8659650  25.3753690 102.9363610  45.0354910
  23.7140160  98.7651140  47.0432250  23.6448440  97.8241080  46.8821380
  24.4760020  98.8552550  47.6154820  15.9046830  89.3705660  49.3688870
  15.7249670  88.4731410  49.6491630  15.5026910  89.9177530  50.0435820
  24.7445330  91.5721520  47.2701180  25.1210150  90.6993400  47.1574850
  24.6464840  91.9080220  46.3791620  18.8750340  89.9447150  42.7318620
  18.9817090  90.8450880  43.0387380  17.9642700  89.8965120  42.4413270
  28.5269450  89.0671960  44.2029520  29.3479070  88.5768530  44.2455000
  28.5603530  89.6569620  44.9561360  16.5233500  91.8666160  47.9771210
  17.2043610  92.1304530  48.5958610  16.2081550  91.0267030  48.3109220
  20.7158070  92.9133520  47.0643800  21.2236290  93.4114490  47.7048820
  21.2471310  92.1368720  46.8883160  32.8169000  91.0838710  50.7673150
  32.1121170  91.4720420  50.2488260  33.0826920  91.7789000  51.3694080
  18.9994170  87.5532080  51.3307220  19.0012610  88.0704470  50.5253120
  18.1698480  87.0762260  51.3077150  25.3865260  97.6651390  42.8297120
  24.7682530  98.1300840  42.2659840  25.8988510  98.3578870  43.2466630
  20.2497020  97.1927260  49.5080720  19.9166400  97.8196180  50.1501790
  20.4263700  97.7189140  48.7282390  28.7630930  91.0072340  46.9757060
  28.0586500  91.2957230  47.5560170  29.1243090  91.8172450  46.6156620
  18.6809500  89.2642040  49.3377670  19.0226310  90.1084090  49.0431540
  17.7425310  89.4125780  49.4543010  19.4616120  99.1608060  51.3229900
  20.0790120  99.8359140  51.0414350  18.6009240  99.5696040  51.2317400
  14.7548460  98.3507920  40.2036750  14.3776440  98.8395020  39.4721650
  15.0121530  99.0233200  40.8343280  30.3793710 100.6247470  49.2384540
  29.6957230 101.2946580  49.2301210  30.9188000 100.8228120  48.4729400
  31.8317850  90.4527130  47.3666270  30.8842760  90.4866110  47.4981700
  32.1567840  91.2666080  47.7515630  22.3637390  86.7524310  45.6622260
  22.6712370  86.1971200  44.9457760  21.4338090  86.8868770  45.4795250
  27.9152450 102.4691600  47.9529720  27.9279610 102.0653890  47.0851980
  27.3627670 103.2438890  47.8491150  29.2097870  99.1907820  43.0419890
  29.0994200  98.2482150  43.1669310  29.2066120  99.5523460  43.9282650
  27.3137890  97.3721440  49.2812330  27.7306680  97.1581550  48.4465790
  28.0377710  97.6294230  49.8520950  24.7518150  94.8173140  42.3982380
  23.8247430  94.7510520  42.6270850  24.9042970  95.7553270  42.2837620
  24.7387230  91.0890140  39.3949540  23.7990900  91.2504100  39.4802000
  25.0570490  91.8075820  38.8485530  31.2599990  95.7708660  49.3728570
  30.4318620  95.8401750  48.8978700  31.8550470  96.3562970  48.9044400
  28.7815440  96.3793440  42.9017630  28.1627860  96.0412990  42.2543930
  28.7639890  95.7353200  43.6096820  28.2242000  92.5577980  50.3183440
  27.8113180  93.3831690  50.5723430  27.4917950  91.9723020  50.1259800
  20.3574790  95.3437880  45.1802110  19.9531790  94.6315130  44.6848010
  20.4437910  94.9991120  46.0690150  20.8256490  99.0305440  47.3441320
  20.5284780  98.4250910  46.6649100  21.7756310  99.0682750  47.2330680
  19.0703410  92.1181090  48.9601150  19.6218000  92.2276430  48.1854400
  19.5846920  92.4918690  49.6756380  28.9142100 102.6037310  51.0064420
  28.4372660 103.4109500  50.8137030  28.2303890 101.9515640  51.1590630
  19.9174920  98.7687130  53.9949120  19.0203450  98.9927100  54.2422520
  19.9427790  98.8922070  53.0460520  26.9580140  95.6180250  39.9090380
  27.3973420  94.7802680  39.7628200  27.6708560  96.2509650  39.9954520
  18.7446140  95.6400450  52.5706490  18.6053910  96.5123250  52.9393890
  17.8627500  95.2973260  52.4254430  25.0675520 100.5576320  43.8771620
  25.5071430 101.3000650  43.4627010  25.0062410 100.8002890  44.8010580
  20.5426490 101.5822150  54.7791640  20.5141920 101.9865100  53.9120070
  20.3791460 100.6532510  54.6163240  30.5397280  86.8723060  38.2231420
  30.2269940  86.9649890  39.1230490  31.3009750  87.4504090  38.1728850
  17.0579420  94.2382860  42.6808760  16.9377020  94.9644950  42.0690030
  16.7480310  93.4685770  42.2036670  32.4941310 102.3649250  56.0755810
  32.9701030 102.8432140  56.7544890  33.1148470 102.2966740  55.3501310
  14.6964790  97.4098000  48.4877400  14.7745210  97.5446770  47.5433120
  15.3106470  96.7013890  48.6805520  15.9412420  99.1098190  44.8983580
  15.5340500  99.2512780  44.0437180  16.8325430  98.8258350  44.6954790
  31.8974560  99.5562100  53.2355820  32.0237620  99.3173980  52.3173000
  31.9395940  98.7246640  53.7077900  25.7591300 103.2590100  51.8050630
  26.2735970 103.1698110  52.6073060  24.9160380 103.6049800  52.0978540
  27.7345700 103.5445440  41.2334630  27.5746840 103.2548380  42.1316460
  27.5692410 102.7685570  40.6979860  20.2134080 103.3243970  43.0106250
  20.0376560 102.4079510  42.7974050  19.3589820 103.6831260  43.2504050
  27.4371830 101.0533000  39.7932630  26.7436990 101.0510290  39.1334910
  28.1794690 100.6292320  39.3626800  27.0021760 102.6795710  43.8681120
  27.4578710 101.8985090  44.1819740  27.3414280 103.3902530  44.4122300
  31.7498570  91.6094560  54.2005560  31.1342840  92.1174230  53.6721020
  31.4294990  90.7092890  54.1431500  14.7524310  98.4512170  51.0271860
  14.9155350  97.9817530  50.2091230  15.2176760  97.9435730  51.6920700
  19.5243080  87.5817930  46.0632430  19.0811230  88.3627470  45.7316950
  20.0828070  87.9047820  46.7703370  23.8112890  90.4486450  51.6667750
  23.3492260  90.6569470  52.4787690  23.4091000  89.6345800  51.3638420
  28.8117400  91.6695400  52.7964410  27.9610990  91.3701150  53.1173480
  28.6519190  91.9137410  51.8848230  25.9067110  93.1697150  54.8963200
  26.2320520  92.3360900  54.5565430  26.6947440  93.6925670  55.0441530
  22.6401900  87.2028630  40.9438260  22.0156080  87.1988500  41.6691570
  22.5532020  86.3359590  40.5474230  21.5618980  88.1265260  47.9222030
  21.8591310  89.0328090  47.8414050  22.1104540  87.6384040  47.3081600
  19.3157300  92.7051500  43.7913680  19.0898220  92.4888670  44.6960300
  18.5349830  93.1379960  43.4459650  26.5455060  92.7114870  42.3904330
  25.9463950  93.4350670  42.2067950  27.0934670  92.6491650  41.6080780
  21.7556510  93.6037080  54.4573950  21.6600110  92.6631810  54.3074350
  22.5988490  93.8252150  54.0622020  25.1519930  91.3478410  44.4207610
  25.5449500  91.6650610  43.6076300  25.5136780  90.4690290  44.5352130
  16.8867050  90.0150750  52.6107730  16.4930440  90.8625960  52.8180510
  16.1985450  89.3777120  52.8016370  23.4612100  90.0985720  55.6804470
  22.7710420  89.9057920  56.3150560  24.2044400  90.3820360  56.2128770
  14.1884100  87.9379210  46.6437810  13.8997150  88.5082070  47.3562790
  14.9329860  87.4583660  47.0069040  14.3754330  91.8799330  37.8540530
  14.2929000  92.8230090  37.9955520  14.0237390  91.7374240  36.9752880
  25.7375070  93.9384160  48.5158390  25.0056190  94.4470970  48.8648490
  25.3399410  93.1214140  48.2147170  22.1752460  90.6138360  46.9210880
  22.1788520  90.1728310  46.0715420  23.0703580  90.9355690  47.0282700
  18.0254840  90.4964850  45.8805090  17.6854890  90.9740080  46.6372140
  17.2632160  90.0429970  45.5206190  22.2372610  91.6150440  39.9117640
  22.3585430  91.5736920  40.8603460  21.8521120  92.4774590  39.7564370
  26.2000980  89.3917840  47.9281330  26.2173720  89.8426490  48.7723180
  25.9516560  88.4923480  48.1414770  21.2494110  93.9251580  39.3100940
  20.6811010  93.4769830  38.6836850  21.9583110  94.2844360  38.7766090
  29.6271730  86.8050020  53.7667710  29.9517500  86.0739680  54.2925690
  29.6628240  86.4863660  52.8648700  16.3263290  97.8263600  53.1867670
  15.9418080  97.1857270  53.7850630  16.6375480  98.5299720  53.7562400
  22.4760430  94.6740140  48.6676290  22.8430560  94.1998710  49.4137630
  22.2865490  95.5481710  49.0084630  15.3400920  89.4183830  44.7969760
  15.0547840  89.0539500  45.6348380  15.2779780  88.6864290  44.1832900
  20.2659800  93.7148780  50.9860500  19.9616870  94.5940760  51.2110860
  21.2206260  93.7748570  51.0217940  18.7941590  97.9209770  41.5827350
  18.0203850  97.3807390  41.4226070  19.5236220  97.4016380  41.2445110
  29.5529570  96.9175130  47.3753740  30.2728690  97.4130420  46.9849850
  29.3511390  96.2393020  46.7307610  25.0139510  88.3113090  41.5183130
  24.2004120  87.8126260  41.4428440  24.8201460  89.1511340  41.1019480
  24.9348370  96.9884190  53.2622740  24.8685680  96.0679860  53.0080330
  24.3053510  97.0859630  53.9767380  27.7287900  92.6832740  39.8145290
  28.6167520  92.9949970  39.6396630  27.6992990  91.8104990  39.4225870
  18.8378990  97.5890150  45.2206160  19.3557660  96.7858410  45.1663050
  18.3863010  97.5269290  46.0622990  23.7248490  98.8556430  40.4933460
  24.0664190  99.5998660  39.9976780  22.8961200  99.1687550  40.8558290
  16.3223530  94.5551520  52.1331860  15.9638470  95.2205370  52.7205200
  16.0278090  93.7235070  52.5044480  19.5236650  95.0135760  55.0171410
  19.2236790  95.1592940  54.1199230  20.2947890  94.4541050  54.9244800
  24.8665100  99.8104760  53.0126540  24.8809640  98.8785720  52.7945450
  24.1590200  99.8964520  53.6516310  30.0002170  93.9944580  39.2825150
  29.9165890  94.4258800  38.4321590  30.7196360  94.4542930  39.7151970
  31.0776310  96.4512100  52.3595120  30.3524500  97.0440880  52.1624510
  31.6051770  96.4435640  51.5608490  31.0289420 100.8486840  42.0107280
  30.3865580 100.1942460  42.2851000  30.6420080 101.2541930  41.2347950
  26.6075900  98.1772270  45.8578970  26.9599720  97.5800400  45.1980340
  25.7238230  97.8516500  46.0287220  22.6939180  98.9369960  43.2649380
  23.3810310  99.4839170  43.6456970  21.9071600  99.4810690  43.2998990
  14.8331580  94.5542780  38.7566460  15.7026430  94.8367580  39.0402380
  14.3421900  95.3678650  38.6415270  21.9966390  95.9415990  42.8774740
  22.4529170  96.7521240  43.1034930  21.6454600  95.6239130  43.7093230
  24.2999000 101.4522330  50.1067040  24.9441220 101.6581710  50.7840460
  24.6628440 100.6910730  49.6537890  17.8978170  86.2853640  43.3497260
  17.7692800  86.2771540  44.2982180  17.0740190  86.6236730  42.9988270
  25.5731080  99.4554680  48.8244490  26.2153310  98.7547840  48.9376660
  26.0980430 100.2353120  48.6441380  29.4186800  99.7403300  38.5483630
  29.1924380  99.0233740  39.1408270  29.0283000  99.4915740  37.7105380
  27.3468700 100.2549580  52.0280550  27.6824940 100.8416270  52.7058470
  26.4269040 100.1242290  52.2578340  15.2002830 103.7670160  39.3228090
  15.5600470 104.3659500  38.6685360  15.0595170 104.3130050  40.0963120
  14.8972100  88.0444760  52.8103960  14.1830620  88.2441680  53.4156570
  15.3167140  87.2684330  53.1818760  29.0003050  97.6575240  40.2097790
  28.7124750  98.1187930  40.9975670  29.7955220  97.1973010  40.4782010
  15.1844690 102.0325020  53.7970490  15.2935810 101.0919760  53.6565880
  14.5325250 102.2979770  53.1484220  23.1757280 100.3040910  55.1968610
  22.8554150  99.5850150  55.7414300  22.5015640 100.9795980  55.2704670
  21.2171450 101.1501360  40.1401760  21.2081550 101.8831050  39.5246270
  20.2969810 100.9032940  40.2328720  16.8178090  96.3716250  40.8848520
  16.2106040  97.1115150  40.8943820  17.2927440  96.4615610  40.0586720
  26.3910880  90.5367070  50.5605410  26.7591700  89.7162280  50.8884980
  25.5309080  90.5968960  50.9761060  29.7572910  89.4924010  41.3692970
  29.1286070  89.5969680  40.6551200  29.2624830  89.7120790  42.1586850
  24.2031050 101.2129600  38.8026950  24.3043030 101.0093590  37.8728930
  23.3032790 100.9587880  39.0074730  21.7256940  91.7709960  42.7850850
  21.0173090  92.2396300  43.2264460  22.0101420  91.1131970  43.4196040
  23.3512870  93.1906660  50.7843380  23.8498120  93.6652480  51.4495230
  23.4935820  92.2670180  50.9913410  25.7572370  88.4960620  44.2246640
  25.6340150  88.5146750  43.2756150  26.7056930  88.5439560  44.3445040
  22.8449160 103.7315920  43.4974620  23.0990660 103.6937310  42.5753990
  21.8961640 103.6049250  43.4902870  19.9291960  90.0795040  40.1601560
  20.7782490  90.5165190  40.0941750  19.5623230  90.3915300  40.9873620
  30.5579730  89.4074620  51.6271770  30.0553330  90.1480020  51.9665580
  31.3736390  89.7958620  51.3108560  28.8501740  94.6507800  45.0733130
  27.9091880  94.6658030  45.2480820  29.1645810  93.8643760  45.5193430
  18.8283380  96.3327400  38.6337090  19.5946650  96.2208760  39.1962520
  18.9058070  95.6365370  37.9813860  17.5230140  93.7652470  39.3169980
  17.6033730  92.8179980  39.4287380  18.4149890  94.0959350  39.4230640
  30.8527320 101.8216650  46.7487390  30.9774740 102.6447820  47.2211200
  31.7192880 101.6107380  46.4011540  18.3244850 103.9147860  46.4204520
  19.0607330 103.3663320  46.6913090  18.7085770 104.7803870  46.2810510
  15.2090330  99.9821430  42.2946030  14.2830110 100.2242570  42.2851440
  15.6746760 100.8095690  42.1730780  17.3303130 103.0993930  55.6090100
  18.1315860 103.4205980  56.0225500  16.8154950 102.7389510  56.3310010
  21.4347160 103.0878170  38.2430090  22.2275770 103.3767000  37.7911880
  20.9151510 102.6570340  37.5642570  26.1667760  99.2073800  55.5565510
  25.5605920  99.2305400  54.8161260  25.8621870  98.4756840  56.0932760
  27.5968130 102.9354090  54.1674920  28.5489880 102.8512110  54.1175160
  27.4496350 103.5995800  54.8408710  30.4877330 102.3148300  39.6666830
  30.2018840 101.9013440  38.8521010  30.2896880 103.2436010  39.5467350
  15.0500940  95.5867390  54.5526150  15.5539960  95.0074670  55.1242380
  14.3108360  95.8707620  55.0902520  21.9524560  98.3081580  38.1072440
  21.8475200  97.6933930  38.8333820  21.7848780  97.7847470  37.3235450
  22.1038880  96.9938380  54.0861670  21.3384550  97.5623380  54.0016340
  22.2854840  96.7014590  53.1929900  25.1927290  97.3701610  38.7114430
  24.6437390  97.8170910  39.3557170  25.8146550  96.8650860  39.2352100
  29.2462230  98.7243710  54.6436690  29.9871700  99.0619470  54.1404150
  28.4834910  98.8935770  54.0906460  17.0824020  93.7296980  55.4476220
  17.1229360  93.4310850  56.3561450  17.9369520  94.1304590  55.2883740
  20.8602410  96.3292530  40.6079730  21.2818830  96.1632400  41.4511120
  20.9853250  95.5192760  40.1134870  19.0229830  92.3089080  53.4150710
  18.4926290  91.8180030  52.7874050  19.6917900  92.7373280  52.8808640
  23.3730050  95.3530140  37.8556830  23.8935710  94.6379160  37.4897980
  24.0198450  95.9916010  38.1557340  27.9207890  96.7758540  53.1791900
  28.3348910  96.9303620  54.0282320  26.9858890  96.9013760  53.3417680
  28.3930060  94.1154700  55.1831050  28.9750830  93.3607020  55.0951530
  28.5691830  94.6462140  54.4062530  19.5102130  89.2751450  53.4948000
  19.4159000  88.6572200  52.7698870  18.9299520  90.0017740  53.2677910
  22.2763570  87.8324690  50.5275390  21.8280870  87.8548950  49.6820940
  21.6428770  87.4343710  51.1245690  22.6823120  96.7279020  51.1487830
  23.1011230  97.5711750  50.9764070  21.7631750  96.8651060  50.9194610
  25.0187020  94.4595200  52.5325670  25.1383230  93.8636340  53.2720510
  25.8781020  94.4964890  52.1126970  27.3574920  95.0132390  51.1088180
  26.8310140  95.5375010  50.5053320  27.7006260  95.6459780  51.7397910
  19.7561310  92.4025760  37.5537890  19.5550370  91.5393120  37.9151230
  19.5853360  92.3159120  36.6159490  20.5330540 103.0332030  52.2645560
  19.9951630 103.7578090  51.9454260  20.7864500 102.5562370  51.4742900
  21.7855790  91.0016550  53.7901490  22.3755480  90.6932400  54.4779310
  20.9676030  90.5296300  53.9461390  26.6049220  90.6182360  54.0234510
  25.9164740  89.9563900  53.9584500  27.3255240  90.1720630  54.4682970
  27.2349620  87.2133990  40.0824770  27.5151910  86.3701890  40.4384190
  26.4615350  87.4457100  40.5963520  18.5544110  89.5026380  37.5415770
  18.8570010  89.5093810  36.6334920  19.2938700  89.1524240  38.0383430
  23.3892750 104.2683240  52.5232210  23.3151450 105.1718380  52.8304580
  22.4871590 103.9495140  52.4954280  21.7729040  88.4461000  38.5271970
  21.4251040  87.7684990  37.9474420  21.9741810  87.9850510  39.3415360
  23.9378080 103.4341750  40.1458570  24.8328870 103.7726720  40.1677330
  23.9695710 102.7121160  39.5182850  17.5774240  98.8068800  38.3745570
  18.0149110  99.3498470  39.0303150  18.0621970  97.9815750  38.3841910
  14.7920040 101.5957830  45.8265830  15.1223050 100.7278890  45.5944470
  15.2211040 101.8016350  46.6570790  19.3881960  99.9266840  43.4867800
  19.0877500  99.8031810  44.3871710  19.2819450  99.0675430  43.0783530
  15.2810250 102.4628420  48.5647460  14.8441240 102.6429220  49.3971610
  15.8487930 103.2203040  48.4229180  30.9172430 101.9645420  52.8524770
  30.3174420 102.0237980  52.1088690  31.0466330 101.0250400  52.9821620
  32.1573880  99.7063240  38.1894480  31.3266840  99.7739890  38.6601710
  32.3345710 100.5967360  37.8861340  31.6130340  96.4510720  40.6928680
  32.3749250  97.0207370  40.7988370  31.6284710  95.8837920  41.4636990
  15.1134680  94.9748650  44.9236340  14.4583520  94.7060290  44.2796040
  15.9512630  94.8653130  44.4738320  32.6190310  97.3060820  45.5370610
  32.9899140  96.5228140  45.1306580  33.2592240  97.9949920  45.3587910
  29.6024070  98.6897400  50.9500930  28.7883910  99.1194560  51.2126720
  30.0098270  99.3015810  50.3369980  31.6649510  96.7445090  37.8501200
  31.9398350  97.6523970  37.7220420  31.4760250  96.6807620  38.7863190
  28.0625120  89.7689940  39.1454830  28.4810000  89.5820920  38.3051490
  27.7561180  88.9168990  39.4557760  31.5614850  94.6814080  42.8430630
  31.1858450  93.9142010  42.4111920  30.8317970  95.0636780  43.3305560
  16.1510610  95.3601220  49.4639680  16.5183650  95.2728620  50.3435700
  15.5821430  94.5967770  49.3646540  30.9514470  93.8285600  52.4770150
  30.7200560  93.5998350  51.5768100  31.2119020  94.7485150  52.4315040
  15.7026610  92.2710310  53.3698100  14.8082660  92.2377070  53.7091810
  16.2424160  92.4697100  54.1349350  29.3902540  89.0542030  55.2549850
  30.2672720  89.0625430  55.6383850  29.4023380  88.3172870  54.6442200
  14.3272760  92.1847580  40.8661670  13.4236840  92.4477780  40.6913330
  14.8113380  92.4558750  40.0861630  30.8365810  92.9071570  46.1437870
  31.3603290  92.4134220  45.5128040  31.4225230  93.0421930  46.8885440
  31.0155530  92.9911440  49.6657420  30.0658240  92.9574980  49.7802410
  31.1968540  93.9011550  49.4307190  16.8699970  91.2413120  38.7756050
  17.5791670  90.8196340  38.2903330  16.1539910  91.3088350  38.1439400
  16.5174130  87.2952450  37.8158700  17.2402260  87.8361390  38.1339920
  16.7898650  87.0215870  36.9400240  30.3265780  92.1644920  42.0830280
  30.8224900  91.9315790  42.8679160  30.1281850  91.3256760  41.6667920
  16.2066320  86.5458640  47.7181320  16.8542510  85.9956020  47.2776480
  16.6268160  86.8001790  48.5397130  31.7552940  90.8005870  44.6167960
  31.6452220  90.6461910  45.5550230  32.5160530  90.2726810  44.3743370
  30.1018660  86.7400000  51.0750960  30.7390880  87.3534140  51.4410150
  30.2493550  86.7760660  50.1300190  32.6443210  88.6313790  37.8574100
  33.5692520  88.4994970  37.6492390  32.6219000  88.7106610  38.8110550
  32.7181700  89.4024450  40.4830810  31.9233200  89.3369570  41.0123720
  32.9224980  90.3375090  40.4716160  29.6600120 103.4416000  44.4769200
  30.2559190 103.1200570  43.8003620  29.9178270 102.9687820  45.2682470
  15.9598320  86.7014310  50.4606640  15.6113140  87.1578130  51.2264820
  15.6286020  85.8071440  50.5429070  17.5662690  99.8733910  54.6259830
  17.5232320  99.5026820  55.5074290  17.6973700 100.8111480  54.7661650
  21.2668720 101.4293500  50.2269550  21.0260080 101.6968060  49.3400070
  22.2071360 101.5999230  50.2820410  23.4723140  87.8926190  53.9826060
  23.4112030  88.4848020  54.7321470  24.4123520  87.7852150  53.8376320
  26.1097700  87.5496250  53.6218350  26.7238110  87.8675540  52.9599430
  26.6547260  87.0644840  54.2414210  32.5272880 103.4487880  51.0280190
  32.0331160 103.8456750  50.3107320  31.9186170 102.8237090  51.4217470
  16.6318960  86.2290510  53.7357410  17.1801950  86.0478560  52.9723520
  16.6974270  85.4384620  54.2713720  17.4050720 102.8196160  51.7457610
  16.8111040 102.6880860  52.4847650  17.3974560 101.9834300  51.2799710
  26.8505740  86.1128390  49.9487640  25.9765580  86.4463500  49.7460570
  26.7416490  85.6401570  50.7739510  27.7577720  88.3199260  51.3329360
  27.4291080  87.5051020  50.9531090  28.7060020  88.2769070  51.2095050
  30.2112330 104.0911300  48.3066930  29.7515300 104.8427110  47.9324950
  29.5824790 103.3717770  48.2481730  17.0362950 100.1854540  50.6965650
  16.3097010  99.5659830  50.6291600  17.0972100 100.5795150  49.8263730
  20.6408050 102.3999540  47.4815060  21.1573070 101.7886900  46.9563320
  21.2905430 102.9028320  47.9726070  23.3803550 103.2908030  48.3084040
  23.6681360 103.0362330  47.4317050  23.8926770 102.7385390  48.8989610
  24.5980560  87.0298230  48.8880550  23.8152350  87.5043730  49.1677310
  24.3043490  86.1253060  48.7793730  29.1501630  87.7321330  46.9329640
  29.5909720  87.6766430  46.0851240  28.8809220  88.6479340  47.0039820
  31.0140200  87.3636570  44.9438460  30.9528600  86.4197790  44.7969480
  31.7932230  87.4716660  45.4891920  15.3192950 103.5028930  43.9062410
  15.1514990 102.8699610  44.6044300  14.4527460 103.7088330  43.5556600
  15.9420970  87.3345710  41.4094270  16.7000330  87.4474590  40.8358300
  15.4798140  88.1714910  41.3637700  22.4834780  89.4484980  44.3996580
  21.6709290  89.0741870  44.0592460  22.9876420  88.6930060  44.7017770
  26.9859760  86.1127430  45.6379650  27.5889130  86.6847640  46.1128170
  26.2452750  86.6766870  45.4153550  30.1294360  86.5148990  40.9119930
  30.3244990  87.4132440  41.1787360  29.3424230  86.2836070  41.4052880
  16.9255650 102.1962160  41.3512550  16.4003270 102.5770190  40.6474510
  16.8500230 102.8212930  42.0722260  18.3146120  87.8609760  39.9496240
  18.8438880  87.0739560  39.8204190  18.9474440  88.5400950  40.1831770
  20.5083960  87.5984900  43.0041630  19.8786700  86.8972210  43.1711760
  19.9689100  88.3589030  42.7874790  23.4475910 104.2124130  55.6752240
  24.3743220 103.9768400  55.7188200  23.4326340 105.0396130  55.1938270
  31.6820970 103.7549700  42.6726490  31.8573160 103.0687440  42.0287410
  30.9842540 104.2796750  42.2803160  20.6339520  86.8768880  55.4394120
  20.3523790  87.3802480  54.6754940  21.0159220  86.0790630  55.0736250
  19.5248620 104.1444540  40.2261800  20.2567440 103.8603820  39.6785690
  19.7842290 103.9057820  41.1161180  18.6863410 100.2609270  40.2308130
  18.0572290 100.7294370  40.7793960  18.8011240  99.4158490  40.6654320
  27.2354980  86.2922460  56.0174590  27.1220430  86.6117070  56.9126110
  28.0524720  86.6934970  55.7211870  30.0153470 103.4393990  55.4993280
  30.8078790 102.9443220  55.2919240  30.3086620 104.1184130  56.1068890
  26.1413130  94.3114930  26.3809330  26.0607180  93.3969540  26.1101040
  25.7277550  94.8082000  25.6749040  24.2731170  96.0893950  28.2618600
  23.4973270  95.6094390  28.5517170  24.9244100  95.4099600  28.0874760
  18.2897000  96.4013760  29.1394360  17.4581880  96.1462470  29.5390870
  18.8977980  96.4724530  29.8752280  28.2938600 100.4954140  27.0417730
  27.8320130  99.7241380  27.3704900  29.1064150 100.5220210  27.5470180
  18.2698260 100.4353850  29.3352380  18.5726300  99.5451590  29.1562600
  19.0141850 100.9924070  29.1074630  16.6988950  91.3615650  22.9236750
  15.8105650  91.7031620  22.8216630  16.9830140  91.1615970  22.0317580
  14.6621960  93.9621300  28.8076450  15.2338070  93.1943500  28.8080090
  14.6623500  94.2610060  27.8983060  24.5201910 102.7812150  26.6621720
  23.9013350 103.2369650  26.0916160  25.3753690 102.9363610  26.2611420
  23.7140160  98.7651140  28.2688760  23.6448440  97.8241080  28.1077890
  24.4760020  98.8552550  28.8411330  15.9046830  89.3705660  30.5945380
  15.7249670  88.4731410  30.8748140  15.5026910  89.9177530  31.2692330
  24.7445330  91.5721520  28.4957690  25.1210150  90.6993400  28.3831360
  24.6464840  91.9080220  27.6048130  18.8750340  89.9447150  23.9575130
  18.9817090  90.8450880  24.2643890  17.9642700  89.8965120  23.6669780
  28.5269450  89.0671960  25.4286030  29.3479070  88.5768530  25.4711510
  28.5603530  89.6569620  26.1817870  16.5233500  91.8666160  29.2027720
  17.2043610  92.1304530  29.8215120  16.2081550  91.0267030  29.5365730
  20.7158070  92.9133520  28.2900310  21.2236290  93.4114490  28.9305330
  21.2471310  92.1368720  28.1139670  32.8169000  91.0838710  31.9929660
  32.1121170  91.4720420  31.4744770  33.0826920  91.7789000  32.5950590
  18.9994170  87.5532080  32.5563730  19.0012610  88.0704470  31.7509630
  18.1698480  87.0762260  32.5333660  25.3865260  97.6651390  24.0553630
  24.7682530  98.1300840  23.4916350  25.8988510  98.3578870  24.4723140
  20.2497020  97.1927260  30.7337230  19.9166400  97.8196180  31.3758300
  20.4263700  97.7189140  29.9538900  28.7630930  91.0072340  28.2013570
  28.0586500  91.2957230  28.7816680  29.1243090  91.8172450  27.8413130
  18.6809500  89.2642040  30.5634180  19.0226310  90.1084090  30.2688050
  17.7425310  89.4125780  30.6799520  19.4616120  99.1608060  32.5486410
  20.0790120  99.8359140  32.2670860  18.6009240  99.5696040  32.4573910
  14.7548460  98.3507920  21.4293260  14.3776440  98.8395020  20.6978160
  15.0121530  99.0233200  22.0599790  30.3793710 100.6247470  30.4641050
  29.6957230 101.2946580  30.4557720  30.9188000 100.8228120  29.6985910
  31.8317850  90.4527130  28.5922780  30.8842760  90.4866110  28.7238210
  32.1567840  91.2666080  28.9772140  22.3637390  86.7524310  26.8878770
  22.6712370  86.1971200  26.1714270  21.4338090  86.8868770  26.7051760
  27.9152450 102.4691600  29.1786230  27.9279610 102.0653890  28.3108490
  27.3627670 103.2438890  29.0747660  29.2097870  99.1907820  24.2676400
  29.0994200  98.2482150  24.3925820  29.2066120  99.5523460  25.1539160
  27.3137890  97.3721440  30.5068840  27.7306680  97.1581550  29.6722300
  28.0377710  97.6294230  31.0777460  24.7518150  94.8173140  23.6238890
  23.8247430  94.7510520  23.8527360  24.9042970  95.7553270  23.5094130
  24.7387230  91.0890140  20.6206050  23.7990900  91.2504100  20.7058510
  25.0570490  91.8075820  20.0742040  31.2599990  95.7708660  30.5985080
  30.4318620  95.8401750  30.1235210  31.8550470  96.3562970  30.1300910
  28.7815440  96.3793440  24.1274140  28.1627860  96.0412990  23.4800440
  28.7639890  95.7353200  24.8353330  28.2242000  92.5577980  31.5439950
  27.8113180  93.3831690  31.7979940  27.4917950  91.9723020  31.3516310
  20.3574790  95.3437880  26.4058620  19.9531790  94.6315130  25.9104520
  20.4437910  94.9991120  27.2946660  20.8256490  99.0305440  28.5697830
  20.5284780  98.4250910  27.8905610  21.7756310  99.0682750  28.4587190
  19.0703410  92.1181090  30.1857660  19.6218000  92.2276430  29.4110910
  19.5846920  92.4918690  30.9012890  28.9142100 102.6037310  32.2320930
  28.4372660 103.4109500  32.0393540  28.2303890 101.9515640  32.3847140
  19.9174920  98.7687130  35.2205630  19.0203450  98.9927100  35.4679030
  19.9427790  98.8922070  34.2717030  26.9580140  95.6180250  21.1346890
  27.3973420  94.7802680  20.9884710  27.6708560  96.2509650  21.2211030
  18.7446140  95.6400450  33.7963000  18.6053910  96.5123250  34.1650400
  17.8627500  95.2973260  33.6510940  25.0675520 100.5576320  25.1028130
  25.5071430 101.3000650  24.6883520  25.0062410 100.8002890  26.0267090
  20.5426490 101.5822150  36.0048150  20.5141920 101.9865100  35.1376580
  20.3791460 100.6532510  35.8419750  30.5397280  86.8723060  19.4487930
  30.2269940  86.9649890  20.3487000  31.3009750  87.4504090  19.3985360
  17.0579420  94.2382860  23.9065270  16.9377020  94.9644950  23.2946540
  16.7480310  93.4685770  23.4293180  32.4941310 102.3649250  37.3012320
  32.9701030 102.8432140  37.9801400  33.1148470 102.2966740  36.5757820
  14.6964790  97.4098000  29.7133910  14.7745210  97.5446770  28.7689630
  15.3106470  96.7013890  29.9062030  15.9412420  99.1098190  26.1240090
  15.5340500  99.2512780  25.2693690  16.8325430  98.8258350  25.9211300
  31.8974560  99.5562100  34.4612330  32.0237620  99.3173980  33.5429510
  31.9395940  98.7246640  34.9334410  25.7591300 103.2590100  33.0307140
  26.2735970 103.1698110  33.8329570  24.9160380 103.6049800  33.3235050
  27.7345700 103.5445440  22.4591140  27.5746840 103.2548380  23.3572970
  27.5692410 102.7685570  21.9236370  20.2134080 103.3243970  24.2362760
  20.0376560 102.4079510  24.0230560  19.3589820 103.6831260  24.4760560
  27.4371830 101.0533000  21.0189140  26.7436990 101.0510290  20.3591420
  28.1794690 100.6292320  20.5883310  27.0021760 102.6795710  25.0937630
  27.4578710 101.8985090  25.4076250  27.3414280 103.3902530  25.6378810
  31.7498570  91.6094560  35.4262070  31.1342840  92.1174230  34.8977530
  31.4294990  90.7092890  35.3688010  14.7524310  98.4512170  32.2528370
  14.9155350  97.9817530  31.4347740  15.2176760  97.9435730  32.9177210
  19.5243080  87.5817930  27.2888940  19.0811230  88.3627470  26.9573460
  20.0828070  87.9047820  27.9959880  23.8112890  90.4486450  32.8924260
  23.3492260  90.6569470  33.7044200  23.4091000  89.6345800  32.5894930
  28.8117400  91.6695400  34.0220920  27.9610990  91.3701150  34.3429990
  28.6519190  91.9137410  33.1104740  25.9067110  93.1697150  36.1219710
  26.2320520  92.3360900  35.7821940  26.6947440  93.6925670  36.2698040
  22.6401900  87.2028630  22.1694770  22.0156080  87.1988500  22.8948080
  22.5532020  86.3359590  21.7730740  21.5618980  88.1265260  29.1478540
  21.8591310  89.0328090  29.0670560  22.1104540  87.6384040  28.5338110
  19.3157300  92.7051500  25.0170190  19.0898220  92.4888670  25.9216810
  18.5349830  93.1379960  24.6716160  26.5455060  92.7114870  23.6160840
  25.9463950  93.4350670  23.4324460  27.0934670  92.6491650  22.8337290
  21.7556510  93.6037080  35.6830460  21.6600110  92.6631810  35.5330860
  22.5988490  93.8252150  35.2878530  25.1519930  91.3478410  25.6464120
  25.5449500  91.6650610  24.8332810  25.5136780  90.4690290  25.7608640
  16.8867050  90.0150750  33.8364240  16.4930440  90.8625960  34.0437020
  16.1985450  89.3777120  34.0272880  23.4612100  90.0985720  36.9060980
  22.7710420  89.9057920  37.5407070  24.2044400  90.3820360  37.4385280
  14.1884100  87.9379210  27.8694320  13.8997150  88.5082070  28.5819300
  14.9329860  87.4583660  28.2325550  14.3754330  91.8799330  19.0797040
  14.2929000  92.8230090  19.2212030  14.0237390  91.7374240  18.2009390
  25.7375070  93.9384160  29.7414900  25.0056190  94.4470970  30.0905000
  25.3399410  93.1214140  29.4403680  22.1752460  90.6138360  28.1467390
  22.1788520  90.1728310  27.2971930  23.0703580  90.9355690  28.2539210
  18.0254840  90.4964850  27.1061600  17.6854890  90.9740080  27.8628650
  17.2632160  90.0429970  26.7462700  22.2372610  91.6150440  21.1374150
  22.3585430  91.5736920  22.0859970  21.8521120  92.4774590  20.9820880
  26.2000980  89.3917840  29.1537840  26.2173720  89.8426490  29.9979690
  25.9516560  88.4923480  29.3671280  21.2494110  93.9251580  20.5357450
  20.6811010  93.4769830  19.9093360  21.9583110  94.2844360  20.0022600
  29.6271730  86.8050020  34.9924220  29.9517500  86.0739680  35.5182200
  29.6628240  86.4863660  34.0905210  16.3263290  97.8263600  34.4124180
  15.9418080  97.1857270  35.0107140  16.6375480  98.5299720  34.9818910
  22.4760430  94.6740140  29.8932800  22.8430560  94.1998710  30.6394140
  22.2865490  95.5481710  30.2341140  15.3400920  89.4183830  26.0226270
  15.0547840  89.0539500  26.8604890  15.2779780  88.6864290  25.4089410
  20.2659800  93.7148780  32.2117010  19.9616870  94.5940760  32.4367370
  21.2206260  93.7748570  32.2474450  18.7941590  97.9209770  22.8083860
  18.0203850  97.3807390  22.6482580  19.5236220  97.4016380  22.4701620
  29.5529570  96.9175130  28.6010250  30.2728690  97.4130420  28.2106360
  29.3511390  96.2393020  27.9564120  25.0139510  88.3113090  22.7439640
  24.2004120  87.8126260  22.6684950  24.8201460  89.1511340  22.3275990
  24.9348370  96.9884190  34.4879250  24.8685680  96.0679860  34.2336840
  24.3053510  97.0859630  35.2023890  27.7287900  92.6832740  21.0401800
  28.6167520  92.9949970  20.8653140  27.6992990  91.8104990  20.6482380
  18.8378990  97.5890150  26.4462670  19.3557660  96.7858410  26.3919560
  18.3863010  97.5269290  27.2879500  23.7248490  98.8556430  21.7189970
  24.0664190  99.5998660  21.2233290  22.8961200  99.1687550  22.0814800
  16.3223530  94.5551520  33.3588370  15.9638470  95.2205370  33.9461710
  16.0278090  93.7235070  33.7300990  19.5236650  95.0135760  36.2427920
  19.2236790  95.1592940  35.3455740  20.2947890  94.4541050  36.1501310
  24.8665100  99.8104760  34.2383050  24.8809640  98.8785720  34.0201960
  24.1590200  99.8964520  34.8772820  30.0002170  93.9944580  20.5081660
  29.9165890  94.4258800  19.6578100  30.7196360  94.4542930  20.9408480
  31.0776310  96.4512100  33.5851630  30.3524500  97.0440880  33.3881020
  31.6051770  96.4435640  32.7865000  31.0289420 100.8486840  23.2363790
  30.3865580 100.1942460  23.5107510  30.6420080 101.2541930  22.4604460
  26.6075900  98.1772270  27.0835480  26.9599720  97.5800400  26.4236850
  25.7238230  97.8516500  27.2543730  22.6939180  98.9369960  24.4905890
  23.3810310  99.4839170  24.8713480  21.9071600  99.4810690  24.5255500
  14.8331580  94.5542780  19.9822970  15.7026430  94.8367580  20.2658890
  14.3421900  95.3678650  19.8671780  21.9966390  95.9415990  24.1031250
  22.4529170  96.7521240  24.3291440  21.6454600  95.6239130  24.9349740
  24.2999000 101.4522330  31.3323550  24.9441220 101.6581710  32.0096970
  24.6628440 100.6910730  30.8794400  17.8978170  86.2853640  24.5753770
  17.7692800  86.2771540  25.5238690  17.0740190  86.6236730  24.2244780
  25.5731080  99.4554680  30.0501000  26.2153310  98.7547840  30.1633170
  26.0980430 100.2353120  29.8697890  29.4186800  99.7403300  19.7740140
  29.1924380  99.0233740  20.3664780  29.0283000  99.4915740  18.9361890
  27.3468700 100.2549580  33.2537060  27.6824940 100.8416270  33.9314980
  26.4269040 100.1242290  33.4834850  15.2002830 103.7670160  20.5484600
  15.5600470 104.3659500  19.8941870  15.0595170 104.3130050  21.3219630
  14.8972100  88.0444760  34.0360470  14.1830620  88.2441680  34.6413080
  15.3167140  87.2684330  34.4075270  29.0003050  97.6575240  21.4354300
  28.7124750  98.1187930  22.2232180  29.7955220  97.1973010  21.7038520
  15.1844690 102.0325020  35.0227000  15.2935810 101.0919760  34.8822390
  14.5325250 102.2979770  34.3740730  23.1757280 100.3040910  36.4225120
  22.8554150  99.5850150  36.9670810  22.5015640 100.9795980  36.4961180
  21.2171450 101.1501360  21.3658270  21.2081550 101.8831050  20.7502780
  20.2969810 100.9032940  21.4585230  16.8178090  96.3716250  22.1105030
  16.2106040  97.1115150  22.1200330  17.2927440  96.4615610  21.2843230
  26.3910880  90.5367070  31.7861920  26.7591700  89.7162280  32.1141490
  25.5309080  90.5968960  32.2017570  29.7572910  89.4924010  22.5949480
  29.1286070  89.5969680  21.8807710  29.2624830  89.7120790  23.3843360
  24.2031050 101.2129600  20.0283460  24.3043030 101.0093590  19.0985440
  23.3032790 100.9587880  20.2331240  21.7256940  91.7709960  24.0107360
  21.0173090  92.2396300  24.4520970  22.0101420  91.1131970  24.6452550
  23.3512870  93.1906660  32.0099890  23.8498120  93.6652480  32.6751740
  23.4935820  92.2670180  32.2169920  25.7572370  88.4960620  25.4503150
  25.6340150  88.5146750  24.5012660  26.7056930  88.5439560  25.5701550
  22.8449160 103.7315920  24.7231130  23.0990660 103.6937310  23.8010500
  21.8961640 103.6049250  24.7159380  19.9291960  90.0795040  21.3858070
  20.7782490  90.5165190  21.3198260  19.5623230  90.3915300  22.2130130
  30.5579730  89.4074620  32.8528280  30.0553330  90.1480020  33.1922090
  31.3736390  89.7958620  32.5365070  28.8501740  94.6507800  26.2989640
  27.9091880  94.6658030  26.4737330  29.1645810  93.8643760  26.7449940
  18.8283380  96.3327400  19.8593600  19.5946650  96.2208760  20.4219030
  18.9058070  95.6365370  19.2070370  17.5230140  93.7652470  20.5426490
  17.6033730  92.8179980  20.6543890  18.4149890  94.0959350  20.6487150
  30.8527320 101.8216650  27.9743900  30.9774740 102.6447820  28.4467710
  31.7192880 101.6107380  27.6268050  18.3244850 103.9147860  27.6461030
  19.0607330 103.3663320  27.9169600  18.7085770 104.7803870  27.5067020
  15.2090330  99.9821430  23.5202540  14.2830110 100.2242570  23.5107950
  15.6746760 100.8095690  23.3987290  17.3303130 103.0993930  36.8346610
  18.1315860 103.4205980  37.2482010  16.8154950 102.7389510  37.5566520
  21.4347160 103.0878170  19.4686600  22.2275770 103.3767000  19.0168390
  20.9151510 102.6570340  18.7899080  26.1667760  99.2073800  36.7822020
  25.5605920  99.2305400  36.0417770  25.8621870  98.4756840  37.3189270
  27.5968130 102.9354090  35.3931430  28.5489880 102.8512110  35.3431670
  27.4496350 103.5995800  36.0665220  30.4877330 102.3148300  20.8923340
  30.2018840 101.9013440  20.0777520  30.2896880 103.2436010  20.7723860
  15.0500940  95.5867390  35.7782660  15.5539960  95.0074670  36.3498890
  14.3108360  95.8707620  36.3159030  21.9524560  98.3081580  19.3328950
  21.8475200  97.6933930  20.0590330  21.7848780  97.7847470  18.5491960
  22.1038880  96.9938380  35.3118180  21.3384550  97.5623380  35.2272850
  22.2854840  96.7014590  34.4186410  25.1927290  97.3701610  19.9370940
  24.6437390  97.8170910  20.5813680  25.8146550  96.8650860  20.4608610
  29.2462230  98.7243710  35.8693200  29.9871700  99.0619470  35.3660660
  28.4834910  98.8935770  35.3162970  17.0824020  93.7296980  36.6732730
  17.1229360  93.4310850  37.5817960  17.9369520  94.1304590  36.5140250
  20.8602410  96.3292530  21.8336240  21.2818830  96.1632400  22.6767630
  20.9853250  95.5192760  21.3391380  19.0229830  92.3089080  34.6407220
  18.4926290  91.8180030  34.0130560  19.6917900  92.7373280  34.1065150
  23.3730050  95.3530140  19.0813340  23.8935710  94.6379160  18.7154490
  24.0198450  95.9916010  19.3813850  27.9207890  96.7758540  34.4048410
  28.3348910  96.9303620  35.2538830  26.9858890  96.9013760  34.5674190
  28.3930060  94.1154700  36.4087560  28.9750830  93.3607020  36.3208040
  28.5691830  94.6462140  35.6319040  19.5102130  89.2751450  34.7204510
  19.4159000  88.6572200  33.9955380  18.9299520  90.0017740  34.4934420
  22.2763570  87.8324690  31.7531900  21.8280870  87.8548950  30.9077450
  21.6428770  87.4343710  32.3502200  22.6823120  96.7279020  32.3744340
  23.1011230  97.5711750  32.2020580  21.7631750  96.8651060  32.1451120
  25.0187020  94.4595200  33.7582180  25.1383230  93.8636340  34.4977020
  25.8781020  94.4964890  33.3383480  27.3574920  95.0132390  32.3344690
  26.8310140  95.5375010  31.7309830  27.7006260  95.6459780  32.9654420
  19.7561310  92.4025760  18.7794400  19.5550370  91.5393120  19.1407740
  19.5853360  92.3159120  17.8416000  20.5330540 103.0332030  33.4902070
  19.9951630 103.7578090  33.1710770  20.7864500 102.5562370  32.6999410
  21.7855790  91.0016550  35.0158000  22.3755480  90.6932400  35.7035820
  20.9676030  90.5296300  35.1717900  26.6049220  90.6182360  35.2491020
  25.9164740  89.9563900  35.1841010  27.3255240  90.1720630  35.6939480
  27.2349620  87.2133990  21.3081280  27.5151910  86.3701890  21.6640700
  26.4615350  87.4457100  21.8220030  18.5544110  89.5026380  18.7672280
  18.8570010  89.5093810  17.8591430  19.2938700  89.1524240  19.2639940
  23.3892750 104.2683240  33.7488720  23.3151450 105.1718380  34.0561090
  22.4871590 103.9495140  33.7210790  21.7729040  88.4461000  19.7528480
  21.4251040  87.7684990  19.1730930  21.9741810  87.9850510  20.5671870
  23.9378080 103.4341750  21.3715080  24.8328870 103.7726720  21.3933840
  23.9695710 102.7121160  20.7439360  17.5774240  98.8068800  19.6002080
  18.0149110  99.3498470  20.2559660  18.0621970  97.9815750  19.6098420
  14.7920040 101.5957830  27.0522340  15.1223050 100.7278890  26.8200980
  15.2211040 101.8016350  27.8827300  19.3881960  99.9266840  24.7124310
  19.0877500  99.8031810  25.6128220  19.2819450  99.0675430  24.3040040
  15.2810250 102.4628420  29.7903970  14.8441240 102.6429220  30.6228120
  15.8487930 103.2203040  29.6485690  30.9172430 101.9645420  34.0781280
  30.3174420 102.0237980  33.3345200  31.0466330 101.0250400  34.2078130
  32.1573880  99.7063240  19.4150990  31.3266840  99.7739890  19.8858220
  32.3345710 100.5967360  19.1117850  31.6130340  96.4510720  21.9185190
  32.3749250  97.0207370  22.0244880  31.6284710  95.8837920  22.6893500
  15.1134680  94.9748650  26.1492850  14.4583520  94.7060290  25.5052550
  15.9512630  94.8653130  25.6994830  32.6190310  97.3060820  26.7627120
  32.9899140  96.5228140  26.3563090  33.2592240  97.9949920  26.5844420
  29.6024070  98.6897400  32.1757440  28.7883910  99.1194560  32.4383230
  30.0098270  99.3015810  31.5626490  31.6649510  96.7445090  19.0757710
  31.9398350  97.6523970  18.9476930  31.4760250  96.6807620  20.0119700
  28.0625120  89.7689940  20.3711340  28.4810000  89.5820920  19.5308000
  27.7561180  88.9168990  20.6814270  31.5614850  94.6814080  24.0687140
  31.1858450  93.9142010  23.6368430  30.8317970  95.0636780  24.5562070
  16.1510610  95.3601220  30.6896190  16.5183650  95.2728620  31.5692210
  15.5821430  94.5967770  30.5903050  30.9514470  93.8285600  33.7026660
  30.7200560  93.5998350  32.8024610  31.2119020  94.7485150  33.6571550
  15.7026610  92.2710310  34.5954610  14.8082660  92.2377070  34.9348320
  16.2424160  92.4697100  35.3605860  29.3902540  89.0542030  36.4806360
  30.2672720  89.0625430  36.8640360  29.4023380  88.3172870  35.8698710
  14.3272760  92.1847580  22.0918180  13.4236840  92.4477780  21.9169840
  14.8113380  92.4558750  21.3118140  30.8365810  92.9071570  27.3694380
  31.3603290  92.4134220  26.7384550  31.4225230  93.0421930  28.1141950
  31.0155530  92.9911440  30.8913930  30.0658240  92.9574980  31.0058920
  31.1968540  93.9011550  30.6563700  16.8699970  91.2413120  20.0012560
  17.5791670  90.8196340  19.5159840  16.1539910  91.3088350  19.3695910
  16.5174130  87.2952450  19.0415210  17.2402260  87.8361390  19.3596430
  16.7898650  87.0215870  18.1656750  30.3265780  92.1644920  23.3086790
  30.8224900  91.9315790  24.0935670  30.1281850  91.3256760  22.8924430
  16.2066320  86.5458640  28.9437830  16.8542510  85.9956020  28.5032990
  16.6268160  86.8001790  29.7653640  31.7552940  90.8005870  25.8424470
  31.6452220  90.6461910  26.7806740  32.5160530  90.2726810  25.5999880
  30.1018660  86.7400000  32.3007470  30.7390880  87.3534140  32.6666660
  30.2493550  86.7760660  31.3556700  32.6443210  88.6313790  19.0830610
  33.5692520  88.4994970  18.8748900  32.6219000  88.7106610  20.0367060
  32.7181700  89.4024450  21.7087320  31.9233200  89.3369570  22.2380230
  32.9224980  90.3375090  21.6972670  29.6600120 103.4416000  25.7025710
  30.2559190 103.1200570  25.0260130  29.9178270 102.9687820  26.4938980
  15.9598320  86.7014310  31.6863150  15.6113140  87.1578130  32.4521330
  15.6286020  85.8071440  31.7685580  17.5662690  99.8733910  35.8516340
  17.5232320  99.5026820  36.7330800  17.6973700 100.8111480  35.9918160
  21.2668720 101.4293500  31.4526060  21.0260080 101.6968060  30.5656580
  22.2071360 101.5999230  31.5076920  23.4723140  87.8926190  35.2082570
  23.4112030  88.4848020  35.9577980  24.4123520  87.7852150  35.0632830
  26.1097700  87.5496250  34.8474860  26.7238110  87.8675540  34.1855940
  26.6547260  87.0644840  35.4670720  32.5272880 103.4487880  32.2536700
  32.0331160 103.8456750  31.5363830  31.9186170 102.8237090  32.6473980
  16.6318960  86.2290510  34.9613920  17.1801950  86.0478560  34.1980030
  16.6974270  85.4384620  35.4970230  17.4050720 102.8196160  32.9714120
  16.8111040 102.6880860  33.7104160  17.3974560 101.9834300  32.5056220
  26.8505740  86.1128390  31.1744150  25.9765580  86.4463500  30.9717080
  26.7416490  85.6401570  31.9996020  27.7577720  88.3199260  32.5585870
  27.4291080  87.5051020  32.1787600  28.7060020  88.2769070  32.4351560
  30.2112330 104.0911300  29.5323440  29.7515300 104.8427110  29.1581460
  29.5824790 103.3717770  29.4738240  17.0362950 100.1854540  31.9222160
  16.3097010  99.5659830  31.8548110  17.0972100 100.5795150  31.0520240
  20.6408050 102.3999540  28.7071570  21.1573070 101.7886900  28.1819830
  21.2905430 102.9028320  29.1982580  23.3803550 103.2908030  29.5340550
  23.6681360 103.0362330  28.6573560  23.8926770 102.7385390  30.1246120
  24.5980560  87.0298230  30.1137060  23.8152350  87.5043730  30.3933820
  24.3043490  86.1253060  30.0050240  29.1501630  87.7321330  28.1586150
  29.5909720  87.6766430  27.3107750  28.8809220  88.6479340  28.2296330
  31.0140200  87.3636570  26.1694970  30.9528600  86.4197790  26.0225990
  31.7932230  87.4716660  26.7148430  15.3192950 103.5028930  25.1318920
  15.1514990 102.8699610  25.8300810  14.4527460 103.7088330  24.7813110
  15.9420970  87.3345710  22.6350780  16.7000330  87.4474590  22.0614810
  15.4798140  88.1714910  22.5894210  22.4834780  89.4484980  25.6253090
  21.6709290  89.0741870  25.2848970  22.9876420  88.6930060  25.9274280
  26.9859760  86.1127430  26.8636160  27.5889130  86.6847640  27.3384680
  26.2452750  86.6766870  26.6410060  30.1294360  86.5148990  22.1376440
  30.3244990  87.4132440  22.4043870  29.3424230  86.2836070  22.6309390
  16.9255650 102.1962160  22.5769060  16.4003270 102.5770190  21.8731020
  16.8500230 102.8212930  23.2978770  18.3146120  87.8609760  21.1752750
  18.8438880  87.0739560  21.0460700  18.9474440  88.5400950  21.4088280
  20.5083960  87.5984900  24.2298140  19.8786700  86.8972210  24.3968270
  19.9689100  88.3589030  24.0131300  23.4475910 104.2124130  36.9008750
  24.3743220 103.9768400  36.9444710  23.4326340 105.0396130  36.4194780
  31.6820970 103.7549700  23.8983000  31.8573160 103.0687440  23.2543920
  30.9842540 104.2796750  23.5059670  20.6339520  86.8768880  36.6650630
  20.3523790  87.3802480  35.9011450  21.0159220  86.0790630  36.2992760
  19.5248620 104.1444540  21.4518310  20.2567440 103.8603820  20.9042200
  19.7842290 103.9057820  22.3417690  18.6863410 100.2609270  21.4564640
  18.0572290 100.7294370  22.0050470  18.8011240  99.4158490  21.8910830
  27.2354980  86.2922460  37.2431100  27.1220430  86.6117070  38.1382620
  28.0524720  86.6934970  36.9468380  30.0153470 103.4393990  36.7249790
  30.8078790 102.9443220  36.5175750  30.3086620 104.1184130  37.3325400
  26.1413130  94.3114930   7.6065840  26.0607180  93.3969540   7.3357550
  25.7277550  94.8082000   6.9005550  24.2731170  96.0893950   9.4875110
  23.4973270  95.6094390   9.7773680  24.9244100  95.4099600   9.3131270
  18.2897000  96.4013760  10.3650870  17.4581880  96.1462470  10.7647380
  18.8977980  96.4724530  11.1008790  28.2938600 100.4954140   8.2674240
  27.8320130  99.7241380   8.5961410  29.1064150 100.5220210   8.7726690
  18.2698260 100.4353850  10.5608890  18.5726300  99.5451590  10.3819110
  19.0141850 100.9924070  10.3331140  16.6988950  91.3615650   4.1493260
  15.8105650  91.7031620   4.0473140  16.9830140  91.1615970   3.2574090
  14.6621960  93.9621300  10.0332960  15.2338070  93.1943500  10.0336600
  14.6623500  94.2610060   9.1239570  24.5201910 102.7812150   7.8878230
  23.9013350 103.2369650   7.3172670  25.3753690 102.9363610   7.4867930
  23.7140160  98.7651140   9.4945270  23.6448440  97.8241080   9.3334400
  24.4760020  98.8552550  10.0667840  15.9046830  89.3705660  11.8201890
  15.7249670  88.4731410  12.1004650  15.5026910  89.9177530  12.4948840
  24.7445330  91.5721520   9.7214200  25.1210150  90.6993400   9.6087870
  24.6464840  91.9080220   8.8304640  18.8750340  89.9447150   5.1831640
  18.9817090  90.8450880   5.4900400  17.9642700  89.8965120   4.8926290
  28.5269450  89.0671960   6.6542540  29.3479070  88.5768530   6.6968020
  28.5603530  89.6569620   7.4074380  16.5233500  91.8666160  10.4284230
  17.2043610  92.1304530  11.0471630  16.2081550  91.0267030  10.7622240
  20.7158070  92.9133520   9.5156820  21.2236290  93.4114490  10.1561840
  21.2471310  92.1368720   9.3396180  32.8169000  91.0838710  13.2186170
  32.1121170  91.4720420  12.7001280  33.0826920  91.7789000  13.8207100
  18.9994170  87.5532080  13.7820240  19.0012610  88.0704470  12.9766140
  18.1698480  87.0762260  13.7590170  25.3865260  97.6651390   5.2810140
  24.7682530  98.1300840   4.7172860  25.8988510  98.3578870   5.6979650
  20.2497020  97.1927260  11.9593740  19.9166400  97.8196180  12.6014810
  20.4263700  97.7189140  11.1795410  28.7630930  91.0072340   9.4270080
  28.0586500  91.2957230  10.0073190  29.1243090  91.8172450   9.0669640
  18.6809500  89.2642040  11.7890690  19.0226310  90.1084090  11.4944560
  17.7425310  89.4125780  11.9056030  19.4616120  99.1608060  13.7742920
  20.0790120  99.8359140  13.4927370  18.6009240  99.5696040  13.6830420
  14.7548460  98.3507920   2.6549770  14.3776440  98.8395020   1.9234670
  15.0121530  99.0233200   3.2856300  30.3793710 100.6247470  11.6897560
  29.6957230 101.2946580  11.6814230  30.9188000 100.8228120  10.9242420
  31.8317850  90.4527130   9.8179290  30.8842760  90.4866110   9.9494720
  32.1567840  91.2666080  10.2028650  22.3637390  86.7524310   8.1135280
  22.6712370  86.1971200   7.3970780  21.4338090  86.8868770   7.9308270
  27.9152450 102.4691600  10.4042740  27.9279610 102.0653890   9.5365000
  27.3627670 103.2438890  10.3004170  29.2097870  99.1907820   5.4932910
  29.0994200  98.2482150   5.6182330  29.2066120  99.5523460   6.3795670
  27.3137890  97.3721440  11.7325350  27.7306680  97.1581550  10.8978810
  28.0377710  97.6294230  12.3033970  24.7518150  94.8173140   4.8495400
  23.8247430  94.7510520   5.0783870  24.9042970  95.7553270   4.7350640
  24.7387230  91.0890140   1.8462560  23.7990900  91.2504100   1.9315020
  25.0570490  91.8075820   1.2998550  31.2599990  95.7708660  11.8241590
  30.4318620  95.8401750  11.3491720  31.8550470  96.3562970  11.3557420
  28.7815440  96.3793440   5.3530650  28.1627860  96.0412990   4.7056950
  28.7639890  95.7353200   6.0609840  28.2242000  92.5577980  12.7696460
  27.8113180  93.3831690  13.0236450  27.4917950  91.9723020  12.5772820
  20.3574790  95.3437880   7.6315130  19.9531790  94.6315130   7.1361030
  20.4437910  94.9991120   8.5203170  20.8256490  99.0305440   9.7954340
  20.5284780  98.4250910   9.1162120  21.7756310  99.0682750   9.6843700
  19.0703410  92.1181090  11.4114170  19.6218000  92.2276430  10.6367420
  19.5846920  92.4918690  12.1269400  28.9142100 102.6037310  13.4577440
  28.4372660 103.4109500  13.2650050  28.2303890 101.9515640  13.6103650
  19.9174920  98.7687130  16.4462140  19.0203450  98.9927100  16.6935540
  19.9427790  98.8922070  15.4973540  26.9580140  95.6180250   2.3603400
  27.3973420  94.7802680   2.2141220  27.6708560  96.2509650   2.4467540
  18.7446140  95.6400450  15.0219510  18.6053910  96.5123250  15.3906910
  17.8627500  95.2973260  14.8767450  25.0675520 100.5576320   6.3284640
  25.5071430 101.3000650   5.9140030  25.0062410 100.8002890   7.2523600
  20.5426490 101.5822150  17.2304660  20.5141920 101.9865100  16.3633090
  20.3791460 100.6532510  17.0676260  17.0579420  94.2382860   5.1321780
  16.9377020  94.9644950   4.5203050  16.7480310  93.4685770   4.6549690
  32.4941310 102.3649250  18.5268830  32.9701030 102.8432140  19.2057910
  33.1148470 102.2966740  17.8014330  14.6964790  97.4098000  10.9390420
  14.7745210  97.5446770   9.9946140  15.3106470  96.7013890  11.1318540
  15.9412420  99.1098190   7.3496600  15.5340500  99.2512780   6.4950200
  16.8325430  98.8258350   7.1467810  31.8974560  99.5562100  15.6868840
  32.0237620  99.3173980  14.7686020  31.9395940  98.7246640  16.1590920
  25.7591300 103.2590100  14.2563650  26.2735970 103.1698110  15.0586080
  24.9160380 103.6049800  14.5491560  27.7345700 103.5445440   3.6847650
  27.5746840 103.2548380   4.5829480  27.5692410 102.7685570   3.1492880
  20.2134080 103.3243970   5.4619270  20.0376560 102.4079510   5.2487070
  19.3589820 103.6831260   5.7017070  27.4371830 101.0533000   2.2445650
  26.7436990 101.0510290   1.5847930  28.1794690 100.6292320   1.8139820
  27.0021760 102.6795710   6.3194140  27.4578710 101.8985090   6.6332760
  27.3414280 103.3902530   6.8635320  31.7498570  91.6094560  16.6518580
  31.1342840  92.1174230  16.1234040  31.4294990  90.7092890  16.5944520
  14.7524310  98.4512170  13.4784880  14.9155350  97.9817530  12.6604250
  15.2176760  97.9435730  14.1433720  19.5243080  87.5817930   8.5145450
  19.0811230  88.3627470   8.1829970  20.0828070  87.9047820   9.2216390
  23.8112890  90.4486450  14.1180770  23.3492260  90.6569470  14.9300710
  23.4091000  89.6345800  13.8151440  28.8117400  91.6695400  15.2477430
  27.9610990  91.3701150  15.5686500  28.6519190  91.9137410  14.3361250
  25.9067110  93.1697150  17.3476220  26.2320520  92.3360900  17.0078450
  26.6947440  93.6925670  17.4954550  22.6401900  87.2028630   3.3951280
  22.0156080  87.1988500   4.1204590  22.5532020  86.3359590   2.9987250
  21.5618980  88.1265260  10.3735050  21.8591310  89.0328090  10.2927070
  22.1104540  87.6384040   9.7594620  19.3157300  92.7051500   6.2426700
  19.0898220  92.4888670   7.1473320  18.5349830  93.1379960   5.8972670
  26.5455060  92.7114870   4.8417350  25.9463950  93.4350670   4.6580970
  27.0934670  92.6491650   4.0593800  21.7556510  93.6037080  16.9086970
  21.6600110  92.6631810  16.7587370  22.5988490  93.8252150  16.5135040
  25.1519930  91.3478410   6.8720630  25.5449500  91.6650610   6.0589320
  25.5136780  90.4690290   6.9865150  16.8867050  90.0150750  15.0620750
  16.4930440  90.8625960  15.2693530  16.1985450  89.3777120  15.2529390
  23.4612100  90.0985720  18.1317490  22.7710420  89.9057920  18.7663580
  24.2044400  90.3820360  18.6641790  14.1884100  87.9379210   9.0950830
  13.8997150  88.5082070   9.8075810  14.9329860  87.4583660   9.4582060
  25.7375070  93.9384160  10.9671410  25.0056190  94.4470970  11.3161510
  25.3399410  93.1214140  10.6660190  22.1752460  90.6138360   9.3723900
  22.1788520  90.1728310   8.5228440  23.0703580  90.9355690   9.4795720
  18.0254840  90.4964850   8.3318110  17.6854890  90.9740080   9.0885160
  17.2632160  90.0429970   7.9719210  22.2372610  91.6150440   2.3630660
  22.3585430  91.5736920   3.3116480  21.8521120  92.4774590   2.2077390
  26.2000980  89.3917840  10.3794350  26.2173720  89.8426490  11.2236200
  25.9516560  88.4923480  10.5927790  29.6271730  86.8050020  16.2180730
  29.9517500  86.0739680  16.7438710  29.6628240  86.4863660  15.3161720
  16.3263290  97.8263600  15.6380690  15.9418080  97.1857270  16.2363650
  16.6375480  98.5299720  16.2075420  22.4760430  94.6740140  11.1189310
  22.8430560  94.1998710  11.8650650  22.2865490  95.5481710  11.4597650
  15.3400920  89.4183830   7.2482780  15.0547840  89.0539500   8.0861400
  15.2779780  88.6864290   6.6345920  20.2659800  93.7148780  13.4373520
  19.9616870  94.5940760  13.6623880  21.2206260  93.7748570  13.4730960
  18.7941590  97.9209770   4.0340370  18.0203850  97.3807390   3.8739090
  19.5236220  97.4016380   3.6958130  29.5529570  96.9175130   9.8266760
  30.2728690  97.4130420   9.4362870  29.3511390  96.2393020   9.1820630
  25.0139510  88.3113090   3.9696150  24.2004120  87.8126260   3.8941460
  24.8201460  89.1511340   3.5532500  24.9348370  96.9884190  15.7135760
  24.8685680  96.0679860  15.4593350  24.3053510  97.0859630  16.4280400
  27.7287900  92.6832740   2.2658310  28.6167520  92.9949970   2.0909650
  27.6992990  91.8104990   1.8738890  18.8378990  97.5890150   7.6719180
  19.3557660  96.7858410   7.6176070  18.3863010  97.5269290   8.5136010
  23.7248490  98.8556430   2.9446480  24.0664190  99.5998660   2.4489800
  22.8961200  99.1687550   3.3071310  16.3223530  94.5551520  14.5844880
  15.9638470  95.2205370  15.1718220  16.0278090  93.7235070  14.9557500
  19.5236650  95.0135760  17.4684430  19.2236790  95.1592940  16.5712250
  20.2947890  94.4541050  17.3757820  24.8665100  99.8104760  15.4639560
  24.8809640  98.8785720  15.2458470  24.1590200  99.8964520  16.1029330
  31.0776310  96.4512100  14.8108140  30.3524500  97.0440880  14.6137530
  31.6051770  96.4435640  14.0121510  31.0289420 100.8486840   4.4620300
  30.3865580 100.1942460   4.7364020  30.6420080 101.2541930   3.6860970
  26.6075900  98.1772270   8.3091990  26.9599720  97.5800400   7.6493360
  25.7238230  97.8516500   8.4800240  22.6939180  98.9369960   5.7162400
  23.3810310  99.4839170   6.0969990  21.9071600  99.4810690   5.7512010
  21.9966390  95.9415990   5.3287760  22.4529170  96.7521240   5.5547950
  21.6454600  95.6239130   6.1606250  24.2999000 101.4522330  12.5580060
  24.9441220 101.6581710  13.2353480  24.6628440 100.6910730  12.1050910
  17.8978170  86.2853640   5.8010280  17.7692800  86.2771540   6.7495200
  17.0740190  86.6236730   5.4501290  25.5731080  99.4554680  11.2757510
  26.2153310  98.7547840  11.3889680  26.0980430 100.2353120  11.0954400
  27.3468700 100.2549580  14.4793570  27.6824940 100.8416270  15.1571490
  26.4269040 100.1242290  14.7091360  14.8972100  88.0444760  15.2616980
  14.1830620  88.2441680  15.8669590  15.3167140  87.2684330  15.6331780
  29.0003050  97.6575240   2.6610810  28.7124750  98.1187930   3.4488690
  29.7955220  97.1973010   2.9295030  15.1844690 102.0325020  16.2483510
  15.2935810 101.0919760  16.1078900  14.5325250 102.2979770  15.5997240
  23.1757280 100.3040910  17.6481630  22.8554150  99.5850150  18.1927320
  22.5015640 100.9795980  17.7217690  21.2171450 101.1501360   2.5914780
  21.2081550 101.8831050   1.9759290  20.2969810 100.9032940   2.6841740
  16.8178090  96.3716250   3.3361540  16.2106040  97.1115150   3.3456840
  17.2927440  96.4615610   2.5099740  26.3910880  90.5367070  13.0118430
  26.7591700  89.7162280  13.3398000  25.5309080  90.5968960  13.4274080
  29.7572910  89.4924010   3.8205990  29.1286070  89.5969680   3.1064220
  29.2624830  89.7120790   4.6099870  21.7256940  91.7709960   5.2363870
  21.0173090  92.2396300   5.6777480  22.0101420  91.1131970   5.8709060
  23.3512870  93.1906660  13.2356400  23.8498120  93.6652480  13.9008250
  23.4935820  92.2670180  13.4426430  25.7572370  88.4960620   6.6759660
  25.6340150  88.5146750   5.7269170  26.7056930  88.5439560   6.7958060
  22.8449160 103.7315920   5.9487640  23.0990660 103.6937310   5.0267010
  21.8961640 103.6049250   5.9415890  19.9291960  90.0795040   2.6114580
  20.7782490  90.5165190   2.5454770  19.5623230  90.3915300   3.4386640
  30.5579730  89.4074620  14.0784790  30.0553330  90.1480020  14.4178600
  31.3736390  89.7958620  13.7621580  28.8501740  94.6507800   7.5246150
  27.9091880  94.6658030   7.6993840  29.1645810  93.8643760   7.9706450
  17.5230140  93.7652470   1.7683000  17.6033730  92.8179980   1.8800400
  18.4149890  94.0959350   1.8743660  30.8527320 101.8216650   9.2000410
  30.9774740 102.6447820   9.6724220  31.7192880 101.6107380   8.8524560
  18.3244850 103.9147860   8.8717540  19.0607330 103.3663320   9.1426110
  18.7085770 104.7803870   8.7323530  15.2090330  99.9821430   4.7459050
  14.2830110 100.2242570   4.7364460  15.6746760 100.8095690   4.6243800
  17.3303130 103.0993930  18.0603120  18.1315860 103.4205980  18.4738520
  16.8154950 102.7389510  18.7823030  26.1667760  99.2073800  18.0078530
  25.5605920  99.2305400  17.2674280  25.8621870  98.4756840  18.5445780
  27.5968130 102.9354090  16.6187940  28.5489880 102.8512110  16.5688180
  27.4496350 103.5995800  17.2921730  30.4877330 102.3148300   2.1179850
  30.2018840 101.9013440   1.3034030  30.2896880 103.2436010   1.9980370
  15.0500940  95.5867390  17.0039170  15.5539960  95.0074670  17.5755400
  14.3108360  95.8707620  17.5415540  22.1038880  96.9938380  16.5374690
  21.3384550  97.5623380  16.4529360  22.2854840  96.7014590  15.6442920
  29.2462230  98.7243710  17.0949710  29.9871700  99.0619470  16.5917170
  28.4834910  98.8935770  16.5419480  17.0824020  93.7296980  17.8989240
  17.1229360  93.4310850  18.8074470  17.9369520  94.1304590  17.7396760
  20.8602410  96.3292530   3.0592750  21.2818830  96.1632400   3.9024140
  20.9853250  95.5192760   2.5647890  19.0229830  92.3089080  15.8663730
  18.4926290  91.8180030  15.2387070  19.6917900  92.7373280  15.3321660
  27.9207890  96.7758540  15.6304920  28.3348910  96.9303620  16.4795340
  26.9858890  96.9013760  15.7930700  28.3930060  94.1154700  17.6344070
  28.9750830  93.3607020  17.5464550  28.5691830  94.6462140  16.8575550
  19.5102130  89.2751450  15.9461020  19.4159000  88.6572200  15.2211890
  18.9299520  90.0017740  15.7190930  22.2763570  87.8324690  12.9788410
  21.8280870  87.8548950  12.1333960  21.6428770  87.4343710  13.5758710
  22.6823120  96.7279020  13.6000850  23.1011230  97.5711750  13.4277090
  21.7631750  96.8651060  13.3707630  25.0187020  94.4595200  14.9838690
  25.1383230  93.8636340  15.7233530  25.8781020  94.4964890  14.5639990
  27.3574920  95.0132390  13.5601200  26.8310140  95.5375010  12.9566340
  27.7006260  95.6459780  14.1910930  20.5330540 103.0332030  14.7158580
  19.9951630 103.7578090  14.3967280  20.7864500 102.5562370  13.9255920
  21.7855790  91.0016550  16.2414510  22.3755480  90.6932400  16.9292330
  20.9676030  90.5296300  16.3974410  26.6049220  90.6182360  16.4747530
  25.9164740  89.9563900  16.4097520  27.3255240  90.1720630  16.9195990
  27.2349620  87.2133990   2.5337790  27.5151910  86.3701890   2.8897210
  26.4615350  87.4457100   3.0476540  23.3892750 104.2683240  14.9745230
  23.3151450 105.1718380  15.2817600  22.4871590 103.9495140  14.9467300
  23.9378080 103.4341750   2.5971590  24.8328870 103.7726720   2.6190350
  23.9695710 102.7121160   1.9695870  14.7920040 101.5957830   8.2778850
  15.1223050 100.7278890   8.0457490  15.2211040 101.8016350   9.1083810
  19.3881960  99.9266840   5.9380820  19.0877500  99.8031810   6.8384730
  19.2819450  99.0675430   5.5296550  15.2810250 102.4628420  11.0160480
  14.8441240 102.6429220  11.8484630  15.8487930 103.2203040  10.8742200
  30.9172430 101.9645420  15.3037790  30.3174420 102.0237980  14.5601710
  31.0466330 101.0250400  15.4334640  31.6130340  96.4510720   3.1441700
  32.3749250  97.0207370   3.2501390  31.6284710  95.8837920   3.9150010
  15.1134680  94.9748650   7.3749360  14.4583520  94.7060290   6.7309060
  15.9512630  94.8653130   6.9251340  32.6190310  97.3060820   7.9883630
  32.9899140  96.5228140   7.5819600  33.2592240  97.9949920   7.8100930
  29.6024070  98.6897400  13.4013950  28.7883910  99.1194560  13.6639740
  30.0098270  99.3015810  12.7883000  31.5614850  94.6814080   5.2943650
  31.1858450  93.9142010   4.8624940  30.8317970  95.0636780   5.7818580
  16.1510610  95.3601220  11.9152700  16.5183650  95.2728620  12.7948720
  15.5821430  94.5967770  11.8159560  30.9514470  93.8285600  14.9283170
  30.7200560  93.5998350  14.0281120  31.2119020  94.7485150  14.8828060
  15.7026610  92.2710310  15.8211120  14.8082660  92.2377070  16.1604830
  16.2424160  92.4697100  16.5862370  29.3902540  89.0542030  17.7062870
  30.2672720  89.0625430  18.0896870  29.4023380  88.3172870  17.0955220
  14.3272760  92.1847580   3.3174690  13.4236840  92.4477780   3.1426350
  14.8113380  92.4558750   2.5374650  30.8365810  92.9071570   8.5950890
  31.3603290  92.4134220   7.9641060  31.4225230  93.0421930   9.3398460
  31.0155530  92.9911440  12.1170440  30.0658240  92.9574980  12.2315430
  31.1968540  93.9011550  11.8820210  30.3265780  92.1644920   4.5343300
  30.8224900  91.9315790   5.3192180  30.1281850  91.3256760   4.1180940
  16.2066320  86.5458640  10.1694340  16.8542510  85.9956020   9.7289500
  16.6268160  86.8001790  10.9910150  31.7552940  90.8005870   7.0680980
  31.6452220  90.6461910   8.0063250  32.5160530  90.2726810   6.8256390
  30.1018660  86.7400000  13.5263980  30.7390880  87.3534140  13.8923170
  30.2493550  86.7760660  12.5813210  32.7181700  89.4024450   2.9343830
  31.9233200  89.3369570   3.4636740  32.9224980  90.3375090   2.9229180
  29.6600120 103.4416000   6.9282220  30.2559190 103.1200570   6.2516640
  29.9178270 102.9687820   7.7195490  15.9598320  86.7014310  12.9119660
  15.6113140  87.1578130  13.6777840  15.6286020  85.8071440  12.9942090
  17.5662690  99.8733910  17.0772850  17.5232320  99.5026820  17.9587310
  17.6973700 100.8111480  17.2174670  21.2668720 101.4293500  12.6782570
  21.0260080 101.6968060  11.7913090  22.2071360 101.5999230  12.7333430
  23.4723140  87.8926190  16.4339080  23.4112030  88.4848020  17.1834490
  24.4123520  87.7852150  16.2889340  26.1097700  87.5496250  16.0731370
  26.7238110  87.8675540  15.4112450  26.6547260  87.0644840  16.6927230
  32.5272880 103.4487880  13.4793210  32.0331160 103.8456750  12.7620340
  31.9186170 102.8237090  13.8730490  16.6318960  86.2290510  16.1870430
  17.1801950  86.0478560  15.4236540  16.6974270  85.4384620  16.7226740
  17.4050720 102.8196160  14.1970630  16.8111040 102.6880860  14.9360670
  17.3974560 101.9834300  13.7312730  26.8505740  86.1128390  12.4000660
  25.9765580  86.4463500  12.1973590  26.7416490  85.6401570  13.2252530
  27.7577720  88.3199260  13.7842380  27.4291080  87.5051020  13.4044110
  28.7060020  88.2769070  13.6608070  30.2112330 104.0911300  10.7579950
  29.7515300 104.8427110  10.3837970  29.5824790 103.3717770  10.6994750
  17.0362950 100.1854540  13.1478670  16.3097010  99.5659830  13.0804620
  17.0972100 100.5795150  12.2776750  20.6408050 102.3999540   9.9328080
  21.1573070 101.7886900   9.4076340  21.2905430 102.9028320  10.4239090
  23.3803550 103.2908030  10.7597060  23.6681360 103.0362330   9.8830070
  23.8926770 102.7385390  11.3502630  24.5980560  87.0298230  11.3393570
  23.8152350  87.5043730  11.6190330  24.3043490  86.1253060  11.2306750
  29.1501630  87.7321330   9.3842660  29.5909720  87.6766430   8.5364260
  28.8809220  88.6479340   9.4552840  31.0140200  87.3636570   7.3951480
  30.9528600  86.4197790   7.2482500  31.7932230  87.4716660   7.9404940
  15.3192950 103.5028930   6.3575430  15.1514990 102.8699610   7.0557320
  14.4527460 103.7088330   6.0069620  15.9420970  87.3345710   3.8607290
  16.7000330  87.4474590   3.2871320  15.4798140  88.1714910   3.8150720
  22.4834780  89.4484980   6.8509600  21.6709290  89.0741870   6.5105480
  22.9876420  88.6930060   7.1530790  26.9859760  86.1127430   8.0892670
  27.5889130  86.6847640   8.5641190  26.2452750  86.6766870   7.8666570
  30.1294360  86.5148990   3.3632950  30.3244990  87.4132440   3.6300380
  29.3424230  86.2836070   3.8565900  16.9255650 102.1962160   3.8025570
  16.4003270 102.5770190   3.0987530  16.8500230 102.8212930   4.5235280
  18.3146120  87.8609760   2.4009260  18.8438880  87.0739560   2.2717210
  18.9474440  88.5400950   2.6344790  20.5083960  87.5984900   5.4554650
  19.8786700  86.8972210   5.6224780  19.9689100  88.3589030   5.2387810
  23.4475910 104.2124130  18.1265260  24.3743220 103.9768400  18.1701220
  23.4326340 105.0396130  17.6451290  31.6820970 103.7549700   5.1239510
  31.8573160 103.0687440   4.4800430  30.9842540 104.2796750   4.7316180
  20.6339520  86.8768880  17.8907140  20.3523790  87.3802480  17.1267960
  21.0159220  86.0790630  17.5249270  19.5248620 104.1444540   2.6774820
  20.2567440 103.8603820   2.1298710  19.7842290 103.9057820   3.5674200
  18.6863410 100.2609270   2.6821150  18.0572290 100.7294370   3.2306980
  18.8011240  99.4158490   3.1167340  27.2354980  86.2922460  18.4687610
  27.1220430  86.6117070  19.3639130  28.0524720  86.6934970  18.1724890
  30.0153470 103.4393990  17.9506300  30.8078790 102.9443220  17.7432260
  30.3086620 104.1184130  18.5581910  26.1413130  75.5371440 101.4783290
  26.0607180  74.6226050 101.2075000  25.7277550  76.0338510 100.7723000
  24.2731170  77.3150460 103.3592560  23.4973270  76.8350900 103.6491130
  24.9244100  76.6356110 103.1848720  18.2897000  77.6270270 104.2368320
  17.4581880  77.3718980 104.6364830  18.8977980  77.6981040 104.9726240
  28.2938600  81.7210650 102.1391690  27.8320130  80.9497890 102.4678860
  29.1064150  81.7476720 102.6444140  18.2698260  81.6610360 104.4326340
  18.5726300  80.7708100 104.2536560  19.0141850  82.2180580 104.2048590
  16.6988950  72.5872160  98.0210710  15.8105650  72.9288130  97.9190590
  16.9830140  72.3872480  97.1291540  14.6621960  75.1877810 103.9050410
  15.2338070  74.4200010 103.9054050  14.6623500  75.4866570 102.9957020
  24.5201910  84.0068660 101.7595680  23.9013350  84.4626160 101.1890120
  25.3753690  84.1620120 101.3585380  23.7140160  79.9907650 103.3662720
  23.6448440  79.0497590 103.2051850  24.4760020  80.0809060 103.9385290
  15.9046830  70.5962170 105.6919340  15.7249670  69.6987920 105.9722100
  15.5026910  71.1434040 106.3666290  24.7445330  72.7978030 103.5931650
  25.1210150  71.9249910 103.4805320  24.6464840  73.1336730 102.7022090
  18.8750340  71.1703660  99.0549090  18.9817090  72.0707390  99.3617850
  17.9642700  71.1221630  98.7643740  28.5269450  70.2928470 100.5259990
  29.3479070  69.8025040 100.5685470  28.5603530  70.8826130 101.2791830
  16.5233500  73.0922670 104.3001680  17.2043610  73.3561040 104.9189080
  16.2081550  72.2523540 104.6339690  20.7158070  74.1390030 103.3874270
  21.2236290  74.6371000 104.0279290  21.2471310  73.3625230 103.2113630
  32.8169000  72.3095220 107.0903620  32.1121170  72.6976930 106.5718730
  33.0826920  73.0045510 107.6924550  18.9994170  68.7788590 107.6537690
  19.0012610  69.2960980 106.8483590  18.1698480  68.3018770 107.6307620
  25.3865260  78.8907900  99.1527590  24.7682530  79.3557350  98.5890310
  25.8988510  79.5835380  99.5697100  20.2497020  78.4183770 105.8311190
  19.9166400  79.0452690 106.4732260  20.4263700  78.9445650 105.0512860
  28.7630930  72.2328850 103.2987530  28.0586500  72.5213740 103.8790640
  29.1243090  73.0428960 102.9387090  18.6809500  70.4898550 105.6608140
  19.0226310  71.3340600 105.3662010  17.7425310  70.6382290 105.7773480
  19.4616120  80.3864570 107.6460370  20.0790120  81.0615650 107.3644820
  18.6009240  80.7952550 107.5547870  14.7548460  79.5764430  96.5267220
  14.3776440  80.0651530  95.7952120  15.0121530  80.2489710  97.1573750
  30.3793710  81.8503980 105.5615010  29.6957230  82.5203090 105.5531680
  30.9188000  82.0484630 104.7959870  31.8317850  71.6783640 103.6896740
  30.8842760  71.7122620 103.8212170  32.1567840  72.4922590 104.0746100
  22.3637390  67.9780820 101.9852730  22.6712370  67.4227710 101.2688230
  21.4338090  68.1125280 101.8025720  27.9152450  83.6948110 104.2760190
  27.9279610  83.2910400 103.4082450  27.3627670  84.4695400 104.1721620
  29.2097870  80.4164330  99.3650360  29.0994200  79.4738660  99.4899780
  29.2066120  80.7779970 100.2513120  27.3137890  78.5977950 105.6042800
  27.7306680  78.3838060 104.7696260  28.0377710  78.8550740 106.1751420
  24.7518150  76.0429650  98.7212850  23.8247430  75.9767030  98.9501320
  24.9042970  76.9809780  98.6068090  24.7387230  72.3146650  95.7180010
  23.7990900  72.4760610  95.8032470  25.0570490  73.0332330  95.1716000
  31.2599990  76.9965170 105.6959040  30.4318620  77.0658260 105.2209170
  31.8550470  77.5819480 105.2274870  28.7815440  77.6049950  99.2248100
  28.1627860  77.2669500  98.5774400  28.7639890  76.9609710  99.9327290
  28.2242000  73.7834490 106.6413910  27.8113180  74.6088200 106.8953900
  27.4917950  73.1979530 106.4490270  20.3574790  76.5694390 101.5032580
  19.9531790  75.8571640 101.0078480  20.4437910  76.2247630 102.3920620
  20.8256490  80.2561950 103.6671790  20.5284780  79.6507420 102.9879570
  21.7756310  80.2939260 103.5561150  19.0703410  73.3437600 105.2831620
  19.6218000  73.4532940 104.5084870  19.5846920  73.7175200 105.9986850
  28.9142100  83.8293820 107.3294890  28.4372660  84.6366010 107.1367500
  28.2303890  83.1772150 107.4821100  19.9174920  79.9943640 110.3179590
  19.0203450  80.2183610 110.5652990  19.9427790  80.1178580 109.3690990
  26.9580140  76.8436760  96.2320850  27.3973420  76.0059190  96.0858670
  27.6708560  77.4766160  96.3184990  18.7446140  76.8656960 108.8936960
  18.6053910  77.7379760 109.2624360  17.8627500  76.5229770 108.7484900
  25.0675520  81.7832830 100.2002090  25.5071430  82.5257160  99.7857480
  25.0062410  82.0259400 101.1241050  30.5397280  68.0979570  94.5461890
  30.2269940  68.1906400  95.4460960  31.3009750  68.6760600  94.4959320
  17.0579420  75.4639370  99.0039230  16.9377020  76.1901460  98.3920500
  16.7480310  74.6942280  98.5267140  14.6964790  78.6354510 104.8107870
  14.7745210  78.7703280 103.8663590  15.3106470  77.9270400 105.0035990
  15.9412420  80.3354700 101.2214050  15.5340500  80.4769290 100.3667650
  16.8325430  80.0514860 101.0185260  31.8974560  80.7818610 109.5586290
  32.0237620  80.5430490 108.6403470  31.9395940  79.9503150 110.0308370
  25.7591300  84.4846610 108.1281100  26.2735970  84.3954620 108.9303530
  24.9160380  84.8306310 108.4209010  27.7345700  84.7701950  97.5565100
  27.5746840  84.4804890  98.4546930  27.5692410  83.9942080  97.0210330
  20.2134080  84.5500480  99.3336720  20.0376560  83.6336020  99.1204520
  19.3589820  84.9087770  99.5734520  27.4371830  82.2789510  96.1163100
  26.7436990  82.2766800  95.4565380  28.1794690  81.8548830  95.6857270
  27.0021760  83.9052220 100.1911590  27.4578710  83.1241600 100.5050210
  27.3414280  84.6159040 100.7352770  31.7498570  72.8351070 110.5236030
  31.1342840  73.3430740 109.9951490  31.4294990  71.9349400 110.4661970
  14.7524310  79.6768680 107.3502330  14.9155350  79.2074040 106.5321700
  15.2176760  79.1692240 108.0151170  19.5243080  68.8074440 102.3862900
  19.0811230  69.5883980 102.0547420  20.0828070  69.1304330 103.0933840
  23.8112890  71.6742960 107.9898220  23.3492260  71.8825980 108.8018160
  23.4091000  70.8602310 107.6868890  28.8117400  72.8951910 109.1194880
  27.9610990  72.5957660 109.4403950  28.6519190  73.1393920 108.2078700
  22.6401900  68.4285140  97.2668730  22.0156080  68.4245010  97.9922040
  22.5532020  67.5616100  96.8704700  21.5618980  69.3521770 104.2452500
  21.8591310  70.2584600 104.1644520  22.1104540  68.8640550 103.6312070
  19.3157300  73.9308010 100.1144150  19.0898220  73.7145180 101.0190770
  18.5349830  74.3636470  99.7690120  26.5455060  73.9371380  98.7134800
  25.9463950  74.6607180  98.5298420  27.0934670  73.8748160  97.9311250
  21.7556510  74.8293590 110.7804420  21.6600110  73.8888320 110.6304820
  22.5988490  75.0508660 110.3852490  25.1519930  72.5734920 100.7438080
  25.5449500  72.8907120  99.9306770  25.5136780  71.6946800 100.8582600
  16.8867050  71.2407260 108.9338200  16.4930440  72.0882470 109.1410980
  16.1985450  70.6033630 109.1246840  14.1884100  69.1635720 102.9668280
  13.8997150  69.7338580 103.6793260  14.9329860  68.6840170 103.3299510
  14.3754330  73.1055840  94.1771000  14.2929000  74.0486600  94.3185990
  14.0237390  72.9630750  93.2983350  25.7375070  75.1640670 104.8388860
  25.0056190  75.6727480 105.1878960  25.3399410  74.3470650 104.5377640
  22.1752460  71.8394870 103.2441350  22.1788520  71.3984820 102.3945890
  23.0703580  72.1612200 103.3513170  18.0254840  71.7221360 102.2035560
  17.6854890  72.1996590 102.9602610  17.2632160  71.2686480 101.8436660
  22.2372610  72.8406950  96.2348110  22.3585430  72.7993430  97.1833930
  21.8521120  73.7031100  96.0794840  26.2000980  70.6174350 104.2511800
  26.2173720  71.0683000 105.0953650  25.9516560  69.7179990 104.4645240
  21.2494110  75.1508090  95.6331410  20.6811010  74.7026340  95.0067320
  21.9583110  75.5100870  95.0996560  29.6271730  68.0306530 110.0898180
  29.9517500  67.2996190 110.6156160  29.6628240  67.7120170 109.1879170
  16.3263290  79.0520110 109.5098140  15.9418080  78.4113780 110.1081100
  16.6375480  79.7556230 110.0792870  22.4760430  75.8996650 104.9906760
  22.8430560  75.4255220 105.7368100  22.2865490  76.7738220 105.3315100
  15.3400920  70.6440340 101.1200230  15.0547840  70.2796010 101.9578850
  15.2779780  69.9120800 100.5063370  20.2659800  74.9405290 107.3090970
  19.9616870  75.8197270 107.5341330  21.2206260  75.0005080 107.3448410
  18.7941590  79.1466280  97.9057820  18.0203850  78.6063900  97.7456540
  19.5236220  78.6272890  97.5675580  29.5529570  78.1431640 103.6984210
  30.2728690  78.6386930 103.3080320  29.3511390  77.4649530 103.0538080
  25.0139510  69.5369600  97.8413600  24.2004120  69.0382770  97.7658910
  24.8201460  70.3767850  97.4249950  24.9348370  78.2140700 109.5853210
  24.8685680  77.2936370 109.3310800  24.3053510  78.3116140 110.2997850
  27.7287900  73.9089250  96.1375760  28.6167520  74.2206480  95.9627100
  27.6992990  73.0361500  95.7456340  18.8378990  78.8146660 101.5436630
  19.3557660  78.0114920 101.4893520  18.3863010  78.7525800 102.3853460
  23.7248490  80.0812940  96.8163930  24.0664190  80.8255170  96.3207250
  22.8961200  80.3944060  97.1788760  16.3223530  75.7808030 108.4562330
  15.9638470  76.4461880 109.0435670  16.0278090  74.9491580 108.8274950
  24.8665100  81.0361270 109.3357010  24.8809640  80.1042230 109.1175920
  24.1590200  81.1221030 109.9746780  30.0002170  75.2201090  95.6055620
  29.9165890  75.6515310  94.7552060  30.7196360  75.6799440  96.0382440
  31.0776310  77.6768610 108.6825590  30.3524500  78.2697390 108.4854980
  31.6051770  77.6692150 107.8838960  31.0289420  82.0743350  98.3337750
  30.3865580  81.4198970  98.6081470  30.6420080  82.4798440  97.5578420
  26.6075900  79.4028780 102.1809440  26.9599720  78.8056910 101.5210810
  25.7238230  79.0773010 102.3517690  22.6939180  80.1626470  99.5879850
  23.3810310  80.7095680  99.9687440  21.9071600  80.7067200  99.6229460
  14.8331580  75.7799290  95.0796930  15.7026430  76.0624090  95.3632850
  14.3421900  76.5935160  94.9645740  21.9966390  77.1672500  99.2005210
  22.4529170  77.9777750  99.4265400  21.6454600  76.8495640 100.0323700
  24.2999000  82.6778840 106.4297510  24.9441220  82.8838220 107.1070930
  24.6628440  81.9167240 105.9768360  17.8978170  67.5110150  99.6727730
  17.7692800  67.5028050 100.6212650  17.0740190  67.8493240  99.3218740
  25.5731080  80.6811190 105.1474960  26.2153310  79.9804350 105.2607130
  26.0980430  81.4609630 104.9671850  29.4186800  80.9659810  94.8714100
  29.1924380  80.2490250  95.4638740  29.0283000  80.7172250  94.0335850
  27.3468700  81.4806090 108.3511020  27.6824940  82.0672780 109.0288940
  26.4269040  81.3498800 108.5808810  15.2002830  84.9926670  95.6458560
  15.5600470  85.5916010  94.9915830  15.0595170  85.5386560  96.4193590
  14.8972100  69.2701270 109.1334430  14.1830620  69.4698190 109.7387040
  15.3167140  68.4940840 109.5049230  29.0003050  78.8831750  96.5328260
  28.7124750  79.3444440  97.3206140  29.7955220  78.4229520  96.8012480
  15.1844690  83.2581530 110.1200960  15.2935810  82.3176270 109.9796350
  14.5325250  83.5236280 109.4714690  21.2171450  82.3757870  96.4632230
  21.2081550  83.1087560  95.8476740  20.2969810  82.1289450  96.5559190
  16.8178090  77.5972760  97.2078990  16.2106040  78.3371660  97.2174290
  17.2927440  77.6872120  96.3817190  26.3910880  71.7623580 106.8835880
  26.7591700  70.9418790 107.2115450  25.5309080  71.8225470 107.2991530
  29.7572910  70.7180520  97.6923440  29.1286070  70.8226190  96.9781670
  29.2624830  70.9377300  98.4817320  24.2031050  82.4386110  95.1257420
  24.3043030  82.2350100  94.1959400  23.3032790  82.1844390  95.3305200
  21.7256940  72.9966470  99.1081320  21.0173090  73.4652810  99.5494930
  22.0101420  72.3388480  99.7426510  23.3512870  74.4163170 107.1073850
  23.8498120  74.8908990 107.7725700  23.4935820  73.4926690 107.3143880
  25.7572370  69.7217130 100.5477110  25.6340150  69.7403260  99.5986620
  26.7056930  69.7696070 100.6675510  22.8449160  84.9572430  99.8205090
  23.0990660  84.9193820  98.8984460  21.8961640  84.8305760  99.8133340
  19.9291960  71.3051550  96.4832030  20.7782490  71.7421700  96.4172220
  19.5623230  71.6171810  97.3104090  30.5579730  70.6331130 107.9502240
  30.0553330  71.3736530 108.2896050  31.3736390  71.0215130 107.6339030
  28.8501740  75.8764310 101.3963600  27.9091880  75.8914540 101.5711290
  29.1645810  75.0900270 101.8423900  18.8283380  77.5583910  94.9567560
  19.5946650  77.4465270  95.5192990  18.9058070  76.8621880  94.3044330
  17.5230140  74.9908980  95.6400450  17.6033730  74.0436490  95.7517850
  18.4149890  75.3215860  95.7461110  30.8527320  83.0473160 103.0717860
  30.9774740  83.8704330 103.5441670  31.7192880  82.8363890 102.7242010
  18.3244850  85.1404370 102.7434990  19.0607330  84.5919830 103.0143560
  18.7085770  86.0060380 102.6040980  15.2090330  81.2077940  98.6176500
  14.2830110  81.4499080  98.6081910  15.6746760  82.0352200  98.4961250
  21.4347160  84.3134680  94.5660560  22.2275770  84.6023510  94.1142350
  20.9151510  83.8826850  93.8873040  30.4877330  83.5404810  95.9897300
  30.2018840  83.1269950  95.1751480  30.2896880  84.4692520  95.8697820
  21.9524560  79.5338090  94.4302910  21.8475200  78.9190440  95.1564290
  21.7848780  79.0103980  93.6465920  22.1038880  78.2194890 110.4092140
  21.3384550  78.7879890 110.3246810  22.2854840  77.9271100 109.5160370
  25.1927290  78.5958120  95.0344900  24.6437390  79.0427420  95.6787640
  25.8146550  78.0907370  95.5582570  29.2462230  79.9500220 110.9667160
  29.9871700  80.2875980 110.4634620  28.4834910  80.1192280 110.4136930
  20.8602410  77.5549040  96.9310200  21.2818830  77.3888910  97.7741590
  20.9853250  76.7449270  96.4365340  19.0229830  73.5345590 109.7381180
  18.4926290  73.0436540 109.1104520  19.6917900  73.9629790 109.2039110
  23.3730050  76.5786650  94.1787300  23.8935710  75.8635670  93.8128450
  24.0198450  77.2172520  94.4787810  27.9207890  78.0015050 109.5022370
  28.3348910  78.1560130 110.3512790  26.9858890  78.1270270 109.6648150
  19.5102130  70.5007960 109.8178470  19.4159000  69.8828710 109.0929340
  18.9299520  71.2274250 109.5908380  22.2763570  69.0581200 106.8505860
  21.8280870  69.0805460 106.0051410  21.6428770  68.6600220 107.4476160
  22.6823120  77.9535530 107.4718300  23.1011230  78.7968260 107.2994540
  21.7631750  78.0907570 107.2425080  25.0187020  75.6851710 108.8556140
  25.1383230  75.0892850 109.5950980  25.8781020  75.7221400 108.4357440
  27.3574920  76.2388900 107.4318650  26.8310140  76.7631520 106.8283790
  27.7006260  76.8716290 108.0628380  19.7561310  73.6282270  93.8768360
  19.5550370  72.7649630  94.2381700  19.5853360  73.5415630  92.9389960
  20.5330540  84.2588540 108.5876030  19.9951630  84.9834600 108.2684730
  20.7864500  83.7818880 107.7973370  21.7855790  72.2273060 110.1131960
  22.3755480  71.9188910 110.8009780  20.9676030  71.7552810 110.2691860
  26.6049220  71.8438870 110.3464980  25.9164740  71.1820410 110.2814970
  27.3255240  71.3977140 110.7913440  27.2349620  68.4390500  96.4055240
  27.5151910  67.5958400  96.7614660  26.4615350  68.6713610  96.9193990
  18.5544110  70.7282890  93.8646240  18.8570010  70.7350320  92.9565390
  19.2938700  70.3780750  94.3613900  23.3892750  85.4939750 108.8462680
  23.3151450  86.3974890 109.1535050  22.4871590  85.1751650 108.8184750
  21.7729040  69.6717510  94.8502440  21.4251040  68.9941500  94.2704890
  21.9741810  69.2107020  95.6645830  23.9378080  84.6598260  96.4689040
  24.8328870  84.9983230  96.4907800  23.9695710  83.9377670  95.8413320
  17.5774240  80.0325310  94.6976040  18.0149110  80.5754980  95.3533620
  18.0621970  79.2072260  94.7072380  14.7920040  82.8214340 102.1496300
  15.1223050  81.9535400 101.9174940  15.2211040  83.0272860 102.9801260
  19.3881960  81.1523350  99.8098270  19.0877500  81.0288320 100.7102180
  19.2819450  80.2931940  99.4014000  15.2810250  83.6884930 104.8877930
  14.8441240  83.8685730 105.7202080  15.8487930  84.4459550 104.7459650
  30.9172430  83.1901930 109.1755240  30.3174420  83.2494490 108.4319160
  31.0466330  82.2506910 109.3052090  32.1573880  80.9319750  94.5124950
  31.3266840  80.9996400  94.9832180  32.3345710  81.8223870  94.2091810
  31.6130340  77.6767230  97.0159150  32.3749250  78.2463880  97.1218840
  31.6284710  77.1094430  97.7867460  15.1134680  76.2005160 101.2466810
  14.4583520  75.9316800 100.6026510  15.9512630  76.0909640 100.7968790
  32.6190310  78.5317330 101.8601080  32.9899140  77.7484650 101.4537050
  33.2592240  79.2206430 101.6818380  29.6024070  79.9153910 107.2731400
  28.7883910  80.3451070 107.5357190  30.0098270  80.5272320 106.6600450
  31.6649510  77.9701600  94.1731670  31.9398350  78.8780480  94.0450890
  31.4760250  77.9064130  95.1093660  28.0625120  70.9946450  95.4685300
  28.4810000  70.8077430  94.6281960  27.7561180  70.1425500  95.7788230
  31.5614850  75.9070590  99.1661100  31.1858450  75.1398520  98.7342390
  30.8317970  76.2893290  99.6536030  16.1510610  76.5857730 105.7870150
  16.5183650  76.4985130 106.6666170  15.5821430  75.8224280 105.6877010
  30.9514470  75.0542110 108.8000620  30.7200560  74.8254860 107.8998570
  31.2119020  75.9741660 108.7545510  15.7026610  73.4966820 109.6928570
  14.8082660  73.4633580 110.0322280  16.2424160  73.6953610 110.4579820
  14.3272760  73.4104090  97.1892140  13.4236840  73.6734290  97.0143800
  14.8113380  73.6815260  96.4092100  30.8365810  74.1328080 102.4668340
  31.3603290  73.6390730 101.8358510  31.4225230  74.2678440 103.2115910
  31.0155530  74.2167950 105.9887890  30.0658240  74.1831490 106.1032880
  31.1968540  75.1268060 105.7537660  16.8699970  72.4669630  95.0986520
  17.5791670  72.0452850  94.6133800  16.1539910  72.5344860  94.4669870
  16.5174130  68.5208960  94.1389170  17.2402260  69.0617900  94.4570390
  16.7898650  68.2472380  93.2630710  30.3265780  73.3901430  98.4060750
  30.8224900  73.1572300  99.1909630  30.1281850  72.5513270  97.9898390
  16.2066320  67.7715150 104.0411790  16.8542510  67.2212530 103.6006950
  16.6268160  68.0258300 104.8627600  31.7552940  72.0262380 100.9398430
  31.6452220  71.8718420 101.8780700  32.5160530  71.4983320 100.6973840
  30.1018660  67.9656510 107.3981430  30.7390880  68.5790650 107.7640620
  30.2493550  68.0017170 106.4530660  32.6443210  69.8570300  94.1804570
  33.5692520  69.7251480  93.9722860  32.6219000  69.9363120  95.1341020
  32.7181700  70.6280960  96.8061280  31.9233200  70.5626080  97.3354190
  32.9224980  71.5631600  96.7946630  29.6600120  84.6672510 100.7999670
  30.2559190  84.3457080 100.1234090  29.9178270  84.1944330 101.5912940
  15.9598320  67.9270820 106.7837110  15.6113140  68.3834640 107.5495290
  15.6286020  67.0327950 106.8659540  21.2668720  82.6550010 106.5500020
  21.0260080  82.9224570 105.6630540  22.2071360  82.8255740 106.6050880
  26.1097700  68.7752760 109.9448820  26.7238110  69.0932050 109.2829900
  26.6547260  68.2901350 110.5644680  32.5272880  84.6744390 107.3510660
  32.0331160  85.0713260 106.6337790  31.9186170  84.0493600 107.7447940
  16.6318960  67.4547020 110.0587880  17.1801950  67.2735070 109.2953990
  16.6974270  66.6641130 110.5944190  17.4050720  84.0452670 108.0688080
  16.8111040  83.9137370 108.8078120  17.3974560  83.2090810 107.6030180
  26.8505740  67.3384900 106.2718110  25.9765580  67.6720010 106.0691040
  26.7416490  66.8658080 107.0969980  27.7577720  69.5455770 107.6559830
  27.4291080  68.7307530 107.2761560  28.7060020  69.5025580 107.5325520
  30.2112330  85.3167810 104.6297400  29.7515300  86.0683620 104.2555420
  29.5824790  84.5974280 104.5712200  17.0362950  81.4111050 107.0196120
  16.3097010  80.7916340 106.9522070  17.0972100  81.8051660 106.1494200
  20.6408050  83.6256050 103.8045530  21.1573070  83.0143410 103.2793790
  21.2905430  84.1284830 104.2956540  23.3803550  84.5164540 104.6314510
  23.6681360  84.2618840 103.7547520  23.8926770  83.9641900 105.2220080
  24.5980560  68.2554740 105.2111020  23.8152350  68.7300240 105.4907780
  24.3043490  67.3509570 105.1024200  29.1501630  68.9577840 103.2560110
  29.5909720  68.9022940 102.4081710  28.8809220  69.8735850 103.3270290
  31.0140200  68.5893080 101.2668930  30.9528600  67.6454300 101.1199950
  31.7932230  68.6973170 101.8122390  15.3192950  84.7285440 100.2292880
  15.1514990  84.0956120 100.9274770  14.4527460  84.9344840  99.8787070
  15.9420970  68.5602220  97.7324740  16.7000330  68.6731100  97.1588770
  15.4798140  69.3971420  97.6868170  22.4834780  70.6741490 100.7227050
  21.6709290  70.2998380 100.3822930  22.9876420  69.9186570 101.0248240
  26.9859760  67.3383940 101.9610120  27.5889130  67.9104150 102.4358640
  26.2452750  67.9023380 101.7384020  30.1294360  67.7405500  97.2350400
  30.3244990  68.6388950  97.5017830  29.3424230  67.5092580  97.7283350
  16.9255650  83.4218670  97.6743020  16.4003270  83.8026700  96.9704980
  16.8500230  84.0469440  98.3952730  18.3146120  69.0866270  96.2726710
  18.8438880  68.2996070  96.1434660  18.9474440  69.7657460  96.5062240
  20.5083960  68.8241410  99.3272100  19.8786700  68.1228720  99.4942230
  19.9689100  69.5845540  99.1105260  31.6820970  84.9806210  98.9956960
  31.8573160  84.2943950  98.3517880  30.9842540  85.5053260  98.6033630
  19.5248620  85.3701050  96.5492270  20.2567440  85.0860330  96.0016160
  19.7842290  85.1314330  97.4391650  18.6863410  81.4865780  96.5538600
  18.0572290  81.9550880  97.1024430  18.8011240  80.6415000  96.9884790
  26.1413130  75.5371440  82.7039800  26.0607180  74.6226050  82.4331510
  25.7277550  76.0338510  81.9979510  24.2731170  77.3150460  84.5849070
  23.4973270  76.8350900  84.8747640  24.9244100  76.6356110  84.4105230
  18.2897000  77.6270270  85.4624830  17.4581880  77.3718980  85.8621340
  18.8977980  77.6981040  86.1982750  28.2938600  81.7210650  83.3648200
  27.8320130  80.9497890  83.6935370  29.1064150  81.7476720  83.8700650
  18.2698260  81.6610360  85.6582850  18.5726300  80.7708100  85.4793070
  19.0141850  82.2180580  85.4305100  16.6988950  72.5872160  79.2467220
  15.8105650  72.9288130  79.1447100  16.9830140  72.3872480  78.3548050
  14.6621960  75.1877810  85.1306920  15.2338070  74.4200010  85.1310560
  14.6623500  75.4866570  84.2213530  24.5201910  84.0068660  82.9852190
  23.9013350  84.4626160  82.4146630  25.3753690  84.1620120  82.5841890
  23.7140160  79.9907650  84.5919230  23.6448440  79.0497590  84.4308360
  24.4760020  80.0809060  85.1641800  15.9046830  70.5962170  86.9175850
  15.7249670  69.6987920  87.1978610  15.5026910  71.1434040  87.5922800
  24.7445330  72.7978030  84.8188160  25.1210150  71.9249910  84.7061830
  24.6464840  73.1336730  83.9278600  18.8750340  71.1703660  80.2805600
  18.9817090  72.0707390  80.5874360  17.9642700  71.1221630  79.9900250
  28.5269450  70.2928470  81.7516500  29.3479070  69.8025040  81.7941980
  28.5603530  70.8826130  82.5048340  16.5233500  73.0922670  85.5258190
  17.2043610  73.3561040  86.1445590  16.2081550  72.2523540  85.8596200
  20.7158070  74.1390030  84.6130780  21.2236290  74.6371000  85.2535800
  21.2471310  73.3625230  84.4370140  32.8169000  72.3095220  88.3160130
  32.1121170  72.6976930  87.7975240  33.0826920  73.0045510  88.9181060
  18.9994170  68.7788590  88.8794200  19.0012610  69.2960980  88.0740100
  18.1698480  68.3018770  88.8564130  25.3865260  78.8907900  80.3784100
  24.7682530  79.3557350  79.8146820  25.8988510  79.5835380  80.7953610
  20.2497020  78.4183770  87.0567700  19.9166400  79.0452690  87.6988770
  20.4263700  78.9445650  86.2769370  28.7630930  72.2328850  84.5244040
  28.0586500  72.5213740  85.1047150  29.1243090  73.0428960  84.1643600
  18.6809500  70.4898550  86.8864650  19.0226310  71.3340600  86.5918520
  17.7425310  70.6382290  87.0029990  19.4616120  80.3864570  88.8716880
  20.0790120  81.0615650  88.5901330  18.6009240  80.7952550  88.7804380
  14.7548460  79.5764430  77.7523730  14.3776440  80.0651530  77.0208630
  15.0121530  80.2489710  78.3830260  30.3793710  81.8503980  86.7871520
  29.6957230  82.5203090  86.7788190  30.9188000  82.0484630  86.0216380
  31.8317850  71.6783640  84.9153250  30.8842760  71.7122620  85.0468680
  32.1567840  72.4922590  85.3002610  22.3637390  67.9780820  83.2109240
  22.6712370  67.4227710  82.4944740  21.4338090  68.1125280  83.0282230
  27.9152450  83.6948110  85.5016700  27.9279610  83.2910400  84.6338960
  27.3627670  84.4695400  85.3978130  29.2097870  80.4164330  80.5906870
  29.0994200  79.4738660  80.7156290  29.2066120  80.7779970  81.4769630
  27.3137890  78.5977950  86.8299310  27.7306680  78.3838060  85.9952770
  28.0377710  78.8550740  87.4007930  24.7518150  76.0429650  79.9469360
  23.8247430  75.9767030  80.1757830  24.9042970  76.9809780  79.8324600
  24.7387230  72.3146650  76.9436520  23.7990900  72.4760610  77.0288980
  25.0570490  73.0332330  76.3972510  31.2599990  76.9965170  86.9215550
  30.4318620  77.0658260  86.4465680  31.8550470  77.5819480  86.4531380
  28.7815440  77.6049950  80.4504610  28.1627860  77.2669500  79.8030910
  28.7639890  76.9609710  81.1583800  28.2242000  73.7834490  87.8670420
  27.8113180  74.6088200  88.1210410  27.4917950  73.1979530  87.6746780
  20.3574790  76.5694390  82.7289090  19.9531790  75.8571640  82.2334990
  20.4437910  76.2247630  83.6177130  20.8256490  80.2561950  84.8928300
  20.5284780  79.6507420  84.2136080  21.7756310  80.2939260  84.7817660
  19.0703410  73.3437600  86.5088130  19.6218000  73.4532940  85.7341380
  19.5846920  73.7175200  87.2243360  28.9142100  83.8293820  88.5551400
  28.4372660  84.6366010  88.3624010  28.2303890  83.1772150  88.7077610
  19.9174920  79.9943640  91.5436100  19.0203450  80.2183610  91.7909500
  19.9427790  80.1178580  90.5947500  26.9580140  76.8436760  77.4577360
  27.3973420  76.0059190  77.3115180  27.6708560  77.4766160  77.5441500
  18.7446140  76.8656960  90.1193470  18.6053910  77.7379760  90.4880870
  17.8627500  76.5229770  89.9741410  25.0675520  81.7832830  81.4258600
  25.5071430  82.5257160  81.0113990  25.0062410  82.0259400  82.3497560
  20.5426490  82.8078660  92.3278620  20.5141920  83.2121610  91.4607050
  20.3791460  81.8789020  92.1650220  30.5397280  68.0979570  75.7718400
  30.2269940  68.1906400  76.6717470  31.3009750  68.6760600  75.7215830
  17.0579420  75.4639370  80.2295740  16.9377020  76.1901460  79.6177010
  16.7480310  74.6942280  79.7523650  32.4941310  83.5905760  93.6242790
  32.9701030  84.0688650  94.3031870  33.1148470  83.5223250  92.8988290
  14.6964790  78.6354510  86.0364380  14.7745210  78.7703280  85.0920100
  15.3106470  77.9270400  86.2292500  15.9412420  80.3354700  82.4470560
  15.5340500  80.4769290  81.5924160  16.8325430  80.0514860  82.2441770
  31.8974560  80.7818610  90.7842800  32.0237620  80.5430490  89.8659980
  31.9395940  79.9503150  91.2564880  25.7591300  84.4846610  89.3537610
  26.2735970  84.3954620  90.1560040  24.9160380  84.8306310  89.6465520
  27.7345700  84.7701950  78.7821610  27.5746840  84.4804890  79.6803440
  27.5692410  83.9942080  78.2466840  20.2134080  84.5500480  80.5593230
  20.0376560  83.6336020  80.3461030  19.3589820  84.9087770  80.7991030
  27.4371830  82.2789510  77.3419610  26.7436990  82.2766800  76.6821890
  28.1794690  81.8548830  76.9113780  27.0021760  83.9052220  81.4168100
  27.4578710  83.1241600  81.7306720  27.3414280  84.6159040  81.9609280
  31.7498570  72.8351070  91.7492540  31.1342840  73.3430740  91.2208000
  31.4294990  71.9349400  91.6918480  14.7524310  79.6768680  88.5758840
  14.9155350  79.2074040  87.7578210  15.2176760  79.1692240  89.2407680
  19.5243080  68.8074440  83.6119410  19.0811230  69.5883980  83.2803930
  20.0828070  69.1304330  84.3190350  23.8112890  71.6742960  89.2154730
  23.3492260  71.8825980  90.0274670  23.4091000  70.8602310  88.9125400
  28.8117400  72.8951910  90.3451390  27.9610990  72.5957660  90.6660460
  28.6519190  73.1393920  89.4335210  25.9067110  74.3953660  92.4450180
  26.2320520  73.5617410  92.1052410  26.6947440  74.9182180  92.5928510
  21.5618980  69.3521770  85.4709010  21.8591310  70.2584600  85.3901030
  22.1104540  68.8640550  84.8568580  19.3157300  73.9308010  81.3400660
  19.0898220  73.7145180  82.2447280  18.5349830  74.3636470  80.9946630
  26.5455060  73.9371380  79.9391310  25.9463950  74.6607180  79.7554930
  27.0934670  73.8748160  79.1567760  21.7556510  74.8293590  92.0060930
  21.6600110  73.8888320  91.8561330  22.5988490  75.0508660  91.6109000
  25.1519930  72.5734920  81.9694590  25.5449500  72.8907120  81.1563280
  25.5136780  71.6946800  82.0839110  16.8867050  71.2407260  90.1594710
  16.4930440  72.0882470  90.3667490  16.1985450  70.6033630  90.3503350
  23.4612100  71.3242230  93.2291450  22.7710420  71.1314430  93.8637540
  24.2044400  71.6076870  93.7615750  14.1884100  69.1635720  84.1924790
  13.8997150  69.7338580  84.9049770  14.9329860  68.6840170  84.5556020
  14.3754330  73.1055840  75.4027510  14.2929000  74.0486600  75.5442500
  14.0237390  72.9630750  74.5239860  25.7375070  75.1640670  86.0645370
  25.0056190  75.6727480  86.4135470  25.3399410  74.3470650  85.7634150
  22.1752460  71.8394870  84.4697860  22.1788520  71.3984820  83.6202400
  23.0703580  72.1612200  84.5769680  18.0254840  71.7221360  83.4292070
  17.6854890  72.1996590  84.1859120  17.2632160  71.2686480  83.0693170
  22.2372610  72.8406950  77.4604620  22.3585430  72.7993430  78.4090440
  21.8521120  73.7031100  77.3051350  26.2000980  70.6174350  85.4768310
  26.2173720  71.0683000  86.3210160  25.9516560  69.7179990  85.6901750
  21.2494110  75.1508090  76.8587920  20.6811010  74.7026340  76.2323830
  21.9583110  75.5100870  76.3253070  29.6271730  68.0306530  91.3154690
  29.9517500  67.2996190  91.8412670  29.6628240  67.7120170  90.4135680
  16.3263290  79.0520110  90.7354650  15.9418080  78.4113780  91.3337610
  16.6375480  79.7556230  91.3049380  22.4760430  75.8996650  86.2163270
  22.8430560  75.4255220  86.9624610  22.2865490  76.7738220  86.5571610
  15.3400920  70.6440340  82.3456740  15.0547840  70.2796010  83.1835360
  15.2779780  69.9120800  81.7319880  20.2659800  74.9405290  88.5347480
  19.9616870  75.8197270  88.7597840  21.2206260  75.0005080  88.5704920
  18.7941590  79.1466280  79.1314330  18.0203850  78.6063900  78.9713050
  19.5236220  78.6272890  78.7932090  29.5529570  78.1431640  84.9240720
  30.2728690  78.6386930  84.5336830  29.3511390  77.4649530  84.2794590
  25.0139510  69.5369600  79.0670110  24.2004120  69.0382770  78.9915420
  24.8201460  70.3767850  78.6506460  24.9348370  78.2140700  90.8109720
  24.8685680  77.2936370  90.5567310  24.3053510  78.3116140  91.5254360
  27.7287900  73.9089250  77.3632270  28.6167520  74.2206480  77.1883610
  27.6992990  73.0361500  76.9712850  18.8378990  78.8146660  82.7693140
  19.3557660  78.0114920  82.7150030  18.3863010  78.7525800  83.6109970
  23.7248490  80.0812940  78.0420440  24.0664190  80.8255170  77.5463760
  22.8961200  80.3944060  78.4045270  16.3223530  75.7808030  89.6818840
  15.9638470  76.4461880  90.2692180  16.0278090  74.9491580  90.0531460
  19.5236650  76.2392270  92.5658390  19.2236790  76.3849450  91.6686210
  20.2947890  75.6797560  92.4731780  24.8665100  81.0361270  90.5613520
  24.8809640  80.1042230  90.3432430  24.1590200  81.1221030  91.2003290
  30.0002170  75.2201090  76.8312130  29.9165890  75.6515310  75.9808570
  30.7196360  75.6799440  77.2638950  31.0776310  77.6768610  89.9082100
  30.3524500  78.2697390  89.7111490  31.6051770  77.6692150  89.1095470
  31.0289420  82.0743350  79.5594260  30.3865580  81.4198970  79.8337980
  30.6420080  82.4798440  78.7834930  26.6075900  79.4028780  83.4065950
  26.9599720  78.8056910  82.7467320  25.7238230  79.0773010  83.5774200
  22.6939180  80.1626470  80.8136360  23.3810310  80.7095680  81.1943950
  21.9071600  80.7067200  80.8485970  14.8331580  75.7799290  76.3053440
  15.7026430  76.0624090  76.5889360  14.3421900  76.5935160  76.1902250
  21.9966390  77.1672500  80.4261720  22.4529170  77.9777750  80.6521910
  21.6454600  76.8495640  81.2580210  24.2999000  82.6778840  87.6554020
  24.9441220  82.8838220  88.3327440  24.6628440  81.9167240  87.2024870
  25.5731080  80.6811190  86.3731470  26.2153310  79.9804350  86.4863640
  26.0980430  81.4609630  86.1928360  29.4186800  80.9659810  76.0970610
  29.1924380  80.2490250  76.6895250  29.0283000  80.7172250  75.2592360
  27.3468700  81.4806090  89.5767530  27.6824940  82.0672780  90.2545450
  26.4269040  81.3498800  89.8065320  15.2002830  84.9926670  76.8715070
  15.5600470  85.5916010  76.2172340  15.0595170  85.5386560  77.6450100
  14.8972100  69.2701270  90.3590940  14.1830620  69.4698190  90.9643550
  15.3167140  68.4940840  90.7305740  29.0003050  78.8831750  77.7584770
  28.7124750  79.3444440  78.5462650  29.7955220  78.4229520  78.0268990
  15.1844690  83.2581530  91.3457470  15.2935810  82.3176270  91.2052860
  14.5325250  83.5236280  90.6971200  23.1757280  81.5297420  92.7455590
  22.8554150  80.8106660  93.2901280  22.5015640  82.2052490  92.8191650
  21.2171450  82.3757870  77.6888740  21.2081550  83.1087560  77.0733250
  20.2969810  82.1289450  77.7815700  16.8178090  77.5972760  78.4335500
  16.2106040  78.3371660  78.4430800  17.2927440  77.6872120  77.6073700
  26.3910880  71.7623580  88.1092390  26.7591700  70.9418790  88.4371960
  25.5309080  71.8225470  88.5248040  29.7572910  70.7180520  78.9179950
  29.1286070  70.8226190  78.2038180  29.2624830  70.9377300  79.7073830
  24.2031050  82.4386110  76.3513930  24.3043030  82.2350100  75.4215910
  23.3032790  82.1844390  76.5561710  21.7256940  72.9966470  80.3337830
  21.0173090  73.4652810  80.7751440  22.0101420  72.3388480  80.9683020
  23.3512870  74.4163170  88.3330360  23.8498120  74.8908990  88.9982210
  23.4935820  73.4926690  88.5400390  25.7572370  69.7217130  81.7733620
  25.6340150  69.7403260  80.8243130  26.7056930  69.7696070  81.8932020
  22.8449160  84.9572430  81.0461600  23.0990660  84.9193820  80.1240970
  21.8961640  84.8305760  81.0389850  19.9291960  71.3051550  77.7088540
  20.7782490  71.7421700  77.6428730  19.5623230  71.6171810  78.5360600
  30.5579730  70.6331130  89.1758750  30.0553330  71.3736530  89.5152560
  31.3736390  71.0215130  88.8595540  28.8501740  75.8764310  82.6220110
  27.9091880  75.8914540  82.7967800  29.1645810  75.0900270  83.0680410
  18.8283380  77.5583910  76.1824070  19.5946650  77.4465270  76.7449500
  18.9058070  76.8621880  75.5300840  17.5230140  74.9908980  76.8656960
  17.6033730  74.0436490  76.9774360  18.4149890  75.3215860  76.9717620
  30.8527320  83.0473160  84.2974370  30.9774740  83.8704330  84.7698180
  31.7192880  82.8363890  83.9498520  18.3244850  85.1404370  83.9691500
  19.0607330  84.5919830  84.2400070  18.7085770  86.0060380  83.8297490
  15.2090330  81.2077940  79.8433010  14.2830110  81.4499080  79.8338420
  15.6746760  82.0352200  79.7217760  17.3303130  84.3250440  93.1577080
  18.1315860  84.6462490  93.5712480  16.8154950  83.9646020  93.8796990
  21.4347160  84.3134680  75.7917070  22.2275770  84.6023510  75.3398860
  20.9151510  83.8826850  75.1129550  26.1667760  80.4330310  93.1052490
  25.5605920  80.4561910  92.3648240  25.8621870  79.7013350  93.6419740
  27.5968130  84.1610600  91.7161900  28.5489880  84.0768620  91.6662140
  27.4496350  84.8252310  92.3895690  30.4877330  83.5404810  77.2153810
  30.2018840  83.1269950  76.4007990  30.2896880  84.4692520  77.0954330
  15.0500940  76.8123900  92.1013130  15.5539960  76.2331180  92.6729360
  14.3108360  77.0964130  92.6389500  21.9524560  79.5338090  75.6559420
  21.8475200  78.9190440  76.3820800  21.7848780  79.0103980  74.8722430
  22.1038880  78.2194890  91.6348650  21.3384550  78.7879890  91.5503320
  22.2854840  77.9271100  90.7416880  25.1927290  78.5958120  76.2601410
  24.6437390  79.0427420  76.9044150  25.8146550  78.0907370  76.7839080
  29.2462230  79.9500220  92.1923670  29.9871700  80.2875980  91.6891130
  28.4834910  80.1192280  91.6393440  17.0824020  74.9553490  92.9963200
  17.1229360  74.6567360  93.9048430  17.9369520  75.3561100  92.8370720
  20.8602410  77.5549040  78.1566710  21.2818830  77.3888910  78.9998100
  20.9853250  76.7449270  77.6621850  19.0229830  73.5345590  90.9637690
  18.4926290  73.0436540  90.3361030  19.6917900  73.9629790  90.4295620
  23.3730050  76.5786650  75.4043810  23.8935710  75.8635670  75.0384960
  24.0198450  77.2172520  75.7044320  27.9207890  78.0015050  90.7278880
  28.3348910  78.1560130  91.5769300  26.9858890  78.1270270  90.8904660
  28.3930060  75.3411210  92.7318030  28.9750830  74.5863530  92.6438510
  28.5691830  75.8718650  91.9549510  19.5102130  70.5007960  91.0434980
  19.4159000  69.8828710  90.3185850  18.9299520  71.2274250  90.8164890
  22.2763570  69.0581200  88.0762370  21.8280870  69.0805460  87.2307920
  21.6428770  68.6600220  88.6732670  22.6823120  77.9535530  88.6974810
  23.1011230  78.7968260  88.5251050  21.7631750  78.0907570  88.4681590
  25.0187020  75.6851710  90.0812650  25.1383230  75.0892850  90.8207490
  25.8781020  75.7221400  89.6613950  27.3574920  76.2388900  88.6575160
  26.8310140  76.7631520  88.0540300  27.7006260  76.8716290  89.2884890
  19.7561310  73.6282270  75.1024870  19.5550370  72.7649630  75.4638210
  19.5853360  73.5415630  74.1646470  20.5330540  84.2588540  89.8132540
  19.9951630  84.9834600  89.4941240  20.7864500  83.7818880  89.0229880
  21.7855790  72.2273060  91.3388470  22.3755480  71.9188910  92.0266290
  20.9676030  71.7552810  91.4948370  26.6049220  71.8438870  91.5721490
  25.9164740  71.1820410  91.5071480  27.3255240  71.3977140  92.0169950
  27.2349620  68.4390500  77.6311750  27.5151910  67.5958400  77.9871170
  26.4615350  68.6713610  78.1450500  18.5544110  70.7282890  75.0902750
  18.8570010  70.7350320  74.1821900  19.2938700  70.3780750  75.5870410
  23.3892750  85.4939750  90.0719190  23.3151450  86.3974890  90.3791560
  22.4871590  85.1751650  90.0441260  23.9378080  84.6598260  77.6945550
  24.8328870  84.9983230  77.7164310  23.9695710  83.9377670  77.0669830
  17.5774240  80.0325310  75.9232550  18.0149110  80.5754980  76.5790130
  18.0621970  79.2072260  75.9328890  14.7920040  82.8214340  83.3752810
  15.1223050  81.9535400  83.1431450  15.2211040  83.0272860  84.2057770
  19.3881960  81.1523350  81.0354780  19.0877500  81.0288320  81.9358690
  19.2819450  80.2931940  80.6270510  15.2810250  83.6884930  86.1134440
  14.8441240  83.8685730  86.9458590  15.8487930  84.4459550  85.9716160
  30.9172430  83.1901930  90.4011750  30.3174420  83.2494490  89.6575670
  31.0466330  82.2506910  90.5308600  32.1573880  80.9319750  75.7381460
  31.3266840  80.9996400  76.2088690  32.3345710  81.8223870  75.4348320
  31.6130340  77.6767230  78.2415660  32.3749250  78.2463880  78.3475350
  31.6284710  77.1094430  79.0123970  15.1134680  76.2005160  82.4723320
  14.4583520  75.9316800  81.8283020  15.9512630  76.0909640  82.0225300
  32.6190310  78.5317330  83.0857590  32.9899140  77.7484650  82.6793560
  33.2592240  79.2206430  82.9074890  29.6024070  79.9153910  88.4987910
  28.7883910  80.3451070  88.7613700  30.0098270  80.5272320  87.8856960
  31.6649510  77.9701600  75.3988180  31.9398350  78.8780480  75.2707400
  31.4760250  77.9064130  76.3350170  28.0625120  70.9946450  76.6941810
  28.4810000  70.8077430  75.8538470  27.7561180  70.1425500  77.0044740
  31.5614850  75.9070590  80.3917610  31.1858450  75.1398520  79.9598900
  30.8317970  76.2893290  80.8792540  16.1510610  76.5857730  87.0126660
  16.5183650  76.4985130  87.8922680  15.5821430  75.8224280  86.9133520
  30.9514470  75.0542110  90.0257130  30.7200560  74.8254860  89.1255080
  31.2119020  75.9741660  89.9802020  15.7026610  73.4966820  90.9185080
  14.8082660  73.4633580  91.2578790  16.2424160  73.6953610  91.6836330
  29.3902540  70.2798540  92.8036830  30.2672720  70.2881940  93.1870830
  29.4023380  69.5429380  92.1929180  14.3272760  73.4104090  78.4148650
  13.4236840  73.6734290  78.2400310  14.8113380  73.6815260  77.6348610
  30.8365810  74.1328080  83.6924850  31.3603290  73.6390730  83.0615020
  31.4225230  74.2678440  84.4372420  31.0155530  74.2167950  87.2144400
  30.0658240  74.1831490  87.3289390  31.1968540  75.1268060  86.9794170
  16.8699970  72.4669630  76.3243030  17.5791670  72.0452850  75.8390310
  16.1539910  72.5344860  75.6926380  16.5174130  68.5208960  75.3645680
  17.2402260  69.0617900  75.6826900  16.7898650  68.2472380  74.4887220
  30.3265780  73.3901430  79.6317260  30.8224900  73.1572300  80.4166140
  30.1281850  72.5513270  79.2154900  16.2066320  67.7715150  85.2668300
  16.8542510  67.2212530  84.8263460  16.6268160  68.0258300  86.0884110
  31.7552940  72.0262380  82.1654940  31.6452220  71.8718420  83.1037210
  32.5160530  71.4983320  81.9230350  30.1018660  67.9656510  88.6237940
  30.7390880  68.5790650  88.9897130  30.2493550  68.0017170  87.6787170
  32.6443210  69.8570300  75.4061080  33.5692520  69.7251480  75.1979370
  32.6219000  69.9363120  76.3597530  32.7181700  70.6280960  78.0317790
  31.9233200  70.5626080  78.5610700  32.9224980  71.5631600  78.0203140
  29.6600120  84.6672510  82.0256180  30.2559190  84.3457080  81.3490600
  29.9178270  84.1944330  82.8169450  15.9598320  67.9270820  88.0093620
  15.6113140  68.3834640  88.7751800  15.6286020  67.0327950  88.0916050
  17.5662690  81.0990420  92.1746810  17.5232320  80.7283330  93.0561270
  17.6973700  82.0367990  92.3148630  21.2668720  82.6550010  87.7756530
  21.0260080  82.9224570  86.8887050  22.2071360  82.8255740  87.8307390
  23.4723140  69.1182700  91.5313040  23.4112030  69.7104530  92.2808450
  24.4123520  69.0108660  91.3863300  26.1097700  68.7752760  91.1705330
  26.7238110  69.0932050  90.5086410  26.6547260  68.2901350  91.7901190
  32.5272880  84.6744390  88.5767170  32.0331160  85.0713260  87.8594300
  31.9186170  84.0493600  88.9704450  16.6318960  67.4547020  91.2844390
  17.1801950  67.2735070  90.5210500  16.6974270  66.6641130  91.8200700
  17.4050720  84.0452670  89.2944590  16.8111040  83.9137370  90.0334630
  17.3974560  83.2090810  88.8286690  26.8505740  67.3384900  87.4974620
  25.9765580  67.6720010  87.2947550  26.7416490  66.8658080  88.3226490
  27.7577720  69.5455770  88.8816340  27.4291080  68.7307530  88.5018070
  28.7060020  69.5025580  88.7582030  30.2112330  85.3167810  85.8553910
  29.7515300  86.0683620  85.4811930  29.5824790  84.5974280  85.7968710
  17.0362950  81.4111050  88.2452630  16.3097010  80.7916340  88.1778580
  17.0972100  81.8051660  87.3750710  20.6408050  83.6256050  85.0302040
  21.1573070  83.0143410  84.5050300  21.2905430  84.1284830  85.5213050
  23.3803550  84.5164540  85.8571020  23.6681360  84.2618840  84.9804030
  23.8926770  83.9641900  86.4476590  24.5980560  68.2554740  86.4367530
  23.8152350  68.7300240  86.7164290  24.3043490  67.3509570  86.3280710
  29.1501630  68.9577840  84.4816620  29.5909720  68.9022940  83.6338220
  28.8809220  69.8735850  84.5526800  31.0140200  68.5893080  82.4925440
  30.9528600  67.6454300  82.3456460  31.7932230  68.6973170  83.0378900
  15.3192950  84.7285440  81.4549390  15.1514990  84.0956120  82.1531280
  14.4527460  84.9344840  81.1043580  15.9420970  68.5602220  78.9581250
  16.7000330  68.6731100  78.3845280  15.4798140  69.3971420  78.9124680
  22.4834780  70.6741490  81.9483560  21.6709290  70.2998380  81.6079440
  22.9876420  69.9186570  82.2504750  26.9859760  67.3383940  83.1866630
  27.5889130  67.9104150  83.6615150  26.2452750  67.9023380  82.9640530
  30.1294360  67.7405500  78.4606910  30.3244990  68.6388950  78.7274340
  29.3424230  67.5092580  78.9539860  16.9255650  83.4218670  78.8999530
  16.4003270  83.8026700  78.1961490  16.8500230  84.0469440  79.6209240
  23.4475910  85.4380640  93.2239220  24.3743220  85.2024910  93.2675180
  23.4326340  86.2652640  92.7425250  31.6820970  84.9806210  80.2213470
  31.8573160  84.2943950  79.5774390  30.9842540  85.5053260  79.8290140
  20.6339520  68.1025390  92.9881100  20.3523790  68.6058990  92.2241920
  21.0159220  67.3047140  92.6223230  19.5248620  85.3701050  77.7748780
  20.2567440  85.0860330  77.2272670  19.7842290  85.1314330  78.6648160
  18.6863410  81.4865780  77.7795110  18.0572290  81.9550880  78.3280940
  18.8011240  80.6415000  78.2141300  27.2354980  67.5178970  93.5661570
  27.1220430  67.8373580  94.4613090  28.0524720  67.9191480  93.2698850
  30.0153470  84.6650500  93.0480260  30.8078790  84.1699730  92.8406220
  30.3086620  85.3440640  93.6555870  26.1413130  75.5371440  63.9296310
  26.0607180  74.6226050  63.6588020  25.7277550  76.0338510  63.2236020
  24.2731170  77.3150460  65.8105580  23.4973270  76.8350900  66.1004150
  24.9244100  76.6356110  65.6361740  18.2897000  77.6270270  66.6881340
  17.4581880  77.3718980  67.0877850  18.8977980  77.6981040  67.4239260
  28.2938600  81.7210650  64.5904710  27.8320130  80.9497890  64.9191880
  29.1064150  81.7476720  65.0957160  18.2698260  81.6610360  66.8839360
  18.5726300  80.7708100  66.7049580  19.0141850  82.2180580  66.6561610
  16.6988950  72.5872160  60.4723730  15.8105650  72.9288130  60.3703610
  16.9830140  72.3872480  59.5804560  14.6621960  75.1877810  66.3563430
  15.2338070  74.4200010  66.3567070  14.6623500  75.4866570  65.4470040
  24.5201910  84.0068660  64.2108700  23.9013350  84.4626160  63.6403140
  25.3753690  84.1620120  63.8098400  23.7140160  79.9907650  65.8175740
  23.6448440  79.0497590  65.6564870  24.4760020  80.0809060  66.3898310
  15.9046830  70.5962170  68.1432360  15.7249670  69.6987920  68.4235120
  15.5026910  71.1434040  68.8179310  24.7445330  72.7978030  66.0444670
  25.1210150  71.9249910  65.9318340  24.6464840  73.1336730  65.1535110
  18.8750340  71.1703660  61.5062110  18.9817090  72.0707390  61.8130870
  17.9642700  71.1221630  61.2156760  28.5269450  70.2928470  62.9773010
  29.3479070  69.8025040  63.0198490  28.5603530  70.8826130  63.7304850
  16.5233500  73.0922670  66.7514700  17.2043610  73.3561040  67.3702100
  16.2081550  72.2523540  67.0852710  20.7158070  74.1390030  65.8387290
  21.2236290  74.6371000  66.4792310  21.2471310  73.3625230  65.6626650
  32.8169000  72.3095220  69.5416640  32.1121170  72.6976930  69.0231750
  33.0826920  73.0045510  70.1437570  18.9994170  68.7788590  70.1050710
  19.0012610  69.2960980  69.2996610  18.1698480  68.3018770  70.0820640
  25.3865260  78.8907900  61.6040610  24.7682530  79.3557350  61.0403330
  25.8988510  79.5835380  62.0210120  20.2497020  78.4183770  68.2824210
  19.9166400  79.0452690  68.9245280  20.4263700  78.9445650  67.5025880
  28.7630930  72.2328850  65.7500550  28.0586500  72.5213740  66.3303660
  29.1243090  73.0428960  65.3900110  18.6809500  70.4898550  68.1121160
  19.0226310  71.3340600  67.8175030  17.7425310  70.6382290  68.2286500
  19.4616120  80.3864570  70.0973390  20.0790120  81.0615650  69.8157840
  18.6009240  80.7952550  70.0060890  14.7548460  79.5764430  58.9780240
  14.3776440  80.0651530  58.2465140  15.0121530  80.2489710  59.6086770
  30.3793710  81.8503980  68.0128030  29.6957230  82.5203090  68.0044700
  30.9188000  82.0484630  67.2472890  31.8317850  71.6783640  66.1409760
  30.8842760  71.7122620  66.2725190  32.1567840  72.4922590  66.5259120
  22.3637390  67.9780820  64.4365750  22.6712370  67.4227710  63.7201250
  21.4338090  68.1125280  64.2538740  27.9152450  83.6948110  66.7273210
  27.9279610  83.2910400  65.8595470  27.3627670  84.4695400  66.6234640
  29.2097870  80.4164330  61.8163380  29.0994200  79.4738660  61.9412800
  29.2066120  80.7779970  62.7026140  27.3137890  78.5977950  68.0555820
  27.7306680  78.3838060  67.2209280  28.0377710  78.8550740  68.6264440
  24.7518150  76.0429650  61.1725870  23.8247430  75.9767030  61.4014340
  24.9042970  76.9809780  61.0581110  24.7387230  72.3146650  58.1693030
  23.7990900  72.4760610  58.2545490  25.0570490  73.0332330  57.6229020
  31.2599990  76.9965170  68.1472060  30.4318620  77.0658260  67.6722190
  31.8550470  77.5819480  67.6787890  28.7815440  77.6049950  61.6761120
  28.1627860  77.2669500  61.0287420  28.7639890  76.9609710  62.3840310
  28.2242000  73.7834490  69.0926930  27.8113180  74.6088200  69.3466920
  27.4917950  73.1979530  68.9003290  20.3574790  76.5694390  63.9545600
  19.9531790  75.8571640  63.4591500  20.4437910  76.2247630  64.8433640
  20.8256490  80.2561950  66.1184810  20.5284780  79.6507420  65.4392590
  21.7756310  80.2939260  66.0074170  19.0703410  73.3437600  67.7344640
  19.6218000  73.4532940  66.9597890  19.5846920  73.7175200  68.4499870
  28.9142100  83.8293820  69.7807910  28.4372660  84.6366010  69.5880520
  28.2303890  83.1772150  69.9334120  19.9174920  79.9943640  72.7692610
  19.0203450  80.2183610  73.0166010  19.9427790  80.1178580  71.8204010
  26.9580140  76.8436760  58.6833870  27.3973420  76.0059190  58.5371690
  27.6708560  77.4766160  58.7698010  18.7446140  76.8656960  71.3449980
  18.6053910  77.7379760  71.7137380  17.8627500  76.5229770  71.1997920
  25.0675520  81.7832830  62.6515110  25.5071430  82.5257160  62.2370500
  25.0062410  82.0259400  63.5754070  20.5426490  82.8078660  73.5535130
  20.5141920  83.2121610  72.6863560  20.3791460  81.8789020  73.3906730
  30.5397280  68.0979570  56.9974910  30.2269940  68.1906400  57.8973980
  31.3009750  68.6760600  56.9472340  17.0579420  75.4639370  61.4552250
  16.9377020  76.1901460  60.8433520  16.7480310  74.6942280  60.9780160
  32.4941310  83.5905760  74.8499300  32.9701030  84.0688650  75.5288380
  33.1148470  83.5223250  74.1244800  14.6964790  78.6354510  67.2620890
  14.7745210  78.7703280  66.3176610  15.3106470  77.9270400  67.4549010
  15.9412420  80.3354700  63.6727070  15.5340500  80.4769290  62.8180670
  16.8325430  80.0514860  63.4698280  31.8974560  80.7818610  72.0099310
  32.0237620  80.5430490  71.0916490  31.9395940  79.9503150  72.4821390
  25.7591300  84.4846610  70.5794120  26.2735970  84.3954620  71.3816550
  24.9160380  84.8306310  70.8722030  27.7345700  84.7701950  60.0078120
  27.5746840  84.4804890  60.9059950  27.5692410  83.9942080  59.4723350
  20.2134080  84.5500480  61.7849740  20.0376560  83.6336020  61.5717540
  19.3589820  84.9087770  62.0247540  27.4371830  82.2789510  58.5676120
  26.7436990  82.2766800  57.9078400  28.1794690  81.8548830  58.1370290
  27.0021760  83.9052220  62.6424610  27.4578710  83.1241600  62.9563230
  27.3414280  84.6159040  63.1865790  31.7498570  72.8351070  72.9749050
  31.1342840  73.3430740  72.4464510  31.4294990  71.9349400  72.9174990
  14.7524310  79.6768680  69.8015350  14.9155350  79.2074040  68.9834720
  15.2176760  79.1692240  70.4664190  19.5243080  68.8074440  64.8375920
  19.0811230  69.5883980  64.5060440  20.0828070  69.1304330  65.5446860
  23.8112890  71.6742960  70.4411240  23.3492260  71.8825980  71.2531180
  23.4091000  70.8602310  70.1381910  28.8117400  72.8951910  71.5707900
  27.9610990  72.5957660  71.8916970  28.6519190  73.1393920  70.6591720
  25.9067110  74.3953660  73.6706690  26.2320520  73.5617410  73.3308920
  26.6947440  74.9182180  73.8185020  22.6401900  68.4285140  59.7181750
  22.0156080  68.4245010  60.4435060  22.5532020  67.5616100  59.3217720
  21.5618980  69.3521770  66.6965520  21.8591310  70.2584600  66.6157540
  22.1104540  68.8640550  66.0825090  19.3157300  73.9308010  62.5657170
  19.0898220  73.7145180  63.4703790  18.5349830  74.3636470  62.2203140
  26.5455060  73.9371380  61.1647820  25.9463950  74.6607180  60.9811440
  27.0934670  73.8748160  60.3824270  21.7556510  74.8293590  73.2317440
  21.6600110  73.8888320  73.0817840  22.5988490  75.0508660  72.8365510
  25.1519930  72.5734920  63.1951100  25.5449500  72.8907120  62.3819790
  25.5136780  71.6946800  63.3095620  16.8867050  71.2407260  71.3851220
  16.4930440  72.0882470  71.5924000  16.1985450  70.6033630  71.5759860
  23.4612100  71.3242230  74.4547960  22.7710420  71.1314430  75.0894050
  24.2044400  71.6076870  74.9872260  14.1884100  69.1635720  65.4181300
  13.8997150  69.7338580  66.1306280  14.9329860  68.6840170  65.7812530
  14.3754330  73.1055840  56.6284020  14.2929000  74.0486600  56.7699010
  14.0237390  72.9630750  55.7496370  25.7375070  75.1640670  67.2901880
  25.0056190  75.6727480  67.6391980  25.3399410  74.3470650  66.9890660
  22.1752460  71.8394870  65.6954370  22.1788520  71.3984820  64.8458910
  23.0703580  72.1612200  65.8026190  18.0254840  71.7221360  64.6548580
  17.6854890  72.1996590  65.4115630  17.2632160  71.2686480  64.2949680
  22.2372610  72.8406950  58.6861130  22.3585430  72.7993430  59.6346950
  21.8521120  73.7031100  58.5307860  26.2000980  70.6174350  66.7024820
  26.2173720  71.0683000  67.5466670  25.9516560  69.7179990  66.9158260
  21.2494110  75.1508090  58.0844430  20.6811010  74.7026340  57.4580340
  21.9583110  75.5100870  57.5509580  29.6271730  68.0306530  72.5411200
  29.9517500  67.2996190  73.0669180  29.6628240  67.7120170  71.6392190
  16.3263290  79.0520110  71.9611160  15.9418080  78.4113780  72.5594120
  16.6375480  79.7556230  72.5305890  22.4760430  75.8996650  67.4419780
  22.8430560  75.4255220  68.1881120  22.2865490  76.7738220  67.7828120
  15.3400920  70.6440340  63.5713250  15.0547840  70.2796010  64.4091870
  15.2779780  69.9120800  62.9576390  20.2659800  74.9405290  69.7603990
  19.9616870  75.8197270  69.9854350  21.2206260  75.0005080  69.7961430
  18.7941590  79.1466280  60.3570840  18.0203850  78.6063900  60.1969560
  19.5236220  78.6272890  60.0188600  29.5529570  78.1431640  66.1497230
  30.2728690  78.6386930  65.7593340  29.3511390  77.4649530  65.5051100
  25.0139510  69.5369600  60.2926620  24.2004120  69.0382770  60.2171930
  24.8201460  70.3767850  59.8762970  24.9348370  78.2140700  72.0366230
  24.8685680  77.2936370  71.7823820  24.3053510  78.3116140  72.7510870
  27.7287900  73.9089250  58.5888780  28.6167520  74.2206480  58.4140120
  27.6992990  73.0361500  58.1969360  18.8378990  78.8146660  63.9949650
  19.3557660  78.0114920  63.9406540  18.3863010  78.7525800  64.8366480
  23.7248490  80.0812940  59.2676950  24.0664190  80.8255170  58.7720270
  22.8961200  80.3944060  59.6301780  16.3223530  75.7808030  70.9075350
  15.9638470  76.4461880  71.4948690  16.0278090  74.9491580  71.2787970
  19.5236650  76.2392270  73.7914900  19.2236790  76.3849450  72.8942720
  20.2947890  75.6797560  73.6988290  24.8665100  81.0361270  71.7870030
  24.8809640  80.1042230  71.5688940  24.1590200  81.1221030  72.4259800
  30.0002170  75.2201090  58.0568640  29.9165890  75.6515310  57.2065080
  30.7196360  75.6799440  58.4895460  31.0776310  77.6768610  71.1338610
  30.3524500  78.2697390  70.9368000  31.6051770  77.6692150  70.3351980
  31.0289420  82.0743350  60.7850770  30.3865580  81.4198970  61.0594490
  30.6420080  82.4798440  60.0091440  26.6075900  79.4028780  64.6322460
  26.9599720  78.8056910  63.9723830  25.7238230  79.0773010  64.8030710
  22.6939180  80.1626470  62.0392870  23.3810310  80.7095680  62.4200460
  21.9071600  80.7067200  62.0742480  14.8331580  75.7799290  57.5309950
  15.7026430  76.0624090  57.8145870  14.3421900  76.5935160  57.4158760
  21.9966390  77.1672500  61.6518230  22.4529170  77.9777750  61.8778420
  21.6454600  76.8495640  62.4836720  24.2999000  82.6778840  68.8810530
  24.9441220  82.8838220  69.5583950  24.6628440  81.9167240  68.4281380
  17.8978170  67.5110150  62.1240750  17.7692800  67.5028050  63.0725670
  17.0740190  67.8493240  61.7731760  25.5731080  80.6811190  67.5987980
  26.2153310  79.9804350  67.7120150  26.0980430  81.4609630  67.4184870
  29.4186800  80.9659810  57.3227120  29.1924380  80.2490250  57.9151760
  29.0283000  80.7172250  56.4848870  27.3468700  81.4806090  70.8024040
  27.6824940  82.0672780  71.4801960  26.4269040  81.3498800  71.0321830
  15.2002830  84.9926670  58.0971580  15.5600470  85.5916010  57.4428850
  15.0595170  85.5386560  58.8706610  14.8972100  69.2701270  71.5847450
  14.1830620  69.4698190  72.1900060  15.3167140  68.4940840  71.9562250
  29.0003050  78.8831750  58.9841280  28.7124750  79.3444440  59.7719160
  29.7955220  78.4229520  59.2525500  15.1844690  83.2581530  72.5713980
  15.2935810  82.3176270  72.4309370  14.5325250  83.5236280  71.9227710
  23.1757280  81.5297420  73.9712100  22.8554150  80.8106660  74.5157790
  22.5015640  82.2052490  74.0448160  21.2171450  82.3757870  58.9145250
  21.2081550  83.1087560  58.2989760  20.2969810  82.1289450  59.0072210
  16.8178090  77.5972760  59.6592010  16.2106040  78.3371660  59.6687310
  17.2927440  77.6872120  58.8330210  26.3910880  71.7623580  69.3348900
  26.7591700  70.9418790  69.6628470  25.5309080  71.8225470  69.7504550
  29.7572910  70.7180520  60.1436460  29.1286070  70.8226190  59.4294690
  29.2624830  70.9377300  60.9330340  24.2031050  82.4386110  57.5770440
  24.3043030  82.2350100  56.6472420  23.3032790  82.1844390  57.7818220
  21.7256940  72.9966470  61.5594340  21.0173090  73.4652810  62.0007950
  22.0101420  72.3388480  62.1939530  23.3512870  74.4163170  69.5586870
  23.8498120  74.8908990  70.2238720  23.4935820  73.4926690  69.7656900
  25.7572370  69.7217130  62.9990130  25.6340150  69.7403260  62.0499640
  26.7056930  69.7696070  63.1188530  22.8449160  84.9572430  62.2718110
  23.0990660  84.9193820  61.3497480  21.8961640  84.8305760  62.2646360
  19.9291960  71.3051550  58.9345050  20.7782490  71.7421700  58.8685240
  19.5623230  71.6171810  59.7617110  30.5579730  70.6331130  70.4015260
  30.0553330  71.3736530  70.7409070  31.3736390  71.0215130  70.0852050
  28.8501740  75.8764310  63.8476620  27.9091880  75.8914540  64.0224310
  29.1645810  75.0900270  64.2936920  18.8283380  77.5583910  57.4080580
  19.5946650  77.4465270  57.9706010  18.9058070  76.8621880  56.7557350
  17.5230140  74.9908980  58.0913470  17.6033730  74.0436490  58.2030870
  18.4149890  75.3215860  58.1974130  30.8527320  83.0473160  65.5230880
  30.9774740  83.8704330  65.9954690  31.7192880  82.8363890  65.1755030
  18.3244850  85.1404370  65.1948010  19.0607330  84.5919830  65.4656580
  18.7085770  86.0060380  65.0554000  15.2090330  81.2077940  61.0689520
  14.2830110  81.4499080  61.0594930  15.6746760  82.0352200  60.9474270
  17.3303130  84.3250440  74.3833590  18.1315860  84.6462490  74.7968990
  16.8154950  83.9646020  75.1053500  21.4347160  84.3134680  57.0173580
  22.2275770  84.6023510  56.5655370  20.9151510  83.8826850  56.3386060
  26.1667760  80.4330310  74.3309000  25.5605920  80.4561910  73.5904750
  25.8621870  79.7013350  74.8676250  27.5968130  84.1610600  72.9418410
  28.5489880  84.0768620  72.8918650  27.4496350  84.8252310  73.6152200
  30.4877330  83.5404810  58.4410320  30.2018840  83.1269950  57.6264500
  30.2896880  84.4692520  58.3210840  15.0500940  76.8123900  73.3269640
  15.5539960  76.2331180  73.8985870  14.3108360  77.0964130  73.8646010
  21.9524560  79.5338090  56.8815930  21.8475200  78.9190440  57.6077310
  21.7848780  79.0103980  56.0978940  22.1038880  78.2194890  72.8605160
  21.3384550  78.7879890  72.7759830  22.2854840  77.9271100  71.9673390
  25.1927290  78.5958120  57.4857920  24.6437390  79.0427420  58.1300660
  25.8146550  78.0907370  58.0095590  29.2462230  79.9500220  73.4180180
  29.9871700  80.2875980  72.9147640  28.4834910  80.1192280  72.8649950
  17.0824020  74.9553490  74.2219710  17.1229360  74.6567360  75.1304940
  17.9369520  75.3561100  74.0627230  20.8602410  77.5549040  59.3823220
  21.2818830  77.3888910  60.2254610  20.9853250  76.7449270  58.8878360
  19.0229830  73.5345590  72.1894200  18.4926290  73.0436540  71.5617540
  19.6917900  73.9629790  71.6552130  23.3730050  76.5786650  56.6300320
  23.8935710  75.8635670  56.2641470  24.0198450  77.2172520  56.9300830
  27.9207890  78.0015050  71.9535390  28.3348910  78.1560130  72.8025810
  26.9858890  78.1270270  72.1161170  28.3930060  75.3411210  73.9574540
  28.9750830  74.5863530  73.8695020  28.5691830  75.8718650  73.1806020
  19.5102130  70.5007960  72.2691490  19.4159000  69.8828710  71.5442360
  18.9299520  71.2274250  72.0421400  22.2763570  69.0581200  69.3018880
  21.8280870  69.0805460  68.4564430  21.6428770  68.6600220  69.8989180
  22.6823120  77.9535530  69.9231320  23.1011230  78.7968260  69.7507560
  21.7631750  78.0907570  69.6938100  25.0187020  75.6851710  71.3069160
  25.1383230  75.0892850  72.0464000  25.8781020  75.7221400  70.8870460
  27.3574920  76.2388900  69.8831670  26.8310140  76.7631520  69.2796810
  27.7006260  76.8716290  70.5141400  19.7561310  73.6282270  56.3281380
  19.5550370  72.7649630  56.6894720  19.5853360  73.5415630  55.3902980
  20.5330540  84.2588540  71.0389050  19.9951630  84.9834600  70.7197750
  20.7864500  83.7818880  70.2486390  21.7855790  72.2273060  72.5644980
  22.3755480  71.9188910  73.2522800  20.9676030  71.7552810  72.7204880
  26.6049220  71.8438870  72.7978000  25.9164740  71.1820410  72.7327990
  27.3255240  71.3977140  73.2426460  27.2349620  68.4390500  58.8568260
  27.5151910  67.5958400  59.2127680  26.4615350  68.6713610  59.3707010
  18.5544110  70.7282890  56.3159260  18.8570010  70.7350320  55.4078410
  19.2938700  70.3780750  56.8126920  23.3892750  85.4939750  71.2975700
  23.3151450  86.3974890  71.6048070  22.4871590  85.1751650  71.2697770
  21.7729040  69.6717510  57.3015460  21.4251040  68.9941500  56.7217910
  21.9741810  69.2107020  58.1158850  23.9378080  84.6598260  58.9202060
  24.8328870  84.9983230  58.9420820  23.9695710  83.9377670  58.2926340
  17.5774240  80.0325310  57.1489060  18.0149110  80.5754980  57.8046640
  18.0621970  79.2072260  57.1585400  14.7920040  82.8214340  64.6009320
  15.1223050  81.9535400  64.3687960  15.2211040  83.0272860  65.4314280
  19.3881960  81.1523350  62.2611290  19.0877500  81.0288320  63.1615200
  19.2819450  80.2931940  61.8527020  15.2810250  83.6884930  67.3390950
  14.8441240  83.8685730  68.1715100  15.8487930  84.4459550  67.1972670
  30.9172430  83.1901930  71.6268260  30.3174420  83.2494490  70.8832180
  31.0466330  82.2506910  71.7565110  32.1573880  80.9319750  56.9637970
  31.3266840  80.9996400  57.4345200  32.3345710  81.8223870  56.6604830
  31.6130340  77.6767230  59.4672170  32.3749250  78.2463880  59.5731860
  31.6284710  77.1094430  60.2380480  15.1134680  76.2005160  63.6979830
  14.4583520  75.9316800  63.0539530  15.9512630  76.0909640  63.2481810
  32.6190310  78.5317330  64.3114100  32.9899140  77.7484650  63.9050070
  33.2592240  79.2206430  64.1331400  29.6024070  79.9153910  69.7244420
  28.7883910  80.3451070  69.9870210  30.0098270  80.5272320  69.1113470
  31.6649510  77.9701600  56.6244690  31.9398350  78.8780480  56.4963910
  31.4760250  77.9064130  57.5606680  28.0625120  70.9946450  57.9198320
  28.4810000  70.8077430  57.0794980  27.7561180  70.1425500  58.2301250
  31.5614850  75.9070590  61.6174120  31.1858450  75.1398520  61.1855410
  30.8317970  76.2893290  62.1049050  16.1510610  76.5857730  68.2383170
  16.5183650  76.4985130  69.1179190  15.5821430  75.8224280  68.1390030
  30.9514470  75.0542110  71.2513640  30.7200560  74.8254860  70.3511590
  31.2119020  75.9741660  71.2058530  15.7026610  73.4966820  72.1441590
  14.8082660  73.4633580  72.4835300  16.2424160  73.6953610  72.9092840
  29.3902540  70.2798540  74.0293340  30.2672720  70.2881940  74.4127340
  29.4023380  69.5429380  73.4185690  14.3272760  73.4104090  59.6405160
  13.4236840  73.6734290  59.4656820  14.8113380  73.6815260  58.8605120
  30.8365810  74.1328080  64.9181360  31.3603290  73.6390730  64.2871530
  31.4225230  74.2678440  65.6628930  31.0155530  74.2167950  68.4400910
  30.0658240  74.1831490  68.5545900  31.1968540  75.1268060  68.2050680
  16.8699970  72.4669630  57.5499540  17.5791670  72.0452850  57.0646820
  16.1539910  72.5344860  56.9182890  16.5174130  68.5208960  56.5902190
  17.2402260  69.0617900  56.9083410  16.7898650  68.2472380  55.7143730
  30.3265780  73.3901430  60.8573770  30.8224900  73.1572300  61.6422650
  30.1281850  72.5513270  60.4411410  16.2066320  67.7715150  66.4924810
  16.8542510  67.2212530  66.0519970  16.6268160  68.0258300  67.3140620
  31.7552940  72.0262380  63.3911450  31.6452220  71.8718420  64.3293720
  32.5160530  71.4983320  63.1486860  30.1018660  67.9656510  69.8494450
  30.7390880  68.5790650  70.2153640  30.2493550  68.0017170  68.9043680
  32.6443210  69.8570300  56.6317590  33.5692520  69.7251480  56.4235880
  32.6219000  69.9363120  57.5854040  32.7181700  70.6280960  59.2574300
  31.9233200  70.5626080  59.7867210  32.9224980  71.5631600  59.2459650
  29.6600120  84.6672510  63.2512690  30.2559190  84.3457080  62.5747110
  29.9178270  84.1944330  64.0425960  15.9598320  67.9270820  69.2350130
  15.6113140  68.3834640  70.0008310  15.6286020  67.0327950  69.3172560
  17.5662690  81.0990420  73.4003320  17.5232320  80.7283330  74.2817780
  17.6973700  82.0367990  73.5405140  21.2668720  82.6550010  69.0013040
  21.0260080  82.9224570  68.1143560  22.2071360  82.8255740  69.0563900
  23.4723140  69.1182700  72.7569550  23.4112030  69.7104530  73.5064960
  24.4123520  69.0108660  72.6119810  26.1097700  68.7752760  72.3961840
  26.7238110  69.0932050  71.7342920  26.6547260  68.2901350  73.0157700
  32.5272880  84.6744390  69.8023680  32.0331160  85.0713260  69.0850810
  31.9186170  84.0493600  70.1960960  16.6318960  67.4547020  72.5100900
  17.1801950  67.2735070  71.7467010  16.6974270  66.6641130  73.0457210
  17.4050720  84.0452670  70.5201100  16.8111040  83.9137370  71.2591140
  17.3974560  83.2090810  70.0543200  26.8505740  67.3384900  68.7231130
  25.9765580  67.6720010  68.5204060  26.7416490  66.8658080  69.5483000
  27.7577720  69.5455770  70.1072850  27.4291080  68.7307530  69.7274580
  28.7060020  69.5025580  69.9838540  30.2112330  85.3167810  67.0810420
  29.7515300  86.0683620  66.7068440  29.5824790  84.5974280  67.0225220
  17.0362950  81.4111050  69.4709140  16.3097010  80.7916340  69.4035090
  17.0972100  81.8051660  68.6007220  20.6408050  83.6256050  66.2558550
  21.1573070  83.0143410  65.7306810  21.2905430  84.1284830  66.7469560
  23.3803550  84.5164540  67.0827530  23.6681360  84.2618840  66.2060540
  23.8926770  83.9641900  67.6733100  24.5980560  68.2554740  67.6624040
  23.8152350  68.7300240  67.9420800  24.3043490  67.3509570  67.5537220
  29.1501630  68.9577840  65.7073130  29.5909720  68.9022940  64.8594730
  28.8809220  69.8735850  65.7783310  31.0140200  68.5893080  63.7181950
  30.9528600  67.6454300  63.5712970  31.7932230  68.6973170  64.2635410
  15.3192950  84.7285440  62.6805900  15.1514990  84.0956120  63.3787790
  14.4527460  84.9344840  62.3300090  15.9420970  68.5602220  60.1837760
  16.7000330  68.6731100  59.6101790  15.4798140  69.3971420  60.1381190
  22.4834780  70.6741490  63.1740070  21.6709290  70.2998380  62.8335950
  22.9876420  69.9186570  63.4761260  26.9859760  67.3383940  64.4123140
  27.5889130  67.9104150  64.8871660  26.2452750  67.9023380  64.1897040
  30.1294360  67.7405500  59.6863420  30.3244990  68.6388950  59.9530850
  29.3424230  67.5092580  60.1796370  16.9255650  83.4218670  60.1256040
  16.4003270  83.8026700  59.4218000  16.8500230  84.0469440  60.8465750
  18.3146120  69.0866270  58.7239730  18.8438880  68.2996070  58.5947680
  18.9474440  69.7657460  58.9575260  20.5083960  68.8241410  61.7785120
  19.8786700  68.1228720  61.9455250  19.9689100  69.5845540  61.5618280
  23.4475910  85.4380640  74.4495730  24.3743220  85.2024910  74.4931690
  23.4326340  86.2652640  73.9681760  31.6820970  84.9806210  61.4469980
  31.8573160  84.2943950  60.8030900  30.9842540  85.5053260  61.0546650
  19.5248620  85.3701050  59.0005290  20.2567440  85.0860330  58.4529180
  19.7842290  85.1314330  59.8904670  18.6863410  81.4865780  59.0051620
  18.0572290  81.9550880  59.5537450  18.8011240  80.6415000  59.4397810
  27.2354980  67.5178970  74.7918080  27.1220430  67.8373580  75.6869600
  28.0524720  67.9191480  74.4955360  30.0153470  84.6650500  74.2736770
  30.8078790  84.1699730  74.0662730  30.3086620  85.3440640  74.8812380
  26.1413130  75.5371440  45.1552820  26.0607180  74.6226050  44.8844530
  25.7277550  76.0338510  44.4492530  24.2731170  77.3150460  47.0362090
  23.4973270  76.8350900  47.3260660  24.9244100  76.6356110  46.8618250
  18.2897000  77.6270270  47.9137850  17.4581880  77.3718980  48.3134360
  18.8977980  77.6981040  48.6495770  28.2938600  81.7210650  45.8161220
  27.8320130  80.9497890  46.1448390  29.1064150  81.7476720  46.3213670
  18.2698260  81.6610360  48.1095870  18.5726300  80.7708100  47.9306090
  19.0141850  82.2180580  47.8818120  16.6988950  72.5872160  41.6980240
  15.8105650  72.9288130  41.5960120  16.9830140  72.3872480  40.8061070
  14.6621960  75.1877810  47.5819940  15.2338070  74.4200010  47.5823580
  14.6623500  75.4866570  46.6726550  24.5201910  84.0068660  45.4365210
  23.9013350  84.4626160  44.8659650  25.3753690  84.1620120  45.0354910
  23.7140160  79.9907650  47.0432250  23.6448440  79.0497590  46.8821380
  24.4760020  80.0809060  47.6154820  15.9046830  70.5962170  49.3688870
  15.7249670  69.6987920  49.6491630  15.5026910  71.1434040  50.0435820
  24.7445330  72.7978030  47.2701180  25.1210150  71.9249910  47.1574850
  24.6464840  73.1336730  46.3791620  18.8750340  71.1703660  42.7318620
  18.9817090  72.0707390  43.0387380  17.9642700  71.1221630  42.4413270
  28.5269450  70.2928470  44.2029520  29.3479070  69.8025040  44.2455000
  28.5603530  70.8826130  44.9561360  16.5233500  73.0922670  47.9771210
  17.2043610  73.3561040  48.5958610  16.2081550  72.2523540  48.3109220
  20.7158070  74.1390030  47.0643800  21.2236290  74.6371000  47.7048820
  21.2471310  73.3625230  46.8883160  32.8169000  72.3095220  50.7673150
  32.1121170  72.6976930  50.2488260  33.0826920  73.0045510  51.3694080
  18.9994170  68.7788590  51.3307220  19.0012610  69.2960980  50.5253120
  18.1698480  68.3018770  51.3077150  25.3865260  78.8907900  42.8297120
  24.7682530  79.3557350  42.2659840  25.8988510  79.5835380  43.2466630
  20.2497020  78.4183770  49.5080720  19.9166400  79.0452690  50.1501790
  20.4263700  78.9445650  48.7282390  28.7630930  72.2328850  46.9757060
  28.0586500  72.5213740  47.5560170  29.1243090  73.0428960  46.6156620
  18.6809500  70.4898550  49.3377670  19.0226310  71.3340600  49.0431540
  17.7425310  70.6382290  49.4543010  19.4616120  80.3864570  51.3229900
  20.0790120  81.0615650  51.0414350  18.6009240  80.7952550  51.2317400
  14.7548460  79.5764430  40.2036750  14.3776440  80.0651530  39.4721650
  15.0121530  80.2489710  40.8343280  30.3793710  81.8503980  49.2384540
  29.6957230  82.5203090  49.2301210  30.9188000  82.0484630  48.4729400
  31.8317850  71.6783640  47.3666270  30.8842760  71.7122620  47.4981700
  32.1567840  72.4922590  47.7515630  22.3637390  67.9780820  45.6622260
  22.6712370  67.4227710  44.9457760  21.4338090  68.1125280  45.4795250
  27.9152450  83.6948110  47.9529720  27.9279610  83.2910400  47.0851980
  27.3627670  84.4695400  47.8491150  29.2097870  80.4164330  43.0419890
  29.0994200  79.4738660  43.1669310  29.2066120  80.7779970  43.9282650
  27.3137890  78.5977950  49.2812330  27.7306680  78.3838060  48.4465790
  28.0377710  78.8550740  49.8520950  24.7518150  76.0429650  42.3982380
  23.8247430  75.9767030  42.6270850  24.9042970  76.9809780  42.2837620
  24.7387230  72.3146650  39.3949540  23.7990900  72.4760610  39.4802000
  25.0570490  73.0332330  38.8485530  31.2599990  76.9965170  49.3728570
  30.4318620  77.0658260  48.8978700  31.8550470  77.5819480  48.9044400
  28.7815440  77.6049950  42.9017630  28.1627860  77.2669500  42.2543930
  28.7639890  76.9609710  43.6096820  28.2242000  73.7834490  50.3183440
  27.8113180  74.6088200  50.5723430  27.4917950  73.1979530  50.1259800
  20.3574790  76.5694390  45.1802110  19.9531790  75.8571640  44.6848010
  20.4437910  76.2247630  46.0690150  20.8256490  80.2561950  47.3441320
  20.5284780  79.6507420  46.6649100  21.7756310  80.2939260  47.2330680
  19.0703410  73.3437600  48.9601150  19.6218000  73.4532940  48.1854400
  19.5846920  73.7175200  49.6756380  28.9142100  83.8293820  51.0064420
  28.4372660  84.6366010  50.8137030  28.2303890  83.1772150  51.1590630
  19.9174920  79.9943640  53.9949120  19.0203450  80.2183610  54.2422520
  19.9427790  80.1178580  53.0460520  26.9580140  76.8436760  39.9090380
  27.3973420  76.0059190  39.7628200  27.6708560  77.4766160  39.9954520
  18.7446140  76.8656960  52.5706490  18.6053910  77.7379760  52.9393890
  17.8627500  76.5229770  52.4254430  25.0675520  81.7832830  43.8771620
  25.5071430  82.5257160  43.4627010  25.0062410  82.0259400  44.8010580
  20.5426490  82.8078660  54.7791640  20.5141920  83.2121610  53.9120070
  20.3791460  81.8789020  54.6163240  30.5397280  68.0979570  38.2231420
  30.2269940  68.1906400  39.1230490  31.3009750  68.6760600  38.1728850
  17.0579420  75.4639370  42.6808760  16.9377020  76.1901460  42.0690030
  16.7480310  74.6942280  42.2036670  32.4941310  83.5905760  56.0755810
  32.9701030  84.0688650  56.7544890  33.1148470  83.5223250  55.3501310
  14.6964790  78.6354510  48.4877400  14.7745210  78.7703280  47.5433120
  15.3106470  77.9270400  48.6805520  15.9412420  80.3354700  44.8983580
  15.5340500  80.4769290  44.0437180  16.8325430  80.0514860  44.6954790
  31.8974560  80.7818610  53.2355820  32.0237620  80.5430490  52.3173000
  31.9395940  79.9503150  53.7077900  25.7591300  84.4846610  51.8050630
  26.2735970  84.3954620  52.6073060  24.9160380  84.8306310  52.0978540
  27.7345700  84.7701950  41.2334630  27.5746840  84.4804890  42.1316460
  27.5692410  83.9942080  40.6979860  20.2134080  84.5500480  43.0106250
  20.0376560  83.6336020  42.7974050  19.3589820  84.9087770  43.2504050
  27.4371830  82.2789510  39.7932630  26.7436990  82.2766800  39.1334910
  28.1794690  81.8548830  39.3626800  27.0021760  83.9052220  43.8681120
  27.4578710  83.1241600  44.1819740  27.3414280  84.6159040  44.4122300
  31.7498570  72.8351070  54.2005560  31.1342840  73.3430740  53.6721020
  31.4294990  71.9349400  54.1431500  14.7524310  79.6768680  51.0271860
  14.9155350  79.2074040  50.2091230  15.2176760  79.1692240  51.6920700
  19.5243080  68.8074440  46.0632430  19.0811230  69.5883980  45.7316950
  20.0828070  69.1304330  46.7703370  23.8112890  71.6742960  51.6667750
  23.3492260  71.8825980  52.4787690  23.4091000  70.8602310  51.3638420
  28.8117400  72.8951910  52.7964410  27.9610990  72.5957660  53.1173480
  28.6519190  73.1393920  51.8848230  25.9067110  74.3953660  54.8963200
  26.2320520  73.5617410  54.5565430  26.6947440  74.9182180  55.0441530
  22.6401900  68.4285140  40.9438260  22.0156080  68.4245010  41.6691570
  22.5532020  67.5616100  40.5474230  21.5618980  69.3521770  47.9222030
  21.8591310  70.2584600  47.8414050  22.1104540  68.8640550  47.3081600
  19.3157300  73.9308010  43.7913680  19.0898220  73.7145180  44.6960300
  18.5349830  74.3636470  43.4459650  26.5455060  73.9371380  42.3904330
  25.9463950  74.6607180  42.2067950  27.0934670  73.8748160  41.6080780
  21.7556510  74.8293590  54.4573950  21.6600110  73.8888320  54.3074350
  22.5988490  75.0508660  54.0622020  25.1519930  72.5734920  44.4207610
  25.5449500  72.8907120  43.6076300  25.5136780  71.6946800  44.5352130
  16.8867050  71.2407260  52.6107730  16.4930440  72.0882470  52.8180510
  16.1985450  70.6033630  52.8016370  23.4612100  71.3242230  55.6804470
  22.7710420  71.1314430  56.3150560  24.2044400  71.6076870  56.2128770
  14.1884100  69.1635720  46.6437810  13.8997150  69.7338580  47.3562790
  14.9329860  68.6840170  47.0069040  14.3754330  73.1055840  37.8540530
  14.2929000  74.0486600  37.9955520  14.0237390  72.9630750  36.9752880
  25.7375070  75.1640670  48.5158390  25.0056190  75.6727480  48.8648490
  25.3399410  74.3470650  48.2147170  22.1752460  71.8394870  46.9210880
  22.1788520  71.3984820  46.0715420  23.0703580  72.1612200  47.0282700
  18.0254840  71.7221360  45.8805090  17.6854890  72.1996590  46.6372140
  17.2632160  71.2686480  45.5206190  22.2372610  72.8406950  39.9117640
  22.3585430  72.7993430  40.8603460  21.8521120  73.7031100  39.7564370
  26.2000980  70.6174350  47.9281330  26.2173720  71.0683000  48.7723180
  25.9516560  69.7179990  48.1414770  21.2494110  75.1508090  39.3100940
  20.6811010  74.7026340  38.6836850  21.9583110  75.5100870  38.7766090
  29.6271730  68.0306530  53.7667710  29.9517500  67.2996190  54.2925690
  29.6628240  67.7120170  52.8648700  16.3263290  79.0520110  53.1867670
  15.9418080  78.4113780  53.7850630  16.6375480  79.7556230  53.7562400
  22.4760430  75.8996650  48.6676290  22.8430560  75.4255220  49.4137630
  22.2865490  76.7738220  49.0084630  15.3400920  70.6440340  44.7969760
  15.0547840  70.2796010  45.6348380  15.2779780  69.9120800  44.1832900
  20.2659800  74.9405290  50.9860500  19.9616870  75.8197270  51.2110860
  21.2206260  75.0005080  51.0217940  18.7941590  79.1466280  41.5827350
  18.0203850  78.6063900  41.4226070  19.5236220  78.6272890  41.2445110
  29.5529570  78.1431640  47.3753740  30.2728690  78.6386930  46.9849850
  29.3511390  77.4649530  46.7307610  25.0139510  69.5369600  41.5183130
  24.2004120  69.0382770  41.4428440  24.8201460  70.3767850  41.1019480
  24.9348370  78.2140700  53.2622740  24.8685680  77.2936370  53.0080330
  24.3053510  78.3116140  53.9767380  27.7287900  73.9089250  39.8145290
  28.6167520  74.2206480  39.6396630  27.6992990  73.0361500  39.4225870
  18.8378990  78.8146660  45.2206160  19.3557660  78.0114920  45.1663050
  18.3863010  78.7525800  46.0622990  23.7248490  80.0812940  40.4933460
  24.0664190  80.8255170  39.9976780  22.8961200  80.3944060  40.8558290
  16.3223530  75.7808030  52.1331860  15.9638470  76.4461880  52.7205200
  16.0278090  74.9491580  52.5044480  19.5236650  76.2392270  55.0171410
  19.2236790  76.3849450  54.1199230  20.2947890  75.6797560  54.9244800
  24.8665100  81.0361270  53.0126540  24.8809640  80.1042230  52.7945450
  24.1590200  81.1221030  53.6516310  30.0002170  75.2201090  39.2825150
  29.9165890  75.6515310  38.4321590  30.7196360  75.6799440  39.7151970
  31.0776310  77.6768610  52.3595120  30.3524500  78.2697390  52.1624510
  31.6051770  77.6692150  51.5608490  31.0289420  82.0743350  42.0107280
  30.3865580  81.4198970  42.2851000  30.6420080  82.4798440  41.2347950
  26.6075900  79.4028780  45.8578970  26.9599720  78.8056910  45.1980340
  25.7238230  79.0773010  46.0287220  22.6939180  80.1626470  43.2649380
  23.3810310  80.7095680  43.6456970  21.9071600  80.7067200  43.2998990
  14.8331580  75.7799290  38.7566460  15.7026430  76.0624090  39.0402380
  14.3421900  76.5935160  38.6415270  21.9966390  77.1672500  42.8774740
  22.4529170  77.9777750  43.1034930  21.6454600  76.8495640  43.7093230
  24.2999000  82.6778840  50.1067040  24.9441220  82.8838220  50.7840460
  24.6628440  81.9167240  49.6537890  17.8978170  67.5110150  43.3497260
  17.7692800  67.5028050  44.2982180  17.0740190  67.8493240  42.9988270
  25.5731080  80.6811190  48.8244490  26.2153310  79.9804350  48.9376660
  26.0980430  81.4609630  48.6441380  29.4186800  80.9659810  38.5483630
  29.1924380  80.2490250  39.1408270  29.0283000  80.7172250  37.7105380
  27.3468700  81.4806090  52.0280550  27.6824940  82.0672780  52.7058470
  26.4269040  81.3498800  52.2578340  15.2002830  84.9926670  39.3228090
  15.5600470  85.5916010  38.6685360  15.0595170  85.5386560  40.0963120
  14.8972100  69.2701270  52.8103960  14.1830620  69.4698190  53.4156570
  15.3167140  68.4940840  53.1818760  29.0003050  78.8831750  40.2097790
  28.7124750  79.3444440  40.9975670  29.7955220  78.4229520  40.4782010
  15.1844690  83.2581530  53.7970490  15.2935810  82.3176270  53.6565880
  14.5325250  83.5236280  53.1484220  23.1757280  81.5297420  55.1968610
  22.8554150  80.8106660  55.7414300  22.5015640  82.2052490  55.2704670
  21.2171450  82.3757870  40.1401760  21.2081550  83.1087560  39.5246270
  20.2969810  82.1289450  40.2328720  16.8178090  77.5972760  40.8848520
  16.2106040  78.3371660  40.8943820  17.2927440  77.6872120  40.0586720
  26.3910880  71.7623580  50.5605410  26.7591700  70.9418790  50.8884980
  25.5309080  71.8225470  50.9761060  29.7572910  70.7180520  41.3692970
  29.1286070  70.8226190  40.6551200  29.2624830  70.9377300  42.1586850
  24.2031050  82.4386110  38.8026950  24.3043030  82.2350100  37.8728930
  23.3032790  82.1844390  39.0074730  21.7256940  72.9966470  42.7850850
  21.0173090  73.4652810  43.2264460  22.0101420  72.3388480  43.4196040
  23.3512870  74.4163170  50.7843380  23.8498120  74.8908990  51.4495230
  23.4935820  73.4926690  50.9913410  25.7572370  69.7217130  44.2246640
  25.6340150  69.7403260  43.2756150  26.7056930  69.7696070  44.3445040
  22.8449160  84.9572430  43.4974620  23.0990660  84.9193820  42.5753990
  21.8961640  84.8305760  43.4902870  19.9291960  71.3051550  40.1601560
  20.7782490  71.7421700  40.0941750  19.5623230  71.6171810  40.9873620
  30.5579730  70.6331130  51.6271770  30.0553330  71.3736530  51.9665580
  31.3736390  71.0215130  51.3108560  28.8501740  75.8764310  45.0733130
  27.9091880  75.8914540  45.2480820  29.1645810  75.0900270  45.5193430
  18.8283380  77.5583910  38.6337090  19.5946650  77.4465270  39.1962520
  18.9058070  76.8621880  37.9813860  17.5230140  74.9908980  39.3169980
  17.6033730  74.0436490  39.4287380  18.4149890  75.3215860  39.4230640
  30.8527320  83.0473160  46.7487390  30.9774740  83.8704330  47.2211200
  31.7192880  82.8363890  46.4011540  18.3244850  85.1404370  46.4204520
  19.0607330  84.5919830  46.6913090  18.7085770  86.0060380  46.2810510
  15.2090330  81.2077940  42.2946030  14.2830110  81.4499080  42.2851440
  15.6746760  82.0352200  42.1730780  17.3303130  84.3250440  55.6090100
  18.1315860  84.6462490  56.0225500  16.8154950  83.9646020  56.3310010
  21.4347160  84.3134680  38.2430090  22.2275770  84.6023510  37.7911880
  20.9151510  83.8826850  37.5642570  26.1667760  80.4330310  55.5565510
  25.5605920  80.4561910  54.8161260  25.8621870  79.7013350  56.0932760
  27.5968130  84.1610600  54.1674920  28.5489880  84.0768620  54.1175160
  27.4496350  84.8252310  54.8408710  30.4877330  83.5404810  39.6666830
  30.2018840  83.1269950  38.8521010  30.2896880  84.4692520  39.5467350
  15.0500940  76.8123900  54.5526150  15.5539960  76.2331180  55.1242380
  14.3108360  77.0964130  55.0902520  21.9524560  79.5338090  38.1072440
  21.8475200  78.9190440  38.8333820  21.7848780  79.0103980  37.3235450
  22.1038880  78.2194890  54.0861670  21.3384550  78.7879890  54.0016340
  22.2854840  77.9271100  53.1929900  25.1927290  78.5958120  38.7114430
  24.6437390  79.0427420  39.3557170  25.8146550  78.0907370  39.2352100
  29.2462230  79.9500220  54.6436690  29.9871700  80.2875980  54.1404150
  28.4834910  80.1192280  54.0906460  17.0824020  74.9553490  55.4476220
  17.1229360  74.6567360  56.3561450  17.9369520  75.3561100  55.2883740
  20.8602410  77.5549040  40.6079730  21.2818830  77.3888910  41.4511120
  20.9853250  76.7449270  40.1134870  19.0229830  73.5345590  53.4150710
  18.4926290  73.0436540  52.7874050  19.6917900  73.9629790  52.8808640
  23.3730050  76.5786650  37.8556830  23.8935710  75.8635670  37.4897980
  24.0198450  77.2172520  38.1557340  27.9207890  78.0015050  53.1791900
  28.3348910  78.1560130  54.0282320  26.9858890  78.1270270  53.3417680
  28.3930060  75.3411210  55.1831050  28.9750830  74.5863530  55.0951530
  28.5691830  75.8718650  54.4062530  19.5102130  70.5007960  53.4948000
  19.4159000  69.8828710  52.7698870  18.9299520  71.2274250  53.2677910
  22.2763570  69.0581200  50.5275390  21.8280870  69.0805460  49.6820940
  21.6428770  68.6600220  51.1245690  22.6823120  77.9535530  51.1487830
  23.1011230  78.7968260  50.9764070  21.7631750  78.0907570  50.9194610
  25.0187020  75.6851710  52.5325670  25.1383230  75.0892850  53.2720510
  25.8781020  75.7221400  52.1126970  27.3574920  76.2388900  51.1088180
  26.8310140  76.7631520  50.5053320  27.7006260  76.8716290  51.7397910
  19.7561310  73.6282270  37.5537890  19.5550370  72.7649630  37.9151230
  19.5853360  73.5415630  36.6159490  20.5330540  84.2588540  52.2645560
  19.9951630  84.9834600  51.9454260  20.7864500  83.7818880  51.4742900
  21.7855790  72.2273060  53.7901490  22.3755480  71.9188910  54.4779310
  20.9676030  71.7552810  53.9461390  26.6049220  71.8438870  54.0234510
  25.9164740  71.1820410  53.9584500  27.3255240  71.3977140  54.4682970
  27.2349620  68.4390500  40.0824770  27.5151910  67.5958400  40.4384190
  26.4615350  68.6713610  40.5963520  18.5544110  70.7282890  37.5415770
  18.8570010  70.7350320  36.6334920  19.2938700  70.3780750  38.0383430
  23.3892750  85.4939750  52.5232210  23.3151450  86.3974890  52.8304580
  22.4871590  85.1751650  52.4954280  21.7729040  69.6717510  38.5271970
  21.4251040  68.9941500  37.9474420  21.9741810  69.2107020  39.3415360
  23.9378080  84.6598260  40.1458570  24.8328870  84.9983230  40.1677330
  23.9695710  83.9377670  39.5182850  17.5774240  80.0325310  38.3745570
  18.0149110  80.5754980  39.0303150  18.0621970  79.2072260  38.3841910
  14.7920040  82.8214340  45.8265830  15.1223050  81.9535400  45.5944470
  15.2211040  83.0272860  46.6570790  19.3881960  81.1523350  43.4867800
  19.0877500  81.0288320  44.3871710  19.2819450  80.2931940  43.0783530
  15.2810250  83.6884930  48.5647460  14.8441240  83.8685730  49.3971610
  15.8487930  84.4459550  48.4229180  30.9172430  83.1901930  52.8524770
  30.3174420  83.2494490  52.1088690  31.0466330  82.2506910  52.9821620
  32.1573880  80.9319750  38.1894480  31.3266840  80.9996400  38.6601710
  32.3345710  81.8223870  37.8861340  31.6130340  77.6767230  40.6928680
  32.3749250  78.2463880  40.7988370  31.6284710  77.1094430  41.4636990
  15.1134680  76.2005160  44.9236340  14.4583520  75.9316800  44.2796040
  15.9512630  76.0909640  44.4738320  32.6190310  78.5317330  45.5370610
  32.9899140  77.7484650  45.1306580  33.2592240  79.2206430  45.3587910
  29.6024070  79.9153910  50.9500930  28.7883910  80.3451070  51.2126720
  30.0098270  80.5272320  50.3369980  31.6649510  77.9701600  37.8501200
  31.9398350  78.8780480  37.7220420  31.4760250  77.9064130  38.7863190
  28.0625120  70.9946450  39.1454830  28.4810000  70.8077430  38.3051490
  27.7561180  70.1425500  39.4557760  31.5614850  75.9070590  42.8430630
  31.1858450  75.1398520  42.4111920  30.8317970  76.2893290  43.3305560
  16.1510610  76.5857730  49.4639680  16.5183650  76.4985130  50.3435700
  15.5821430  75.8224280  49.3646540  30.9514470  75.0542110  52.4770150
  30.7200560  74.8254860  51.5768100  31.2119020  75.9741660  52.4315040
  15.7026610  73.4966820  53.3698100  14.8082660  73.4633580  53.7091810
  16.2424160  73.6953610  54.1349350  29.3902540  70.2798540  55.2549850
  30.2672720  70.2881940  55.6383850  29.4023380  69.5429380  54.6442200
  14.3272760  73.4104090  40.8661670  13.4236840  73.6734290  40.6913330
  14.8113380  73.6815260  40.0861630  30.8365810  74.1328080  46.1437870
  31.3603290  73.6390730  45.5128040  31.4225230  74.2678440  46.8885440
  31.0155530  74.2167950  49.6657420  30.0658240  74.1831490  49.7802410
  31.1968540  75.1268060  49.4307190  16.8699970  72.4669630  38.7756050
  17.5791670  72.0452850  38.2903330  16.1539910  72.5344860  38.1439400
  16.5174130  68.5208960  37.8158700  17.2402260  69.0617900  38.1339920
  16.7898650  68.2472380  36.9400240  30.3265780  73.3901430  42.0830280
  30.8224900  73.1572300  42.8679160  30.1281850  72.5513270  41.6667920
  16.2066320  67.7715150  47.7181320  16.8542510  67.2212530  47.2776480
  16.6268160  68.0258300  48.5397130  31.7552940  72.0262380  44.6167960
  31.6452220  71.8718420  45.5550230  32.5160530  71.4983320  44.3743370
  30.1018660  67.9656510  51.0750960  30.7390880  68.5790650  51.4410150
  30.2493550  68.0017170  50.1300190  32.6443210  69.8570300  37.8574100
  33.5692520  69.7251480  37.6492390  32.6219000  69.9363120  38.8110550
  32.7181700  70.6280960  40.4830810  31.9233200  70.5626080  41.0123720
  32.9224980  71.5631600  40.4716160  29.6600120  84.6672510  44.4769200
  30.2559190  84.3457080  43.8003620  29.9178270  84.1944330  45.2682470
  15.9598320  67.9270820  50.4606640  15.6113140  68.3834640  51.2264820
  15.6286020  67.0327950  50.5429070  17.5662690  81.0990420  54.6259830
  17.5232320  80.7283330  55.5074290  17.6973700  82.0367990  54.7661650
  21.2668720  82.6550010  50.2269550  21.0260080  82.9224570  49.3400070
  22.2071360  82.8255740  50.2820410  23.4723140  69.1182700  53.9826060
  23.4112030  69.7104530  54.7321470  24.4123520  69.0108660  53.8376320
  26.1097700  68.7752760  53.6218350  26.7238110  69.0932050  52.9599430
  26.6547260  68.2901350  54.2414210  32.5272880  84.6744390  51.0280190
  32.0331160  85.0713260  50.3107320  31.9186170  84.0493600  51.4217470
  16.6318960  67.4547020  53.7357410  17.1801950  67.2735070  52.9723520
  16.6974270  66.6641130  54.2713720  17.4050720  84.0452670  51.7457610
  16.8111040  83.9137370  52.4847650  17.3974560  83.2090810  51.2799710
  26.8505740  67.3384900  49.9487640  25.9765580  67.6720010  49.7460570
  26.7416490  66.8658080  50.7739510  27.7577720  69.5455770  51.3329360
  27.4291080  68.7307530  50.9531090  28.7060020  69.5025580  51.2095050
  30.2112330  85.3167810  48.3066930  29.7515300  86.0683620  47.9324950
  29.5824790  84.5974280  48.2481730  17.0362950  81.4111050  50.6965650
  16.3097010  80.7916340  50.6291600  17.0972100  81.8051660  49.8263730
  20.6408050  83.6256050  47.4815060  21.1573070  83.0143410  46.9563320
  21.2905430  84.1284830  47.9726070  23.3803550  84.5164540  48.3084040
  23.6681360  84.2618840  47.4317050  23.8926770  83.9641900  48.8989610
  24.5980560  68.2554740  48.8880550  23.8152350  68.7300240  49.1677310
  24.3043490  67.3509570  48.7793730  29.1501630  68.9577840  46.9329640
  29.5909720  68.9022940  46.0851240  28.8809220  69.8735850  47.0039820
  31.0140200  68.5893080  44.9438460  30.9528600  67.6454300  44.7969480
  31.7932230  68.6973170  45.4891920  15.3192950  84.7285440  43.9062410
  15.1514990  84.0956120  44.6044300  14.4527460  84.9344840  43.5556600
  15.9420970  68.5602220  41.4094270  16.7000330  68.6731100  40.8358300
  15.4798140  69.3971420  41.3637700  22.4834780  70.6741490  44.3996580
  21.6709290  70.2998380  44.0592460  22.9876420  69.9186570  44.7017770
  26.9859760  67.3383940  45.6379650  27.5889130  67.9104150  46.1128170
  26.2452750  67.9023380  45.4153550  30.1294360  67.7405500  40.9119930
  30.3244990  68.6388950  41.1787360  29.3424230  67.5092580  41.4052880
  16.9255650  83.4218670  41.3512550  16.4003270  83.8026700  40.6474510
  16.8500230  84.0469440  42.0722260  18.3146120  69.0866270  39.9496240
  18.8438880  68.2996070  39.8204190  18.9474440  69.7657460  40.1831770
  20.5083960  68.8241410  43.0041630  19.8786700  68.1228720  43.1711760
  19.9689100  69.5845540  42.7874790  23.4475910  85.4380640  55.6752240
  24.3743220  85.2024910  55.7188200  23.4326340  86.2652640  55.1938270
  31.6820970  84.9806210  42.6726490  31.8573160  84.2943950  42.0287410
  30.9842540  85.5053260  42.2803160  20.6339520  68.1025390  55.4394120
  20.3523790  68.6058990  54.6754940  21.0159220  67.3047140  55.0736250
  19.5248620  85.3701050  40.2261800  20.2567440  85.0860330  39.6785690
  19.7842290  85.1314330  41.1161180  18.6863410  81.4865780  40.2308130
  18.0572290  81.9550880  40.7793960  18.8011240  80.6415000  40.6654320
  27.2354980  67.5178970  56.0174590  27.1220430  67.8373580  56.9126110
  28.0524720  67.9191480  55.7211870  30.0153470  84.6650500  55.4993280
  30.8078790  84.1699730  55.2919240  30.3086620  85.3440640  56.1068890
  26.1413130  75.5371440  26.3809330  26.0607180  74.6226050  26.1101040
  25.7277550  76.0338510  25.6749040  24.2731170  77.3150460  28.2618600
  23.4973270  76.8350900  28.5517170  24.9244100  76.6356110  28.0874760
  18.2897000  77.6270270  29.1394360  17.4581880  77.3718980  29.5390870
  18.8977980  77.6981040  29.8752280  28.2938600  81.7210650  27.0417730
  27.8320130  80.9497890  27.3704900  29.1064150  81.7476720  27.5470180
  18.2698260  81.6610360  29.3352380  18.5726300  80.7708100  29.1562600
  19.0141850  82.2180580  29.1074630  16.6988950  72.5872160  22.9236750
  15.8105650  72.9288130  22.8216630  16.9830140  72.3872480  22.0317580
  14.6621960  75.1877810  28.8076450  15.2338070  74.4200010  28.8080090
  14.6623500  75.4866570  27.8983060  24.5201910  84.0068660  26.6621720
  23.9013350  84.4626160  26.0916160  25.3753690  84.1620120  26.2611420
  23.7140160  79.9907650  28.2688760  23.6448440  79.0497590  28.1077890
  24.4760020  80.0809060  28.8411330  15.9046830  70.5962170  30.5945380
  15.7249670  69.6987920  30.8748140  15.5026910  71.1434040  31.2692330
  24.7445330  72.7978030  28.4957690  25.1210150  71.9249910  28.3831360
  24.6464840  73.1336730  27.6048130  18.8750340  71.1703660  23.9575130
  18.9817090  72.0707390  24.2643890  17.9642700  71.1221630  23.6669780
  28.5269450  70.2928470  25.4286030  29.3479070  69.8025040  25.4711510
  28.5603530  70.8826130  26.1817870  16.5233500  73.0922670  29.2027720
  17.2043610  73.3561040  29.8215120  16.2081550  72.2523540  29.5365730
  20.7158070  74.1390030  28.2900310  21.2236290  74.6371000  28.9305330
  21.2471310  73.3625230  28.1139670  32.8169000  72.3095220  31.9929660
  32.1121170  72.6976930  31.4744770  33.0826920  73.0045510  32.5950590
  18.9994170  68.7788590  32.5563730  19.0012610  69.2960980  31.7509630
  18.1698480  68.3018770  32.5333660  25.3865260  78.8907900  24.0553630
  24.7682530  79.3557350  23.4916350  25.8988510  79.5835380  24.4723140
  20.2497020  78.4183770  30.7337230  19.9166400  79.0452690  31.3758300
  20.4263700  78.9445650  29.9538900  28.7630930  72.2328850  28.2013570
  28.0586500  72.5213740  28.7816680  29.1243090  73.0428960  27.8413130
  18.6809500  70.4898550  30.5634180  19.0226310  71.3340600  30.2688050
  17.7425310  70.6382290  30.6799520  19.4616120  80.3864570  32.5486410
  20.0790120  81.0615650  32.2670860  18.6009240  80.7952550  32.4573910
  14.7548460  79.5764430  21.4293260  14.3776440  80.0651530  20.6978160
  15.0121530  80.2489710  22.0599790  30.3793710  81.8503980  30.4641050
  29.6957230  82.5203090  30.4557720  30.9188000  82.0484630  29.6985910
  31.8317850  71.6783640  28.5922780  30.8842760  71.7122620  28.7238210
  32.1567840  72.4922590  28.9772140  22.3637390  67.9780820  26.8878770
  22.6712370  67.4227710  26.1714270  21.4338090  68.1125280  26.7051760
  27.9152450  83.6948110  29.1786230  27.9279610  83.2910400  28.3108490
  27.3627670  84.4695400  29.0747660  29.2097870  80.4164330  24.2676400
  29.0994200  79.4738660  24.3925820  29.2066120  80.7779970  25.1539160
  27.3137890  78.5977950  30.5068840  27.7306680  78.3838060  29.6722300
  28.0377710  78.8550740  31.0777460  24.7518150  76.0429650  23.6238890
  23.8247430  75.9767030  23.8527360  24.9042970  76.9809780  23.5094130
  24.7387230  72.3146650  20.6206050  23.7990900  72.4760610  20.7058510
  25.0570490  73.0332330  20.0742040  31.2599990  76.9965170  30.5985080
  30.4318620  77.0658260  30.1235210  31.8550470  77.5819480  30.1300910
  28.7815440  77.6049950  24.1274140  28.1627860  77.2669500  23.4800440
  28.7639890  76.9609710  24.8353330  28.2242000  73.7834490  31.5439950
  27.8113180  74.6088200  31.7979940  27.4917950  73.1979530  31.3516310
  20.3574790  76.5694390  26.4058620  19.9531790  75.8571640  25.9104520
  20.4437910  76.2247630  27.2946660  20.8256490  80.2561950  28.5697830
  20.5284780  79.6507420  27.8905610  21.7756310  80.2939260  28.4587190
  19.0703410  73.3437600  30.1857660  19.6218000  73.4532940  29.4110910
  19.5846920  73.7175200  30.9012890  28.9142100  83.8293820  32.2320930
  28.4372660  84.6366010  32.0393540  28.2303890  83.1772150  32.3847140
  19.9174920  79.9943640  35.2205630  19.0203450  80.2183610  35.4679030
  19.9427790  80.1178580  34.2717030  26.9580140  76.8436760  21.1346890
  27.3973420  76.0059190  20.9884710  27.6708560  77.4766160  21.2211030
  18.7446140  76.8656960  33.7963000  18.6053910  77.7379760  34.1650400
  17.8627500  76.5229770  33.6510940  25.0675520  81.7832830  25.1028130
  25.5071430  82.5257160  24.6883520  25.0062410  82.0259400  26.0267090
  20.5426490  82.8078660  36.0048150  20.5141920  83.2121610  35.1376580
  20.3791460  81.8789020  35.8419750  30.5397280  68.0979570  19.4487930
  30.2269940  68.1906400  20.3487000  31.3009750  68.6760600  19.3985360
  17.0579420  75.4639370  23.9065270  16.9377020  76.1901460  23.2946540
  16.7480310  74.6942280  23.4293180  32.4941310  83.5905760  37.3012320
  32.9701030  84.0688650  37.9801400  33.1148470  83.5223250  36.5757820
  14.6964790  78.6354510  29.7133910  14.7745210  78.7703280  28.7689630
  15.3106470  77.9270400  29.9062030  15.9412420  80.3354700  26.1240090
  15.5340500  80.4769290  25.2693690  16.8325430  80.0514860  25.9211300
  31.8974560  80.7818610  34.4612330  32.0237620  80.5430490  33.5429510
  31.9395940  79.9503150  34.9334410  25.7591300  84.4846610  33.0307140
  26.2735970  84.3954620  33.8329570  24.9160380  84.8306310  33.3235050
  27.7345700  84.7701950  22.4591140  27.5746840  84.4804890  23.3572970
  27.5692410  83.9942080  21.9236370  20.2134080  84.5500480  24.2362760
  20.0376560  83.6336020  24.0230560  19.3589820  84.9087770  24.4760560
  27.4371830  82.2789510  21.0189140  26.7436990  82.2766800  20.3591420
  28.1794690  81.8548830  20.5883310  27.0021760  83.9052220  25.0937630
  27.4578710  83.1241600  25.4076250  27.3414280  84.6159040  25.6378810
  31.7498570  72.8351070  35.4262070  31.1342840  73.3430740  34.8977530
  31.4294990  71.9349400  35.3688010  14.7524310  79.6768680  32.2528370
  14.9155350  79.2074040  31.4347740  15.2176760  79.1692240  32.9177210
  19.5243080  68.8074440  27.2888940  19.0811230  69.5883980  26.9573460
  20.0828070  69.1304330  27.9959880  23.8112890  71.6742960  32.8924260
  23.3492260  71.8825980  33.7044200  23.4091000  70.8602310  32.5894930
  28.8117400  72.8951910  34.0220920  27.9610990  72.5957660  34.3429990
  28.6519190  73.1393920  33.1104740  25.9067110  74.3953660  36.1219710
  26.2320520  73.5617410  35.7821940  26.6947440  74.9182180  36.2698040
  22.6401900  68.4285140  22.1694770  22.0156080  68.4245010  22.8948080
  22.5532020  67.5616100  21.7730740  21.5618980  69.3521770  29.1478540
  21.8591310  70.2584600  29.0670560  22.1104540  68.8640550  28.5338110
  19.3157300  73.9308010  25.0170190  19.0898220  73.7145180  25.9216810
  18.5349830  74.3636470  24.6716160  26.5455060  73.9371380  23.6160840
  25.9463950  74.6607180  23.4324460  27.0934670  73.8748160  22.8337290
  21.7556510  74.8293590  35.6830460  21.6600110  73.8888320  35.5330860
  22.5988490  75.0508660  35.2878530  25.1519930  72.5734920  25.6464120
  25.5449500  72.8907120  24.8332810  25.5136780  71.6946800  25.7608640
  16.8867050  71.2407260  33.8364240  16.4930440  72.0882470  34.0437020
  16.1985450  70.6033630  34.0272880  23.4612100  71.3242230  36.9060980
  22.7710420  71.1314430  37.5407070  24.2044400  71.6076870  37.4385280
  14.1884100  69.1635720  27.8694320  13.8997150  69.7338580  28.5819300
  14.9329860  68.6840170  28.2325550  14.3754330  73.1055840  19.0797040
  14.2929000  74.0486600  19.2212030  14.0237390  72.9630750  18.2009390
  25.7375070  75.1640670  29.7414900  25.0056190  75.6727480  30.0905000
  25.3399410  74.3470650  29.4403680  22.1752460  71.8394870  28.1467390
  22.1788520  71.3984820  27.2971930  23.0703580  72.1612200  28.2539210
  18.0254840  71.7221360  27.1061600  17.6854890  72.1996590  27.8628650
  17.2632160  71.2686480  26.7462700  22.2372610  72.8406950  21.1374150
  22.3585430  72.7993430  22.0859970  21.8521120  73.7031100  20.9820880
  26.2000980  70.6174350  29.1537840  26.2173720  71.0683000  29.9979690
  25.9516560  69.7179990  29.3671280  21.2494110  75.1508090  20.5357450
  20.6811010  74.7026340  19.9093360  21.9583110  75.5100870  20.0022600
  29.6271730  68.0306530  34.9924220  29.9517500  67.2996190  35.5182200
  29.6628240  67.7120170  34.0905210  16.3263290  79.0520110  34.4124180
  15.9418080  78.4113780  35.0107140  16.6375480  79.7556230  34.9818910
  22.4760430  75.8996650  29.8932800  22.8430560  75.4255220  30.6394140
  22.2865490  76.7738220  30.2341140  15.3400920  70.6440340  26.0226270
  15.0547840  70.2796010  26.8604890  15.2779780  69.9120800  25.4089410
  20.2659800  74.9405290  32.2117010  19.9616870  75.8197270  32.4367370
  21.2206260  75.0005080  32.2474450  18.7941590  79.1466280  22.8083860
  18.0203850  78.6063900  22.6482580  19.5236220  78.6272890  22.4701620
  29.5529570  78.1431640  28.6010250  30.2728690  78.6386930  28.2106360
  29.3511390  77.4649530  27.9564120  25.0139510  69.5369600  22.7439640
  24.2004120  69.0382770  22.6684950  24.8201460  70.3767850  22.3275990
  24.9348370  78.2140700  34.4879250  24.8685680  77.2936370  34.2336840
  24.3053510  78.3116140  35.2023890  27.7287900  73.9089250  21.0401800
  28.6167520  74.2206480  20.8653140  27.6992990  73.0361500  20.6482380
  18.8378990  78.8146660  26.4462670  19.3557660  78.0114920  26.3919560
  18.3863010  78.7525800  27.2879500  23.7248490  80.0812940  21.7189970
  24.0664190  80.8255170  21.2233290  22.8961200  80.3944060  22.0814800
  16.3223530  75.7808030  33.3588370  15.9638470  76.4461880  33.9461710
  16.0278090  74.9491580  33.7300990  19.5236650  76.2392270  36.2427920
  19.2236790  76.3849450  35.3455740  20.2947890  75.6797560  36.1501310
  24.8665100  81.0361270  34.2383050  24.8809640  80.1042230  34.0201960
  24.1590200  81.1221030  34.8772820  30.0002170  75.2201090  20.5081660
  29.9165890  75.6515310  19.6578100  30.7196360  75.6799440  20.9408480
  31.0776310  77.6768610  33.5851630  30.3524500  78.2697390  33.3881020
  31.6051770  77.6692150  32.7865000  31.0289420  82.0743350  23.2363790
  30.3865580  81.4198970  23.5107510  30.6420080  82.4798440  22.4604460
  26.6075900  79.4028780  27.0835480  26.9599720  78.8056910  26.4236850
  25.7238230  79.0773010  27.2543730  22.6939180  80.1626470  24.4905890
  23.3810310  80.7095680  24.8713480  21.9071600  80.7067200  24.5255500
  14.8331580  75.7799290  19.9822970  15.7026430  76.0624090  20.2658890
  14.3421900  76.5935160  19.8671780  21.9966390  77.1672500  24.1031250
  22.4529170  77.9777750  24.3291440  21.6454600  76.8495640  24.9349740
  24.2999000  82.6778840  31.3323550  24.9441220  82.8838220  32.0096970
  24.6628440  81.9167240  30.8794400  17.8978170  67.5110150  24.5753770
  17.7692800  67.5028050  25.5238690  17.0740190  67.8493240  24.2244780
  25.5731080  80.6811190  30.0501000  26.2153310  79.9804350  30.1633170
  26.0980430  81.4609630  29.8697890  29.4186800  80.9659810  19.7740140
  29.1924380  80.2490250  20.3664780  29.0283000  80.7172250  18.9361890
  27.3468700  81.4806090  33.2537060  27.6824940  82.0672780  33.9314980
  26.4269040  81.3498800  33.4834850  15.2002830  84.9926670  20.5484600
  15.5600470  85.5916010  19.8941870  15.0595170  85.5386560  21.3219630
  14.8972100  69.2701270  34.0360470  14.1830620  69.4698190  34.6413080
  15.3167140  68.4940840  34.4075270  29.0003050  78.8831750  21.4354300
  28.7124750  79.3444440  22.2232180  29.7955220  78.4229520  21.7038520
  15.1844690  83.2581530  35.0227000  15.2935810  82.3176270  34.8822390
  14.5325250  83.5236280  34.3740730  23.1757280  81.5297420  36.4225120
  22.8554150  80.8106660  36.9670810  22.5015640  82.2052490  36.4961180
  21.2171450  82.3757870  21.3658270  21.2081550  83.1087560  20.7502780
  20.2969810  82.1289450  21.4585230  16.8178090  77.5972760  22.1105030
  16.2106040  78.3371660  22.1200330  17.2927440  77.6872120  21.2843230
  26.3910880  71.7623580  31.7861920  26.7591700  70.9418790  32.1141490
  25.5309080  71.8225470  32.2017570  29.7572910  70.7180520  22.5949480
  29.1286070  70.8226190  21.8807710  29.2624830  70.9377300  23.3843360
  24.2031050  82.4386110  20.0283460  24.3043030  82.2350100  19.0985440
  23.3032790  82.1844390  20.2331240  21.7256940  72.9966470  24.0107360
  21.0173090  73.4652810  24.4520970  22.0101420  72.3388480  24.6452550
  23.3512870  74.4163170  32.0099890  23.8498120  74.8908990  32.6751740
  23.4935820  73.4926690  32.2169920  25.7572370  69.7217130  25.4503150
  25.6340150  69.7403260  24.5012660  26.7056930  69.7696070  25.5701550
  22.8449160  84.9572430  24.7231130  23.0990660  84.9193820  23.8010500
  21.8961640  84.8305760  24.7159380  19.9291960  71.3051550  21.3858070
  20.7782490  71.7421700  21.3198260  19.5623230  71.6171810  22.2130130
  30.5579730  70.6331130  32.8528280  30.0553330  71.3736530  33.1922090
  31.3736390  71.0215130  32.5365070  28.8501740  75.8764310  26.2989640
  27.9091880  75.8914540  26.4737330  29.1645810  75.0900270  26.7449940
  18.8283380  77.5583910  19.8593600  19.5946650  77.4465270  20.4219030
  18.9058070  76.8621880  19.2070370  17.5230140  74.9908980  20.5426490
  17.6033730  74.0436490  20.6543890  18.4149890  75.3215860  20.6487150
  30.8527320  83.0473160  27.9743900  30.9774740  83.8704330  28.4467710
  31.7192880  82.8363890  27.6268050  18.3244850  85.1404370  27.6461030
  19.0607330  84.5919830  27.9169600  18.7085770  86.0060380  27.5067020
  15.2090330  81.2077940  23.5202540  14.2830110  81.4499080  23.5107950
  15.6746760  82.0352200  23.3987290  17.3303130  84.3250440  36.8346610
  18.1315860  84.6462490  37.2482010  16.8154950  83.9646020  37.5566520
  21.4347160  84.3134680  19.4686600  22.2275770  84.6023510  19.0168390
  20.9151510  83.8826850  18.7899080  26.1667760  80.4330310  36.7822020
  25.5605920  80.4561910  36.0417770  25.8621870  79.7013350  37.3189270
  27.5968130  84.1610600  35.3931430  28.5489880  84.0768620  35.3431670
  27.4496350  84.8252310  36.0665220  30.4877330  83.5404810  20.8923340
  30.2018840  83.1269950  20.0777520  30.2896880  84.4692520  20.7723860
  15.0500940  76.8123900  35.7782660  15.5539960  76.2331180  36.3498890
  14.3108360  77.0964130  36.3159030  21.9524560  79.5338090  19.3328950
  21.8475200  78.9190440  20.0590330  21.7848780  79.0103980  18.5491960
  22.1038880  78.2194890  35.3118180  21.3384550  78.7879890  35.2272850
  22.2854840  77.9271100  34.4186410  25.1927290  78.5958120  19.9370940
  24.6437390  79.0427420  20.5813680  25.8146550  78.0907370  20.4608610
  29.2462230  79.9500220  35.8693200  29.9871700  80.2875980  35.3660660
  28.4834910  80.1192280  35.3162970  17.0824020  74.9553490  36.6732730
  17.1229360  74.6567360  37.5817960  17.9369520  75.3561100  36.5140250
  20.8602410  77.5549040  21.8336240  21.2818830  77.3888910  22.6767630
  20.9853250  76.7449270  21.3391380  19.0229830  73.5345590  34.6407220
  18.4926290  73.0436540  34.0130560  19.6917900  73.9629790  34.1065150
  23.3730050  76.5786650  19.0813340  23.8935710  75.8635670  18.7154490
  24.0198450  77.2172520  19.3813850  27.9207890  78.0015050  34.4048410
  28.3348910  78.1560130  35.2538830  26.9858890  78.1270270  34.5674190
  28.3930060  75.3411210  36.4087560  28.9750830  74.5863530  36.3208040
  28.5691830  75.8718650  35.6319040  19.5102130  70.5007960  34.7204510
  19.4159000  69.8828710  33.9955380  18.9299520  71.2274250  34.4934420
  22.2763570  69.0581200  31.7531900  21.8280870  69.0805460  30.9077450
  21.6428770  68.6600220  32.3502200  22.6823120  77.9535530  32.3744340
  23.1011230  78.7968260  32.2020580  21.7631750  78.0907570  32.1451120
  25.0187020  75.6851710  33.7582180  25.1383230  75.0892850  34.4977020
  25.8781020  75.7221400  33.3383480  27.3574920  76.2388900  32.3344690
  26.8310140  76.7631520  31.7309830  27.7006260  76.8716290  32.9654420
  19.7561310  73.6282270  18.7794400  19.5550370  72.7649630  19.1407740
  19.5853360  73.5415630  17.8416000  20.5330540  84.2588540  33.4902070
  19.9951630  84.9834600  33.1710770  20.7864500  83.7818880  32.6999410
  21.7855790  72.2273060  35.0158000  22.3755480  71.9188910  35.7035820
  20.9676030  71.7552810  35.1717900  26.6049220  71.8438870  35.2491020
  25.9164740  71.1820410  35.1841010  27.3255240  71.3977140  35.6939480
  27.2349620  68.4390500  21.3081280  27.5151910  67.5958400  21.6640700
  26.4615350  68.6713610  21.8220030  18.5544110  70.7282890  18.7672280
  18.8570010  70.7350320  17.8591430  19.2938700  70.3780750  19.2639940
  23.3892750  85.4939750  33.7488720  23.3151450  86.3974890  34.0561090
  22.4871590  85.1751650  33.7210790  21.7729040  69.6717510  19.7528480
  21.4251040  68.9941500  19.1730930  21.9741810  69.2107020  20.5671870
  23.9378080  84.6598260  21.3715080  24.8328870  84.9983230  21.3933840
  23.9695710  83.9377670  20.7439360  17.5774240  80.0325310  19.6002080
  18.0149110  80.5754980  20.2559660  18.0621970  79.2072260  19.6098420
  14.7920040  82.8214340  27.0522340  15.1223050  81.9535400  26.8200980
  15.2211040  83.0272860  27.8827300  19.3881960  81.1523350  24.7124310
  19.0877500  81.0288320  25.6128220  19.2819450  80.2931940  24.3040040
  15.2810250  83.6884930  29.7903970  14.8441240  83.8685730  30.6228120
  15.8487930  84.4459550  29.6485690  30.9172430  83.1901930  34.0781280
  30.3174420  83.2494490  33.3345200  31.0466330  82.2506910  34.2078130
  32.1573880  80.9319750  19.4150990  31.3266840  80.9996400  19.8858220
  32.3345710  81.8223870  19.1117850  31.6130340  77.6767230  21.9185190
  32.3749250  78.2463880  22.0244880  31.6284710  77.1094430  22.6893500
  15.1134680  76.2005160  26.1492850  14.4583520  75.9316800  25.5052550
  15.9512630  76.0909640  25.6994830  32.6190310  78.5317330  26.7627120
  32.9899140  77.7484650  26.3563090  33.2592240  79.2206430  26.5844420
  29.6024070  79.9153910  32.1757440  28.7883910  80.3451070  32.4383230
  30.0098270  80.5272320  31.5626490  31.6649510  77.9701600  19.0757710
  31.9398350  78.8780480  18.9476930  31.4760250  77.9064130  20.0119700
  28.0625120  70.9946450  20.3711340  28.4810000  70.8077430  19.5308000
  27.7561180  70.1425500  20.6814270  31.5614850  75.9070590  24.0687140
  31.1858450  75.1398520  23.6368430  30.8317970  76.2893290  24.5562070
  16.1510610  76.5857730  30.6896190  16.5183650  76.4985130  31.5692210
  15.5821430  75.8224280  30.5903050  30.9514470  75.0542110  33.7026660
  30.7200560  74.8254860  32.8024610  31.2119020  75.9741660  33.6571550
  15.7026610  73.4966820  34.5954610  14.8082660  73.4633580  34.9348320
  16.2424160  73.6953610  35.3605860  29.3902540  70.2798540  36.4806360
  30.2672720  70.2881940  36.8640360  29.4023380  69.5429380  35.8698710
  14.3272760  73.4104090  22.0918180  13.4236840  73.6734290  21.9169840
  14.8113380  73.6815260  21.3118140  30.8365810  74.1328080  27.3694380
  31.3603290  73.6390730  26.7384550  31.4225230  74.2678440  28.1141950
  31.0155530  74.2167950  30.8913930  30.0658240  74.1831490  31.0058920
  31.1968540  75.1268060  30.6563700  16.8699970  72.4669630  20.0012560
  17.5791670  72.0452850  19.5159840  16.1539910  72.5344860  19.3695910
  16.5174130  68.5208960  19.0415210  17.2402260  69.0617900  19.3596430
  16.7898650  68.2472380  18.1656750  30.3265780  73.3901430  23.3086790
  30.8224900  73.1572300  24.0935670  30.1281850  72.5513270  22.8924430
  16.2066320  67.7715150  28.9437830  16.8542510  67.2212530  28.5032990
  16.6268160  68.0258300  29.7653640  31.7552940  72.0262380  25.8424470
  31.6452220  71.8718420  26.7806740  32.5160530  71.4983320  25.5999880
  30.1018660  67.9656510  32.3007470  30.7390880  68.5790650  32.6666660
  30.2493550  68.0017170  31.3556700  32.6443210  69.8570300  19.0830610
  33.5692520  69.7251480  18.8748900  32.6219000  69.9363120  20.0367060
  32.7181700  70.6280960  21.7087320  31.9233200  70.5626080  22.2380230
  32.9224980  71.5631600  21.6972670  29.6600120  84.6672510  25.7025710
  30.2559190  84.3457080  25.0260130  29.9178270  84.1944330  26.4938980
  15.9598320  67.9270820  31.6863150  15.6113140  68.3834640  32.4521330
  15.6286020  67.0327950  31.7685580  17.5662690  81.0990420  35.8516340
  17.5232320  80.7283330  36.7330800  17.6973700  82.0367990  35.9918160
  21.2668720  82.6550010  31.4526060  21.0260080  82.9224570  30.5656580
  22.2071360  82.8255740  31.5076920  23.4723140  69.1182700  35.2082570
  23.4112030  69.7104530  35.9577980  24.4123520  69.0108660  35.0632830
  26.1097700  68.7752760  34.8474860  26.7238110  69.0932050  34.1855940
  26.6547260  68.2901350  35.4670720  32.5272880  84.6744390  32.2536700
  32.0331160  85.0713260  31.5363830  31.9186170  84.0493600  32.6473980
  16.6318960  67.4547020  34.9613920  17.1801950  67.2735070  34.1980030
  16.6974270  66.6641130  35.4970230  17.4050720  84.0452670  32.9714120
  16.8111040  83.9137370  33.7104160  17.3974560  83.2090810  32.5056220
  26.8505740  67.3384900  31.1744150  25.9765580  67.6720010  30.9717080
  26.7416490  66.8658080  31.9996020  27.7577720  69.5455770  32.5585870
  27.4291080  68.7307530  32.1787600  28.7060020  69.5025580  32.4351560
  30.2112330  85.3167810  29.5323440  29.7515300  86.0683620  29.1581460
  29.5824790  84.5974280  29.4738240  17.0362950  81.4111050  31.9222160
  16.3097010  80.7916340  31.8548110  17.0972100  81.8051660  31.0520240
  20.6408050  83.6256050  28.7071570  21.1573070  83.0143410  28.1819830
  21.2905430  84.1284830  29.1982580  23.3803550  84.5164540  29.5340550
  23.6681360  84.2618840  28.6573560  23.8926770  83.9641900  30.1246120
  24.5980560  68.2554740  30.1137060  23.8152350  68.7300240  30.3933820
  24.3043490  67.3509570  30.0050240  29.1501630  68.9577840  28.1586150
  29.5909720  68.9022940  27.3107750  28.8809220  69.8735850  28.2296330
  31.0140200  68.5893080  26.1694970  30.9528600  67.6454300  26.0225990
  31.7932230  68.6973170  26.7148430  15.3192950  84.7285440  25.1318920
  15.1514990  84.0956120  25.8300810  14.4527460  84.9344840  24.7813110
  15.9420970  68.5602220  22.6350780  16.7000330  68.6731100  22.0614810
  15.4798140  69.3971420  22.5894210  22.4834780  70.6741490  25.6253090
  21.6709290  70.2998380  25.2848970  22.9876420  69.9186570  25.9274280
  26.9859760  67.3383940  26.8636160  27.5889130  67.9104150  27.3384680
  26.2452750  67.9023380  26.6410060  30.1294360  67.7405500  22.1376440
  30.3244990  68.6388950  22.4043870  29.3424230  67.5092580  22.6309390
  16.9255650  83.4218670  22.5769060  16.4003270  83.8026700  21.8731020
  16.8500230  84.0469440  23.2978770  18.3146120  69.0866270  21.1752750
  18.8438880  68.2996070  21.0460700  18.9474440  69.7657460  21.4088280
  20.5083960  68.8241410  24.2298140  19.8786700  68.1228720  24.3968270
  19.9689100  69.5845540  24.0131300  23.4475910  85.4380640  36.9008750
  24.3743220  85.2024910  36.9444710  23.4326340  86.2652640  36.4194780
  31.6820970  84.9806210  23.8983000  31.8573160  84.2943950  23.2543920
  30.9842540  85.5053260  23.5059670  20.6339520  68.1025390  36.6650630
  20.3523790  68.6058990  35.9011450  21.0159220  67.3047140  36.2992760
  19.5248620  85.3701050  21.4518310  20.2567440  85.0860330  20.9042200
  19.7842290  85.1314330  22.3417690  18.6863410  81.4865780  21.4564640
  18.0572290  81.9550880  22.0050470  18.8011240  80.6415000  21.8910830
  27.2354980  67.5178970  37.2431100  27.1220430  67.8373580  38.1382620
  28.0524720  67.9191480  36.9468380  30.0153470  84.6650500  36.7249790
  30.8078790  84.1699730  36.5175750  30.3086620  85.3440640  37.3325400
  26.1413130  75.5371440   7.6065840  26.0607180  74.6226050   7.3357550
  25.7277550  76.0338510   6.9005550  24.2731170  77.3150460   9.4875110
  23.4973270  76.8350900   9.7773680  24.9244100  76.6356110   9.3131270
  18.2897000  77.6270270  10.3650870  17.4581880  77.3718980  10.7647380
  18.8977980  77.6981040  11.1008790  28.2938600  81.7210650   8.2674240
  27.8320130  80.9497890   8.5961410  29.1064150  81.7476720   8.7726690
  18.2698260  81.6610360  10.5608890  18.5726300  80.7708100  10.3819110
  19.0141850  82.2180580  10.3331140  16.6988950  72.5872160   4.1493260
  15.8105650  72.9288130   4.0473140  16.9830140  72.3872480   3.2574090
  14.6621960  75.1877810  10.0332960  15.2338070  74.4200010  10.0336600
  14.6623500  75.4866570   9.1239570  24.5201910  84.0068660   7.8878230
  23.9013350  84.4626160   7.3172670  25.3753690  84.1620120   7.4867930
  23.7140160  79.9907650   9.4945270  23.6448440  79.0497590   9.3334400
  24.4760020  80.0809060  10.0667840  15.9046830  70.5962170  11.8201890
  15.7249670  69.6987920  12.1004650  15.5026910  71.1434040  12.4948840
  24.7445330  72.7978030   9.7214200  25.1210150  71.9249910   9.6087870
  24.6464840  73.1336730   8.8304640  18.8750340  71.1703660   5.1831640
  18.9817090  72.0707390   5.4900400  17.9642700  71.1221630   4.8926290
  28.5269450  70.2928470   6.6542540  29.3479070  69.8025040   6.6968020
  28.5603530  70.8826130   7.4074380  16.5233500  73.0922670  10.4284230
  17.2043610  73.3561040  11.0471630  16.2081550  72.2523540  10.7622240
  20.7158070  74.1390030   9.5156820  21.2236290  74.6371000  10.1561840
  21.2471310  73.3625230   9.3396180  32.8169000  72.3095220  13.2186170
  32.1121170  72.6976930  12.7001280  33.0826920  73.0045510  13.8207100
  18.9994170  68.7788590  13.7820240  19.0012610  69.2960980  12.9766140
  18.1698480  68.3018770  13.7590170  25.3865260  78.8907900   5.2810140
  24.7682530  79.3557350   4.7172860  25.8988510  79.5835380   5.6979650
  20.2497020  78.4183770  11.9593740  19.9166400  79.0452690  12.6014810
  20.4263700  78.9445650  11.1795410  28.7630930  72.2328850   9.4270080
  28.0586500  72.5213740  10.0073190  29.1243090  73.0428960   9.0669640
  18.6809500  70.4898550  11.7890690  19.0226310  71.3340600  11.4944560
  17.7425310  70.6382290  11.9056030  19.4616120  80.3864570  13.7742920
  20.0790120  81.0615650  13.4927370  18.6009240  80.7952550  13.6830420
  14.7548460  79.5764430   2.6549770  14.3776440  80.0651530   1.9234670
  15.0121530  80.2489710   3.2856300  30.3793710  81.8503980  11.6897560
  29.6957230  82.5203090  11.6814230  30.9188000  82.0484630  10.9242420
  31.8317850  71.6783640   9.8179290  30.8842760  71.7122620   9.9494720
  32.1567840  72.4922590  10.2028650  22.3637390  67.9780820   8.1135280
  22.6712370  67.4227710   7.3970780  21.4338090  68.1125280   7.9308270
  27.9152450  83.6948110  10.4042740  27.9279610  83.2910400   9.5365000
  27.3627670  84.4695400  10.3004170  29.2097870  80.4164330   5.4932910
  29.0994200  79.4738660   5.6182330  29.2066120  80.7779970   6.3795670
  27.3137890  78.5977950  11.7325350  27.7306680  78.3838060  10.8978810
  28.0377710  78.8550740  12.3033970  24.7518150  76.0429650   4.8495400
  23.8247430  75.9767030   5.0783870  24.9042970  76.9809780   4.7350640
  24.7387230  72.3146650   1.8462560  23.7990900  72.4760610   1.9315020
  25.0570490  73.0332330   1.2998550  31.2599990  76.9965170  11.8241590
  30.4318620  77.0658260  11.3491720  31.8550470  77.5819480  11.3557420
  28.7815440  77.6049950   5.3530650  28.1627860  77.2669500   4.7056950
  28.7639890  76.9609710   6.0609840  28.2242000  73.7834490  12.7696460
  27.8113180  74.6088200  13.0236450  27.4917950  73.1979530  12.5772820
  20.3574790  76.5694390   7.6315130  19.9531790  75.8571640   7.1361030
  20.4437910  76.2247630   8.5203170  20.8256490  80.2561950   9.7954340
  20.5284780  79.6507420   9.1162120  21.7756310  80.2939260   9.6843700
  19.0703410  73.3437600  11.4114170  19.6218000  73.4532940  10.6367420
  19.5846920  73.7175200  12.1269400  28.9142100  83.8293820  13.4577440
  28.4372660  84.6366010  13.2650050  28.2303890  83.1772150  13.6103650
  19.9174920  79.9943640  16.4462140  19.0203450  80.2183610  16.6935540
  19.9427790  80.1178580  15.4973540  26.9580140  76.8436760   2.3603400
  27.3973420  76.0059190   2.2141220  27.6708560  77.4766160   2.4467540
  18.7446140  76.8656960  15.0219510  18.6053910  77.7379760  15.3906910
  17.8627500  76.5229770  14.8767450  25.0675520  81.7832830   6.3284640
  25.5071430  82.5257160   5.9140030  25.0062410  82.0259400   7.2523600
  20.5426490  82.8078660  17.2304660  20.5141920  83.2121610  16.3633090
  20.3791460  81.8789020  17.0676260  17.0579420  75.4639370   5.1321780
  16.9377020  76.1901460   4.5203050  16.7480310  74.6942280   4.6549690
  32.4941310  83.5905760  18.5268830  32.9701030  84.0688650  19.2057910
  33.1148470  83.5223250  17.8014330  14.6964790  78.6354510  10.9390420
  14.7745210  78.7703280   9.9946140  15.3106470  77.9270400  11.1318540
  15.9412420  80.3354700   7.3496600  15.5340500  80.4769290   6.4950200
  16.8325430  80.0514860   7.1467810  31.8974560  80.7818610  15.6868840
  32.0237620  80.5430490  14.7686020  31.9395940  79.9503150  16.1590920
  25.7591300  84.4846610  14.2563650  26.2735970  84.3954620  15.0586080
  24.9160380  84.8306310  14.5491560  27.7345700  84.7701950   3.6847650
  27.5746840  84.4804890   4.5829480  27.5692410  83.9942080   3.1492880
  20.2134080  84.5500480   5.4619270  20.0376560  83.6336020   5.2487070
  19.3589820  84.9087770   5.7017070  27.4371830  82.2789510   2.2445650
  26.7436990  82.2766800   1.5847930  28.1794690  81.8548830   1.8139820
  27.0021760  83.9052220   6.3194140  27.4578710  83.1241600   6.6332760
  27.3414280  84.6159040   6.8635320  31.7498570  72.8351070  16.6518580
  31.1342840  73.3430740  16.1234040  31.4294990  71.9349400  16.5944520
  14.7524310  79.6768680  13.4784880  14.9155350  79.2074040  12.6604250
  15.2176760  79.1692240  14.1433720  19.5243080  68.8074440   8.5145450
  19.0811230  69.5883980   8.1829970  20.0828070  69.1304330   9.2216390
  23.8112890  71.6742960  14.1180770  23.3492260  71.8825980  14.9300710
  23.4091000  70.8602310  13.8151440  28.8117400  72.8951910  15.2477430
  27.9610990  72.5957660  15.5686500  28.6519190  73.1393920  14.3361250
  25.9067110  74.3953660  17.3476220  26.2320520  73.5617410  17.0078450
  26.6947440  74.9182180  17.4954550  22.6401900  68.4285140   3.3951280
  22.0156080  68.4245010   4.1204590  22.5532020  67.5616100   2.9987250
  21.5618980  69.3521770  10.3735050  21.8591310  70.2584600  10.2927070
  22.1104540  68.8640550   9.7594620  19.3157300  73.9308010   6.2426700
  19.0898220  73.7145180   7.1473320  18.5349830  74.3636470   5.8972670
  26.5455060  73.9371380   4.8417350  25.9463950  74.6607180   4.6580970
  27.0934670  73.8748160   4.0593800  21.7556510  74.8293590  16.9086970
  21.6600110  73.8888320  16.7587370  22.5988490  75.0508660  16.5135040
  25.1519930  72.5734920   6.8720630  25.5449500  72.8907120   6.0589320
  25.5136780  71.6946800   6.9865150  16.8867050  71.2407260  15.0620750
  16.4930440  72.0882470  15.2693530  16.1985450  70.6033630  15.2529390
  23.4612100  71.3242230  18.1317490  22.7710420  71.1314430  18.7663580
  24.2044400  71.6076870  18.6641790  14.1884100  69.1635720   9.0950830
  13.8997150  69.7338580   9.8075810  14.9329860  68.6840170   9.4582060
  25.7375070  75.1640670  10.9671410  25.0056190  75.6727480  11.3161510
  25.3399410  74.3470650  10.6660190  22.1752460  71.8394870   9.3723900
  22.1788520  71.3984820   8.5228440  23.0703580  72.1612200   9.4795720
  18.0254840  71.7221360   8.3318110  17.6854890  72.1996590   9.0885160
  17.2632160  71.2686480   7.9719210  22.2372610  72.8406950   2.3630660
  22.3585430  72.7993430   3.3116480  21.8521120  73.7031100   2.2077390
  26.2000980  70.6174350  10.3794350  26.2173720  71.0683000  11.2236200
  25.9516560  69.7179990  10.5927790  29.6271730  68.0306530  16.2180730
  29.9517500  67.2996190  16.7438710  29.6628240  67.7120170  15.3161720
  16.3263290  79.0520110  15.6380690  15.9418080  78.4113780  16.2363650
  16.6375480  79.7556230  16.2075420  22.4760430  75.8996650  11.1189310
  22.8430560  75.4255220  11.8650650  22.2865490  76.7738220  11.4597650
  15.3400920  70.6440340   7.2482780  15.0547840  70.2796010   8.0861400
  15.2779780  69.9120800   6.6345920  20.2659800  74.9405290  13.4373520
  19.9616870  75.8197270  13.6623880  21.2206260  75.0005080  13.4730960
  18.7941590  79.1466280   4.0340370  18.0203850  78.6063900   3.8739090
  19.5236220  78.6272890   3.6958130  29.5529570  78.1431640   9.8266760
  30.2728690  78.6386930   9.4362870  29.3511390  77.4649530   9.1820630
  25.0139510  69.5369600   3.9696150  24.2004120  69.0382770   3.8941460
  24.8201460  70.3767850   3.5532500  24.9348370  78.2140700  15.7135760
  24.8685680  77.2936370  15.4593350  24.3053510  78.3116140  16.4280400
  27.7287900  73.9089250   2.2658310  28.6167520  74.2206480   2.0909650
  27.6992990  73.0361500   1.8738890  18.8378990  78.8146660   7.6719180
  19.3557660  78.0114920   7.6176070  18.3863010  78.7525800   8.5136010
  23.7248490  80.0812940   2.9446480  24.0664190  80.8255170   2.4489800
  22.8961200  80.3944060   3.3071310  16.3223530  75.7808030  14.5844880
  15.9638470  76.4461880  15.1718220  16.0278090  74.9491580  14.9557500
  19.5236650  76.2392270  17.4684430  19.2236790  76.3849450  16.5712250
  20.2947890  75.6797560  17.3757820  24.8665100  81.0361270  15.4639560
  24.8809640  80.1042230  15.2458470  24.1590200  81.1221030  16.1029330
  31.0776310  77.6768610  14.8108140  30.3524500  78.2697390  14.6137530
  31.6051770  77.6692150  14.0121510  31.0289420  82.0743350   4.4620300
  30.3865580  81.4198970   4.7364020  30.6420080  82.4798440   3.6860970
  26.6075900  79.4028780   8.3091990  26.9599720  78.8056910   7.6493360
  25.7238230  79.0773010   8.4800240  22.6939180  80.1626470   5.7162400
  23.3810310  80.7095680   6.0969990  21.9071600  80.7067200   5.7512010
  21.9966390  77.1672500   5.3287760  22.4529170  77.9777750   5.5547950
  21.6454600  76.8495640   6.1606250  24.2999000  82.6778840  12.5580060
  24.9441220  82.8838220  13.2353480  24.6628440  81.9167240  12.1050910
  17.8978170  67.5110150   5.8010280  17.7692800  67.5028050   6.7495200
  17.0740190  67.8493240   5.4501290  25.5731080  80.6811190  11.2757510
  26.2153310  79.9804350  11.3889680  26.0980430  81.4609630  11.0954400
  27.3468700  81.4806090  14.4793570  27.6824940  82.0672780  15.1571490
  26.4269040  81.3498800  14.7091360  14.8972100  69.2701270  15.2616980
  14.1830620  69.4698190  15.8669590  15.3167140  68.4940840  15.6331780
  29.0003050  78.8831750   2.6610810  28.7124750  79.3444440   3.4488690
  29.7955220  78.4229520   2.9295030  15.1844690  83.2581530  16.2483510
  15.2935810  82.3176270  16.1078900  14.5325250  83.5236280  15.5997240
  23.1757280  81.5297420  17.6481630  22.8554150  80.8106660  18.1927320
  22.5015640  82.2052490  17.7217690  21.2171450  82.3757870   2.5914780
  21.2081550  83.1087560   1.9759290  20.2969810  82.1289450   2.6841740
  16.8178090  77.5972760   3.3361540  16.2106040  78.3371660   3.3456840
  17.2927440  77.6872120   2.5099740  26.3910880  71.7623580  13.0118430
  26.7591700  70.9418790  13.3398000  25.5309080  71.8225470  13.4274080
  29.7572910  70.7180520   3.8205990  29.1286070  70.8226190   3.1064220
  29.2624830  70.9377300   4.6099870  21.7256940  72.9966470   5.2363870
  21.0173090  73.4652810   5.6777480  22.0101420  72.3388480   5.8709060
  23.3512870  74.4163170  13.2356400  23.8498120  74.8908990  13.9008250
  23.4935820  73.4926690  13.4426430  25.7572370  69.7217130   6.6759660
  25.6340150  69.7403260   5.7269170  26.7056930  69.7696070   6.7958060
  22.8449160  84.9572430   5.9487640  23.0990660  84.9193820   5.0267010
  21.8961640  84.8305760   5.9415890  19.9291960  71.3051550   2.6114580
  20.7782490  71.7421700   2.5454770  19.5623230  71.6171810   3.4386640
  30.5579730  70.6331130  14.0784790  30.0553330  71.3736530  14.4178600
  31.3736390  71.0215130  13.7621580  28.8501740  75.8764310   7.5246150
  27.9091880  75.8914540   7.6993840  29.1645810  75.0900270   7.9706450
  17.5230140  74.9908980   1.7683000  17.6033730  74.0436490   1.8800400
  18.4149890  75.3215860   1.8743660  30.8527320  83.0473160   9.2000410
  30.9774740  83.8704330   9.6724220  31.7192880  82.8363890   8.8524560
  18.3244850  85.1404370   8.8717540  19.0607330  84.5919830   9.1426110
  18.7085770  86.0060380   8.7323530  15.2090330  81.2077940   4.7459050
  14.2830110  81.4499080   4.7364460  15.6746760  82.0352200   4.6243800
  17.3303130  84.3250440  18.0603120  18.1315860  84.6462490  18.4738520
  16.8154950  83.9646020  18.7823030  26.1667760  80.4330310  18.0078530
  25.5605920  80.4561910  17.2674280  25.8621870  79.7013350  18.5445780
  27.5968130  84.1610600  16.6187940  28.5489880  84.0768620  16.5688180
  27.4496350  84.8252310  17.2921730  30.4877330  83.5404810   2.1179850
  30.2018840  83.1269950   1.3034030  30.2896880  84.4692520   1.9980370
  15.0500940  76.8123900  17.0039170  15.5539960  76.2331180  17.5755400
  14.3108360  77.0964130  17.5415540  22.1038880  78.2194890  16.5374690
  21.3384550  78.7879890  16.4529360  22.2854840  77.9271100  15.6442920
  29.2462230  79.9500220  17.0949710  29.9871700  80.2875980  16.5917170
  28.4834910  80.1192280  16.5419480  17.0824020  74.9553490  17.8989240
  17.1229360  74.6567360  18.8074470  17.9369520  75.3561100  17.7396760
  20.8602410  77.5549040   3.0592750  21.2818830  77.3888910   3.9024140
  20.9853250  76.7449270   2.5647890  19.0229830  73.5345590  15.8663730
  18.4926290  73.0436540  15.2387070  19.6917900  73.9629790  15.3321660
  27.9207890  78.0015050  15.6304920  28.3348910  78.1560130  16.4795340
  26.9858890  78.1270270  15.7930700  28.3930060  75.3411210  17.6344070
  28.9750830  74.5863530  17.5464550  28.5691830  75.8718650  16.8575550
  19.5102130  70.5007960  15.9461020  19.4159000  69.8828710  15.2211890
  18.9299520  71.2274250  15.7190930  22.2763570  69.0581200  12.9788410
  21.8280870  69.0805460  12.1333960  21.6428770  68.6600220  13.5758710
  22.6823120  77.9535530  13.6000850  23.1011230  78.7968260  13.4277090
  21.7631750  78.0907570  13.3707630  25.0187020  75.6851710  14.9838690
  25.1383230  75.0892850  15.7233530  25.8781020  75.7221400  14.5639990
  27.3574920  76.2388900  13.5601200  26.8310140  76.7631520  12.9566340
  27.7006260  76.8716290  14.1910930  20.5330540  84.2588540  14.7158580
  19.9951630  84.9834600  14.3967280  20.7864500  83.7818880  13.9255920
  21.7855790  72.2273060  16.2414510  22.3755480  71.9188910  16.9292330
  20.9676030  71.7552810  16.3974410  26.6049220  71.8438870  16.4747530
  25.9164740  71.1820410  16.4097520  27.3255240  71.3977140  16.9195990
  27.2349620  68.4390500   2.5337790  27.5151910  67.5958400   2.8897210
  26.4615350  68.6713610   3.0476540  23.3892750  85.4939750  14.9745230
  23.3151450  86.3974890  15.2817600  22.4871590  85.1751650  14.9467300
  23.9378080  84.6598260   2.5971590  24.8328870  84.9983230   2.6190350
  23.9695710  83.9377670   1.9695870  14.7920040  82.8214340   8.2778850
  15.1223050  81.9535400   8.0457490  15.2211040  83.0272860   9.1083810
  19.3881960  81.1523350   5.9380820  19.0877500  81.0288320   6.8384730
  19.2819450  80.2931940   5.5296550  15.2810250  83.6884930  11.0160480
  14.8441240  83.8685730  11.8484630  15.8487930  84.4459550  10.8742200
  30.9172430  83.1901930  15.3037790  30.3174420  83.2494490  14.5601710
  31.0466330  82.2506910  15.4334640  31.6130340  77.6767230   3.1441700
  32.3749250  78.2463880   3.2501390  31.6284710  77.1094430   3.9150010
  15.1134680  76.2005160   7.3749360  14.4583520  75.9316800   6.7309060
  15.9512630  76.0909640   6.9251340  32.6190310  78.5317330   7.9883630
  32.9899140  77.7484650   7.5819600  33.2592240  79.2206430   7.8100930
  29.6024070  79.9153910  13.4013950  28.7883910  80.3451070  13.6639740
  30.0098270  80.5272320  12.7883000  31.5614850  75.9070590   5.2943650
  31.1858450  75.1398520   4.8624940  30.8317970  76.2893290   5.7818580
  16.1510610  76.5857730  11.9152700  16.5183650  76.4985130  12.7948720
  15.5821430  75.8224280  11.8159560  30.9514470  75.0542110  14.9283170
  30.7200560  74.8254860  14.0281120  31.2119020  75.9741660  14.8828060
  15.7026610  73.4966820  15.8211120  14.8082660  73.4633580  16.1604830
  16.2424160  73.6953610  16.5862370  29.3902540  70.2798540  17.7062870
  30.2672720  70.2881940  18.0896870  29.4023380  69.5429380  17.0955220
  14.3272760  73.4104090   3.3174690  13.4236840  73.6734290   3.1426350
  14.8113380  73.6815260   2.5374650  30.8365810  74.1328080   8.5950890
  31.3603290  73.6390730   7.9641060  31.4225230  74.2678440   9.3398460
  31.0155530  74.2167950  12.1170440  30.0658240  74.1831490  12.2315430
  31.1968540  75.1268060  11.8820210  30.3265780  73.3901430   4.5343300
  30.8224900  73.1572300   5.3192180  30.1281850  72.5513270   4.1180940
  16.2066320  67.7715150  10.1694340  16.8542510  67.2212530   9.7289500
  16.6268160  68.0258300  10.9910150  31.7552940  72.0262380   7.0680980
  31.6452220  71.8718420   8.0063250  32.5160530  71.4983320   6.8256390
  30.1018660  67.9656510  13.5263980  30.7390880  68.5790650  13.8923170
  30.2493550  68.0017170  12.5813210  32.7181700  70.6280960   2.9343830
  31.9233200  70.5626080   3.4636740  32.9224980  71.5631600   2.9229180
  29.6600120  84.6672510   6.9282220  30.2559190  84.3457080   6.2516640
  29.9178270  84.1944330   7.7195490  15.9598320  67.9270820  12.9119660
  15.6113140  68.3834640  13.6777840  15.6286020  67.0327950  12.9942090
  17.5662690  81.0990420  17.0772850  17.5232320  80.7283330  17.9587310
  17.6973700  82.0367990  17.2174670  21.2668720  82.6550010  12.6782570
  21.0260080  82.9224570  11.7913090  22.2071360  82.8255740  12.7333430
  23.4723140  69.1182700  16.4339080  23.4112030  69.7104530  17.1834490
  24.4123520  69.0108660  16.2889340  26.1097700  68.7752760  16.0731370
  26.7238110  69.0932050  15.4112450  26.6547260  68.2901350  16.6927230
  32.5272880  84.6744390  13.4793210  32.0331160  85.0713260  12.7620340
  31.9186170  84.0493600  13.8730490  16.6318960  67.4547020  16.1870430
  17.1801950  67.2735070  15.4236540  16.6974270  66.6641130  16.7226740
  17.4050720  84.0452670  14.1970630  16.8111040  83.9137370  14.9360670
  17.3974560  83.2090810  13.7312730  26.8505740  67.3384900  12.4000660
  25.9765580  67.6720010  12.1973590  26.7416490  66.8658080  13.2252530
  27.7577720  69.5455770  13.7842380  27.4291080  68.7307530  13.4044110
  28.7060020  69.5025580  13.6608070  30.2112330  85.3167810  10.7579950
  29.7515300  86.0683620  10.3837970  29.5824790  84.5974280  10.6994750
  17.0362950  81.4111050  13.1478670  16.3097010  80.7916340  13.0804620
  17.0972100  81.8051660  12.2776750  20.6408050  83.6256050   9.9328080
  21.1573070  83.0143410   9.4076340  21.2905430  84.1284830  10.4239090
  23.3803550  84.5164540  10.7597060  23.6681360  84.2618840   9.8830070
  23.8926770  83.9641900  11.3502630  24.5980560  68.2554740  11.3393570
  23.8152350  68.7300240  11.6190330  24.3043490  67.3509570  11.2306750
  29.1501630  68.9577840   9.3842660  29.5909720  68.9022940   8.5364260
  28.8809220  69.8735850   9.4552840  31.0140200  68.5893080   7.3951480
  30.9528600  67.6454300   7.2482500  31.7932230  68.6973170   7.9404940
  15.3192950  84.7285440   6.3575430  15.1514990  84.0956120   7.0557320
  14.4527460  84.9344840   6.0069620  15.9420970  68.5602220   3.8607290
  16.7000330  68.6731100   3.2871320  15.4798140  69.3971420   3.8150720
  22.4834780  70.6741490   6.8509600  21.6709290  70.2998380   6.5105480
  22.9876420  69.9186570   7.1530790  26.9859760  67.3383940   8.0892670
  27.5889130  67.9104150   8.5641190  26.2452750  67.9023380   7.8666570
  30.1294360  67.7405500   3.3632950  30.3244990  68.6388950   3.6300380
  29.3424230  67.5092580   3.8565900  16.9255650  83.4218670   3.8025570
  16.4003270  83.8026700   3.0987530  16.8500230  84.0469440   4.5235280
  18.3146120  69.0866270   2.4009260  18.8438880  68.2996070   2.2717210
  18.9474440  69.7657460   2.6344790  20.5083960  68.8241410   5.4554650
  19.8786700  68.1228720   5.6224780  19.9689100  69.5845540   5.2387810
  23.4475910  85.4380640  18.1265260  24.3743220  85.2024910  18.1701220
  23.4326340  86.2652640  17.6451290  31.6820970  84.9806210   5.1239510
  31.8573160  84.2943950   4.4800430  30.9842540  85.5053260   4.7316180
  20.6339520  68.1025390  17.8907140  20.3523790  68.6058990  17.1267960
  21.0159220  67.3047140  17.5249270  19.5248620  85.3701050   2.6774820
  20.2567440  85.0860330   2.1298710  19.7842290  85.1314330   3.5674200
  18.6863410  81.4865780   2.6821150  18.0572290  81.9550880   3.2306980
  18.8011240  80.6415000   3.1167340  27.2354980  67.5178970  18.4687610
  27.1220430  67.8373580  19.3639130  28.0524720  67.9191480  18.1724890
  30.0153470  84.6650500  17.9506300  30.8078790  84.1699730  17.7432260
  30.3086620  85.3440640  18.5581910  26.1413130  56.7627950 101.4783290
  26.0607180  55.8482560 101.2075000  25.7277550  57.2595020 100.7723000
  24.2731170  58.5406970 103.3592560  23.4973270  58.0607410 103.6491130
  24.9244100  57.8612620 103.1848720  18.2897000  58.8526780 104.2368320
  17.4581880  58.5975490 104.6364830  18.8977980  58.9237550 104.9726240
  28.2938600  62.9467160 102.1391690  27.8320130  62.1754400 102.4678860
  29.1064150  62.9733230 102.6444140  18.2698260  62.8866870 104.4326340
  18.5726300  61.9964610 104.2536560  19.0141850  63.4437090 104.2048590
  16.6988950  53.8128670  98.0210710  15.8105650  54.1544640  97.9190590
  16.9830140  53.6128990  97.1291540  14.6621960  56.4134320 103.9050410
  15.2338070  55.6456520 103.9054050  14.6623500  56.7123080 102.9957020
  24.5201910  65.2325170 101.7595680  23.9013350  65.6882670 101.1890120
  25.3753690  65.3876630 101.3585380  23.7140160  61.2164160 103.3662720
  23.6448440  60.2754100 103.2051850  24.4760020  61.3065570 103.9385290
  15.9046830  51.8218680 105.6919340  15.7249670  50.9244430 105.9722100
  15.5026910  52.3690550 106.3666290  24.7445330  54.0234540 103.5931650
  25.1210150  53.1506420 103.4805320  24.6464840  54.3593240 102.7022090
  18.8750340  52.3960170  99.0549090  18.9817090  53.2963900  99.3617850
  17.9642700  52.3478140  98.7643740  28.5269450  51.5184980 100.5259990
  29.3479070  51.0281550 100.5685470  28.5603530  52.1082640 101.2791830
  16.5233500  54.3179180 104.3001680  17.2043610  54.5817550 104.9189080
  16.2081550  53.4780050 104.6339690  20.7158070  55.3646540 103.3874270
  21.2236290  55.8627510 104.0279290  21.2471310  54.5881740 103.2113630
  32.8169000  53.5351730 107.0903620  32.1121170  53.9233440 106.5718730
  33.0826920  54.2302020 107.6924550  18.9994170  50.0045100 107.6537690
  19.0012610  50.5217490 106.8483590  18.1698480  49.5275280 107.6307620
  25.3865260  60.1164410  99.1527590  24.7682530  60.5813860  98.5890310
  25.8988510  60.8091890  99.5697100  20.2497020  59.6440280 105.8311190
  19.9166400  60.2709200 106.4732260  20.4263700  60.1702160 105.0512860
  28.7630930  53.4585360 103.2987530  28.0586500  53.7470250 103.8790640
  29.1243090  54.2685470 102.9387090  18.6809500  51.7155060 105.6608140
  19.0226310  52.5597110 105.3662010  17.7425310  51.8638800 105.7773480
  19.4616120  61.6121080 107.6460370  20.0790120  62.2872160 107.3644820
  18.6009240  62.0209060 107.5547870  14.7548460  60.8020940  96.5267220
  14.3776440  61.2908040  95.7952120  15.0121530  61.4746220  97.1573750
  30.3793710  63.0760490 105.5615010  29.6957230  63.7459600 105.5531680
  30.9188000  63.2741140 104.7959870  31.8317850  52.9040150 103.6896740
  30.8842760  52.9379130 103.8212170  32.1567840  53.7179100 104.0746100
  22.3637390  49.2037330 101.9852730  22.6712370  48.6484220 101.2688230
  21.4338090  49.3381790 101.8025720  27.9152450  64.9204620 104.2760190
  27.9279610  64.5166910 103.4082450  27.3627670  65.6951910 104.1721620
  29.2097870  61.6420840  99.3650360  29.0994200  60.6995170  99.4899780
  29.2066120  62.0036480 100.2513120  27.3137890  59.8234460 105.6042800
  27.7306680  59.6094570 104.7696260  28.0377710  60.0807250 106.1751420
  24.7518150  57.2686160  98.7212850  23.8247430  57.2023540  98.9501320
  24.9042970  58.2066290  98.6068090  24.7387230  53.5403160  95.7180010
  23.7990900  53.7017120  95.8032470  25.0570490  54.2588840  95.1716000
  31.2599990  58.2221680 105.6959040  30.4318620  58.2914770 105.2209170
  31.8550470  58.8075990 105.2274870  28.7815440  58.8306460  99.2248100
  28.1627860  58.4926010  98.5774400  28.7639890  58.1866220  99.9327290
  28.2242000  55.0091000 106.6413910  27.8113180  55.8344710 106.8953900
  27.4917950  54.4236040 106.4490270  20.3574790  57.7950900 101.5032580
  19.9531790  57.0828150 101.0078480  20.4437910  57.4504140 102.3920620
  20.8256490  61.4818460 103.6671790  20.5284780  60.8763930 102.9879570
  21.7756310  61.5195770 103.5561150  19.0703410  54.5694110 105.2831620
  19.6218000  54.6789450 104.5084870  19.5846920  54.9431710 105.9986850
  28.9142100  65.0550330 107.3294890  28.4372660  65.8622520 107.1367500
  28.2303890  64.4028660 107.4821100  19.9174920  61.2200150 110.3179590
  19.0203450  61.4440120 110.5652990  19.9427790  61.3435090 109.3690990
  26.9580140  58.0693270  96.2320850  27.3973420  57.2315700  96.0858670
  27.6708560  58.7022670  96.3184990  18.7446140  58.0913470 108.8936960
  18.6053910  58.9636270 109.2624360  17.8627500  57.7486280 108.7484900
  25.0675520  63.0089340 100.2002090  25.5071430  63.7513670  99.7857480
  25.0062410  63.2515910 101.1241050  30.5397280  49.3236080  94.5461890
  30.2269940  49.4162910  95.4460960  31.3009750  49.9017110  94.4959320
  17.0579420  56.6895880  99.0039230  16.9377020  57.4157970  98.3920500
  16.7480310  55.9198790  98.5267140  14.6964790  59.8611020 104.8107870
  14.7745210  59.9959790 103.8663590  15.3106470  59.1526910 105.0035990
  15.9412420  61.5611210 101.2214050  15.5340500  61.7025800 100.3667650
  16.8325430  61.2771370 101.0185260  31.8974560  62.0075120 109.5586290
  32.0237620  61.7687000 108.6403470  31.9395940  61.1759660 110.0308370
  25.7591300  65.7103120 108.1281100  26.2735970  65.6211130 108.9303530
  24.9160380  66.0562820 108.4209010  27.7345700  65.9958460  97.5565100
  27.5746840  65.7061400  98.4546930  27.5692410  65.2198590  97.0210330
  20.2134080  65.7756990  99.3336720  20.0376560  64.8592530  99.1204520
  19.3589820  66.1344280  99.5734520  27.4371830  63.5046020  96.1163100
  26.7436990  63.5023310  95.4565380  28.1794690  63.0805340  95.6857270
  27.0021760  65.1308730 100.1911590  27.4578710  64.3498110 100.5050210
  27.3414280  65.8415550 100.7352770  31.7498570  54.0607580 110.5236030
  31.1342840  54.5687250 109.9951490  31.4294990  53.1605910 110.4661970
  14.7524310  60.9025190 107.3502330  14.9155350  60.4330550 106.5321700
  15.2176760  60.3948750 108.0151170  19.5243080  50.0330950 102.3862900
  19.0811230  50.8140490 102.0547420  20.0828070  50.3560840 103.0933840
  23.8112890  52.8999470 107.9898220  23.3492260  53.1082490 108.8018160
  23.4091000  52.0858820 107.6868890  28.8117400  54.1208420 109.1194880
  27.9610990  53.8214170 109.4403950  28.6519190  54.3650430 108.2078700
  22.6401900  49.6541650  97.2668730  22.0156080  49.6501520  97.9922040
  22.5532020  48.7872610  96.8704700  21.5618980  50.5778280 104.2452500
  21.8591310  51.4841110 104.1644520  22.1104540  50.0897060 103.6312070
  19.3157300  55.1564520 100.1144150  19.0898220  54.9401690 101.0190770
  18.5349830  55.5892980  99.7690120  26.5455060  55.1627890  98.7134800
  25.9463950  55.8863690  98.5298420  27.0934670  55.1004670  97.9311250
  21.7556510  56.0550100 110.7804420  21.6600110  55.1144830 110.6304820
  22.5988490  56.2765170 110.3852490  25.1519930  53.7991430 100.7438080
  25.5449500  54.1163630  99.9306770  25.5136780  52.9203310 100.8582600
  16.8867050  52.4663770 108.9338200  16.4930440  53.3138980 109.1410980
  16.1985450  51.8290140 109.1246840  14.1884100  50.3892230 102.9668280
  13.8997150  50.9595090 103.6793260  14.9329860  49.9096680 103.3299510
  14.3754330  54.3312350  94.1771000  14.2929000  55.2743110  94.3185990
  14.0237390  54.1887260  93.2983350  25.7375070  56.3897180 104.8388860
  25.0056190  56.8983990 105.1878960  25.3399410  55.5727160 104.5377640
  22.1752460  53.0651380 103.2441350  22.1788520  52.6241330 102.3945890
  23.0703580  53.3868710 103.3513170  18.0254840  52.9477870 102.2035560
  17.6854890  53.4253100 102.9602610  17.2632160  52.4942990 101.8436660
  22.2372610  54.0663460  96.2348110  22.3585430  54.0249940  97.1833930
  21.8521120  54.9287610  96.0794840  26.2000980  51.8430860 104.2511800
  26.2173720  52.2939510 105.0953650  25.9516560  50.9436500 104.4645240
  21.2494110  56.3764600  95.6331410  20.6811010  55.9282850  95.0067320
  21.9583110  56.7357380  95.0996560  29.6271730  49.2563040 110.0898180
  29.9517500  48.5252700 110.6156160  29.6628240  48.9376680 109.1879170
  16.3263290  60.2776620 109.5098140  15.9418080  59.6370290 110.1081100
  16.6375480  60.9812740 110.0792870  22.4760430  57.1253160 104.9906760
  22.8430560  56.6511730 105.7368100  22.2865490  57.9994730 105.3315100
  15.3400920  51.8696850 101.1200230  15.0547840  51.5052520 101.9578850
  15.2779780  51.1377310 100.5063370  20.2659800  56.1661800 107.3090970
  19.9616870  57.0453780 107.5341330  21.2206260  56.2261590 107.3448410
  18.7941590  60.3722790  97.9057820  18.0203850  59.8320410  97.7456540
  19.5236220  59.8529400  97.5675580  29.5529570  59.3688150 103.6984210
  30.2728690  59.8643440 103.3080320  29.3511390  58.6906040 103.0538080
  25.0139510  50.7626110  97.8413600  24.2004120  50.2639280  97.7658910
  24.8201460  51.6024360  97.4249950  24.9348370  59.4397210 109.5853210
  24.8685680  58.5192880 109.3310800  24.3053510  59.5372650 110.2997850
  27.7287900  55.1345760  96.1375760  28.6167520  55.4462990  95.9627100
  27.6992990  54.2618010  95.7456340  18.8378990  60.0403170 101.5436630
  19.3557660  59.2371430 101.4893520  18.3863010  59.9782310 102.3853460
  23.7248490  61.3069450  96.8163930  24.0664190  62.0511680  96.3207250
  22.8961200  61.6200570  97.1788760  16.3223530  57.0064540 108.4562330
  15.9638470  57.6718390 109.0435670  16.0278090  56.1748090 108.8274950
  24.8665100  62.2617780 109.3357010  24.8809640  61.3298740 109.1175920
  24.1590200  62.3477540 109.9746780  30.0002170  56.4457600  95.6055620
  29.9165890  56.8771820  94.7552060  30.7196360  56.9055950  96.0382440
  31.0776310  58.9025120 108.6825590  30.3524500  59.4953900 108.4854980
  31.6051770  58.8948660 107.8838960  31.0289420  63.2999860  98.3337750
  30.3865580  62.6455480  98.6081470  30.6420080  63.7054950  97.5578420
  26.6075900  60.6285290 102.1809440  26.9599720  60.0313420 101.5210810
  25.7238230  60.3029520 102.3517690  22.6939180  61.3882980  99.5879850
  23.3810310  61.9352190  99.9687440  21.9071600  61.9323710  99.6229460
  14.8331580  57.0055800  95.0796930  15.7026430  57.2880600  95.3632850
  14.3421900  57.8191670  94.9645740  21.9966390  58.3929010  99.2005210
  22.4529170  59.2034260  99.4265400  21.6454600  58.0752150 100.0323700
  24.2999000  63.9035350 106.4297510  24.9441220  64.1094730 107.1070930
  24.6628440  63.1423750 105.9768360  17.8978170  48.7366660  99.6727730
  17.7692800  48.7284560 100.6212650  17.0740190  49.0749750  99.3218740
  25.5731080  61.9067700 105.1474960  26.2153310  61.2060860 105.2607130
  26.0980430  62.6866140 104.9671850  29.4186800  62.1916320  94.8714100
  29.1924380  61.4746760  95.4638740  29.0283000  61.9428760  94.0335850
  27.3468700  62.7062600 108.3511020  27.6824940  63.2929290 109.0288940
  26.4269040  62.5755310 108.5808810  15.2002830  66.2183180  95.6458560
  15.5600470  66.8172520  94.9915830  15.0595170  66.7643070  96.4193590
  14.8972100  50.4957780 109.1334430  14.1830620  50.6954700 109.7387040
  15.3167140  49.7197350 109.5049230  29.0003050  60.1088260  96.5328260
  28.7124750  60.5700950  97.3206140  29.7955220  59.6486030  96.8012480
  15.1844690  64.4838040 110.1200960  15.2935810  63.5432780 109.9796350
  14.5325250  64.7492790 109.4714690  21.2171450  63.6014380  96.4632230
  21.2081550  64.3344070  95.8476740  20.2969810  63.3545960  96.5559190
  16.8178090  58.8229270  97.2078990  16.2106040  59.5628170  97.2174290
  17.2927440  58.9128630  96.3817190  26.3910880  52.9880090 106.8835880
  26.7591700  52.1675300 107.2115450  25.5309080  53.0481980 107.2991530
  29.7572910  51.9437030  97.6923440  29.1286070  52.0482700  96.9781670
  29.2624830  52.1633810  98.4817320  24.2031050  63.6642620  95.1257420
  24.3043030  63.4606610  94.1959400  23.3032790  63.4100900  95.3305200
  21.7256940  54.2222980  99.1081320  21.0173090  54.6909320  99.5494930
  22.0101420  53.5644990  99.7426510  23.3512870  55.6419680 107.1073850
  23.8498120  56.1165500 107.7725700  23.4935820  54.7183200 107.3143880
  25.7572370  50.9473640 100.5477110  25.6340150  50.9659770  99.5986620
  26.7056930  50.9952580 100.6675510  22.8449160  66.1828940  99.8205090
  23.0990660  66.1450330  98.8984460  21.8961640  66.0562270  99.8133340
  19.9291960  52.5308060  96.4832030  20.7782490  52.9678210  96.4172220
  19.5623230  52.8428320  97.3104090  30.5579730  51.8587640 107.9502240
  30.0553330  52.5993040 108.2896050  31.3736390  52.2471640 107.6339030
  28.8501740  57.1020820 101.3963600  27.9091880  57.1171050 101.5711290
  29.1645810  56.3156780 101.8423900  18.8283380  58.7840420  94.9567560
  19.5946650  58.6721780  95.5192990  18.9058070  58.0878390  94.3044330
  17.5230140  56.2165490  95.6400450  17.6033730  55.2693000  95.7517850
  18.4149890  56.5472370  95.7461110  30.8527320  64.2729670 103.0717860
  30.9774740  65.0960840 103.5441670  31.7192880  64.0620400 102.7242010
  18.3244850  66.3660880 102.7434990  19.0607330  65.8176340 103.0143560
  18.7085770  67.2316890 102.6040980  15.2090330  62.4334450  98.6176500
  14.2830110  62.6755590  98.6081910  15.6746760  63.2608710  98.4961250
  21.4347160  65.5391190  94.5660560  22.2275770  65.8280020  94.1142350
  20.9151510  65.1083360  93.8873040  30.4877330  64.7661320  95.9897300
  30.2018840  64.3526460  95.1751480  30.2896880  65.6949030  95.8697820
  21.9524560  60.7594600  94.4302910  21.8475200  60.1446950  95.1564290
  21.7848780  60.2360490  93.6465920  22.1038880  59.4451400 110.4092140
  21.3384550  60.0136400 110.3246810  22.2854840  59.1527610 109.5160370
  25.1927290  59.8214630  95.0344900  24.6437390  60.2683930  95.6787640
  25.8146550  59.3163880  95.5582570  29.2462230  61.1756730 110.9667160
  29.9871700  61.5132490 110.4634620  28.4834910  61.3448790 110.4136930
  20.8602410  58.7805550  96.9310200  21.2818830  58.6145420  97.7741590
  20.9853250  57.9705780  96.4365340  19.0229830  54.7602100 109.7381180
  18.4926290  54.2693050 109.1104520  19.6917900  55.1886300 109.2039110
  23.3730050  57.8043160  94.1787300  23.8935710  57.0892180  93.8128450
  24.0198450  58.4429030  94.4787810  27.9207890  59.2271560 109.5022370
  28.3348910  59.3816640 110.3512790  26.9858890  59.3526780 109.6648150
  19.5102130  51.7264470 109.8178470  19.4159000  51.1085220 109.0929340
  18.9299520  52.4530760 109.5908380  22.2763570  50.2837710 106.8505860
  21.8280870  50.3061970 106.0051410  21.6428770  49.8856730 107.4476160
  22.6823120  59.1792040 107.4718300  23.1011230  60.0224770 107.2994540
  21.7631750  59.3164080 107.2425080  25.0187020  56.9108220 108.8556140
  25.1383230  56.3149360 109.5950980  25.8781020  56.9477910 108.4357440
  27.3574920  57.4645410 107.4318650  26.8310140  57.9888030 106.8283790
  27.7006260  58.0972800 108.0628380  19.7561310  54.8538780  93.8768360
  19.5550370  53.9906140  94.2381700  19.5853360  54.7672140  92.9389960
  20.5330540  65.4845050 108.5876030  19.9951630  66.2091110 108.2684730
  20.7864500  65.0075390 107.7973370  21.7855790  53.4529570 110.1131960
  22.3755480  53.1445420 110.8009780  20.9676030  52.9809320 110.2691860
  26.6049220  53.0695380 110.3464980  25.9164740  52.4076920 110.2814970
  27.3255240  52.6233650 110.7913440  27.2349620  49.6647010  96.4055240
  27.5151910  48.8214910  96.7614660  26.4615350  49.8970120  96.9193990
  18.5544110  51.9539400  93.8646240  18.8570010  51.9606830  92.9565390
  19.2938700  51.6037260  94.3613900  23.3892750  66.7196260 108.8462680
  23.3151450  67.6231400 109.1535050  22.4871590  66.4008160 108.8184750
  21.7729040  50.8974020  94.8502440  21.4251040  50.2198010  94.2704890
  21.9741810  50.4363530  95.6645830  23.9378080  65.8854770  96.4689040
  24.8328870  66.2239740  96.4907800  23.9695710  65.1634180  95.8413320
  17.5774240  61.2581820  94.6976040  18.0149110  61.8011490  95.3533620
  18.0621970  60.4328770  94.7072380  14.7920040  64.0470850 102.1496300
  15.1223050  63.1791910 101.9174940  15.2211040  64.2529370 102.9801260
  19.3881960  62.3779860  99.8098270  19.0877500  62.2544830 100.7102180
  19.2819450  61.5188450  99.4014000  15.2810250  64.9141440 104.8877930
  14.8441240  65.0942240 105.7202080  15.8487930  65.6716060 104.7459650
  30.9172430  64.4158440 109.1755240  30.3174420  64.4751000 108.4319160
  31.0466330  63.4763420 109.3052090  32.1573880  62.1576260  94.5124950
  31.3266840  62.2252910  94.9832180  32.3345710  63.0480380  94.2091810
  31.6130340  58.9023740  97.0159150  32.3749250  59.4720390  97.1218840
  31.6284710  58.3350940  97.7867460  15.1134680  57.4261670 101.2466810
  14.4583520  57.1573310 100.6026510  15.9512630  57.3166150 100.7968790
  32.6190310  59.7573840 101.8601080  32.9899140  58.9741160 101.4537050
  33.2592240  60.4462940 101.6818380  29.6024070  61.1410420 107.2731400
  28.7883910  61.5707580 107.5357190  30.0098270  61.7528830 106.6600450
  31.6649510  59.1958110  94.1731670  31.9398350  60.1036990  94.0450890
  31.4760250  59.1320640  95.1093660  28.0625120  52.2202960  95.4685300
  28.4810000  52.0333940  94.6281960  27.7561180  51.3682010  95.7788230
  31.5614850  57.1327100  99.1661100  31.1858450  56.3655030  98.7342390
  30.8317970  57.5149800  99.6536030  16.1510610  57.8114240 105.7870150
  16.5183650  57.7241640 106.6666170  15.5821430  57.0480790 105.6877010
  30.9514470  56.2798620 108.8000620  30.7200560  56.0511370 107.8998570
  31.2119020  57.1998170 108.7545510  15.7026610  54.7223330 109.6928570
  14.8082660  54.6890090 110.0322280  16.2424160  54.9210120 110.4579820
  14.3272760  54.6360600  97.1892140  13.4236840  54.8990800  97.0143800
  14.8113380  54.9071770  96.4092100  30.8365810  55.3584590 102.4668340
  31.3603290  54.8647240 101.8358510  31.4225230  55.4934950 103.2115910
  31.0155530  55.4424460 105.9887890  30.0658240  55.4088000 106.1032880
  31.1968540  56.3524570 105.7537660  16.8699970  53.6926140  95.0986520
  17.5791670  53.2709360  94.6133800  16.1539910  53.7601370  94.4669870
  16.5174130  49.7465470  94.1389170  17.2402260  50.2874410  94.4570390
  16.7898650  49.4728890  93.2630710  30.3265780  54.6157940  98.4060750
  30.8224900  54.3828810  99.1909630  30.1281850  53.7769780  97.9898390
  16.2066320  48.9971660 104.0411790  16.8542510  48.4469040 103.6006950
  16.6268160  49.2514810 104.8627600  31.7552940  53.2518890 100.9398430
  31.6452220  53.0974930 101.8780700  32.5160530  52.7239830 100.6973840
  30.1018660  49.1913020 107.3981430  30.7390880  49.8047160 107.7640620
  30.2493550  49.2273680 106.4530660  32.6443210  51.0826810  94.1804570
  33.5692520  50.9507990  93.9722860  32.6219000  51.1619630  95.1341020
  32.7181700  51.8537470  96.8061280  31.9233200  51.7882590  97.3354190
  32.9224980  52.7888110  96.7946630  29.6600120  65.8929020 100.7999670
  30.2559190  65.5713590 100.1234090  29.9178270  65.4200840 101.5912940
  15.9598320  49.1527330 106.7837110  15.6113140  49.6091150 107.5495290
  15.6286020  48.2584460 106.8659540  21.2668720  63.8806520 106.5500020
  21.0260080  64.1481080 105.6630540  22.2071360  64.0512250 106.6050880
  26.1097700  50.0009270 109.9448820  26.7238110  50.3188560 109.2829900
  26.6547260  49.5157860 110.5644680  32.5272880  65.9000900 107.3510660
  32.0331160  66.2969770 106.6337790  31.9186170  65.2750110 107.7447940
  16.6318960  48.6803530 110.0587880  17.1801950  48.4991580 109.2953990
  16.6974270  47.8897640 110.5944190  17.4050720  65.2709180 108.0688080
  16.8111040  65.1393880 108.8078120  17.3974560  64.4347320 107.6030180
  26.8505740  48.5641410 106.2718110  25.9765580  48.8976520 106.0691040
  26.7416490  48.0914590 107.0969980  27.7577720  50.7712280 107.6559830
  27.4291080  49.9564040 107.2761560  28.7060020  50.7282090 107.5325520
  30.2112330  66.5424320 104.6297400  29.7515300  67.2940130 104.2555420
  29.5824790  65.8230790 104.5712200  17.0362950  62.6367560 107.0196120
  16.3097010  62.0172850 106.9522070  17.0972100  63.0308170 106.1494200
  20.6408050  64.8512560 103.8045530  21.1573070  64.2399920 103.2793790
  21.2905430  65.3541340 104.2956540  23.3803550  65.7421050 104.6314510
  23.6681360  65.4875350 103.7547520  23.8926770  65.1898410 105.2220080
  24.5980560  49.4811250 105.2111020  23.8152350  49.9556750 105.4907780
  24.3043490  48.5766080 105.1024200  29.1501630  50.1834350 103.2560110
  29.5909720  50.1279450 102.4081710  28.8809220  51.0992360 103.3270290
  31.0140200  49.8149590 101.2668930  30.9528600  48.8710810 101.1199950
  31.7932230  49.9229680 101.8122390  15.3192950  65.9541950 100.2292880
  15.1514990  65.3212630 100.9274770  14.4527460  66.1601350  99.8787070
  15.9420970  49.7858730  97.7324740  16.7000330  49.8987610  97.1588770
  15.4798140  50.6227930  97.6868170  22.4834780  51.8998000 100.7227050
  21.6709290  51.5254890 100.3822930  22.9876420  51.1443080 101.0248240
  26.9859760  48.5640450 101.9610120  27.5889130  49.1360660 102.4358640
  26.2452750  49.1279890 101.7384020  30.1294360  48.9662010  97.2350400
  30.3244990  49.8645460  97.5017830  29.3424230  48.7349090  97.7283350
  16.9255650  64.6475180  97.6743020  16.4003270  65.0283210  96.9704980
  16.8500230  65.2725950  98.3952730  18.3146120  50.3122780  96.2726710
  18.8438880  49.5252580  96.1434660  18.9474440  50.9913970  96.5062240
  20.5083960  50.0497920  99.3272100  19.8786700  49.3485230  99.4942230
  19.9689100  50.8102050  99.1105260  31.6820970  66.2062720  98.9956960
  31.8573160  65.5200460  98.3517880  30.9842540  66.7309770  98.6033630
  19.5248620  66.5957560  96.5492270  20.2567440  66.3116840  96.0016160
  19.7842290  66.3570840  97.4391650  18.6863410  62.7122290  96.5538600
  18.0572290  63.1807390  97.1024430  18.8011240  61.8671510  96.9884790
  24.2731170  58.5406970  84.5849070  23.4973270  58.0607410  84.8747640
  24.9244100  57.8612620  84.4105230  28.2938600  62.9467160  83.3648200
  27.8320130  62.1754400  83.6935370  29.1064150  62.9733230  83.8700650
  24.5201910  65.2325170  82.9852190  23.9013350  65.6882670  82.4146630
  25.3753690  65.3876630  82.5841890  23.7140160  61.2164160  84.5919230
  23.6448440  60.2754100  84.4308360  24.4760020  61.3065570  85.1641800
  15.9046830  51.8218680  86.9175850  15.7249670  50.9244430  87.1978610
  15.5026910  52.3690550  87.5922800  24.7445330  54.0234540  84.8188160
  25.1210150  53.1506420  84.7061830  24.6464840  54.3593240  83.9278600
  28.5269450  51.5184980  81.7516500  29.3479070  51.0281550  81.7941980
  28.5603530  52.1082640  82.5048340  16.5233500  54.3179180  85.5258190
  17.2043610  54.5817550  86.1445590  16.2081550  53.4780050  85.8596200
  20.7158070  55.3646540  84.6130780  21.2236290  55.8627510  85.2535800
  21.2471310  54.5881740  84.4370140  32.8169000  53.5351730  88.3160130
  32.1121170  53.9233440  87.7975240  33.0826920  54.2302020  88.9181060
  18.9994170  50.0045100  88.8794200  19.0012610  50.5217490  88.0740100
  18.1698480  49.5275280  88.8564130  20.2497020  59.6440280  87.0567700
  19.9166400  60.2709200  87.6988770  20.4263700  60.1702160  86.2769370
  28.7630930  53.4585360  84.5244040  28.0586500  53.7470250  85.1047150
  29.1243090  54.2685470  84.1643600  18.6809500  51.7155060  86.8864650
  19.0226310  52.5597110  86.5918520  17.7425310  51.8638800  87.0029990
  19.4616120  61.6121080  88.8716880  20.0790120  62.2872160  88.5901330
  18.6009240  62.0209060  88.7804380  30.3793710  63.0760490  86.7871520
  29.6957230  63.7459600  86.7788190  30.9188000  63.2741140  86.0216380
  31.8317850  52.9040150  84.9153250  30.8842760  52.9379130  85.0468680
  32.1567840  53.7179100  85.3002610  22.3637390  49.2037330  83.2109240
  22.6712370  48.6484220  82.4944740  21.4338090  49.3381790  83.0282230
  27.9152450  64.9204620  85.5016700  27.9279610  64.5166910  84.6338960
  27.3627670  65.6951910  85.3978130  29.2097870  61.6420840  80.5906870
  29.0994200  60.6995170  80.7156290  29.2066120  62.0036480  81.4769630
  27.3137890  59.8234460  86.8299310  27.7306680  59.6094570  85.9952770
  28.0377710  60.0807250  87.4007930  31.2599990  58.2221680  86.9215550
  30.4318620  58.2914770  86.4465680  31.8550470  58.8075990  86.4531380
  28.7815440  58.8306460  80.4504610  28.1627860  58.4926010  79.8030910
  28.7639890  58.1866220  81.1583800  28.2242000  55.0091000  87.8670420
  27.8113180  55.8344710  88.1210410  27.4917950  54.4236040  87.6746780
  20.8256490  61.4818460  84.8928300  20.5284780  60.8763930  84.2136080
  21.7756310  61.5195770  84.7817660  19.0703410  54.5694110  86.5088130
  19.6218000  54.6789450  85.7341380  19.5846920  54.9431710  87.2243360
  28.9142100  65.0550330  88.5551400  28.4372660  65.8622520  88.3624010
  28.2303890  64.4028660  88.7077610  19.9174920  61.2200150  91.5436100
  19.0203450  61.4440120  91.7909500  19.9427790  61.3435090  90.5947500
  18.7446140  58.0913470  90.1193470  18.6053910  58.9636270  90.4880870
  17.8627500  57.7486280  89.9741410  20.5426490  64.0335170  92.3278620
  20.5141920  64.4378120  91.4607050  20.3791460  63.1045530  92.1650220
  32.4941310  64.8162270  93.6242790  32.9701030  65.2945160  94.3031870
  33.1148470  64.7479760  92.8988290  31.8974560  62.0075120  90.7842800
  32.0237620  61.7687000  89.8659980  31.9395940  61.1759660  91.2564880
  25.7591300  65.7103120  89.3537610  26.2735970  65.6211130  90.1560040
  24.9160380  66.0562820  89.6465520  27.7345700  65.9958460  78.7821610
  27.5746840  65.7061400  79.6803440  27.5692410  65.2198590  78.2466840
  27.4371830  63.5046020  77.3419610  26.7436990  63.5023310  76.6821890
  28.1794690  63.0805340  76.9113780  27.0021760  65.1308730  81.4168100
  27.4578710  64.3498110  81.7306720  27.3414280  65.8415550  81.9609280
  31.7498570  54.0607580  91.7492540  31.1342840  54.5687250  91.2208000
  31.4294990  53.1605910  91.6918480  14.7524310  60.9025190  88.5758840
  14.9155350  60.4330550  87.7578210  15.2176760  60.3948750  89.2407680
  19.5243080  50.0330950  83.6119410  19.0811230  50.8140490  83.2803930
  20.0828070  50.3560840  84.3190350  23.8112890  52.8999470  89.2154730
  23.3492260  53.1082490  90.0274670  23.4091000  52.0858820  88.9125400
  28.8117400  54.1208420  90.3451390  27.9610990  53.8214170  90.6660460
  28.6519190  54.3650430  89.4335210  25.9067110  55.6210170  92.4450180
  26.2320520  54.7873920  92.1052410  26.6947440  56.1438690  92.5928510
  21.5618980  50.5778280  85.4709010  21.8591310  51.4841110  85.3901030
  22.1104540  50.0897060  84.8568580  19.3157300  55.1564520  81.3400660
  19.0898220  54.9401690  82.2447280  18.5349830  55.5892980  80.9946630
  21.7556510  56.0550100  92.0060930  21.6600110  55.1144830  91.8561330
  22.5988490  56.2765170  91.6109000  16.8867050  52.4663770  90.1594710
  16.4930440  53.3138980  90.3667490  16.1985450  51.8290140  90.3503350
  23.4612100  52.5498740  93.2291450  22.7710420  52.3570940  93.8637540
  24.2044400  52.8333380  93.7615750  14.1884100  50.3892230  84.1924790
  13.8997150  50.9595090  84.9049770  14.9329860  49.9096680  84.5556020
  25.7375070  56.3897180  86.0645370  25.0056190  56.8983990  86.4135470
  25.3399410  55.5727160  85.7634150  22.1752460  53.0651380  84.4697860
  22.1788520  52.6241330  83.6202400  23.0703580  53.3868710  84.5769680
  18.0254840  52.9477870  83.4292070  17.6854890  53.4253100  84.1859120
  17.2632160  52.4942990  83.0693170  26.2000980  51.8430860  85.4768310
  26.2173720  52.2939510  86.3210160  25.9516560  50.9436500  85.6901750
  29.6271730  49.2563040  91.3154690  29.9517500  48.5252700  91.8412670
  29.6628240  48.9376680  90.4135680  16.3263290  60.2776620  90.7354650
  15.9418080  59.6370290  91.3337610  16.6375480  60.9812740  91.3049380
  22.4760430  57.1253160  86.2163270  22.8430560  56.6511730  86.9624610
  22.2865490  57.9994730  86.5571610  20.2659800  56.1661800  88.5347480
  19.9616870  57.0453780  88.7597840  21.2206260  56.2261590  88.5704920
  29.5529570  59.3688150  84.9240720  30.2728690  59.8643440  84.5336830
  29.3511390  58.6906040  84.2794590  24.9348370  59.4397210  90.8109720
  24.8685680  58.5192880  90.5567310  24.3053510  59.5372650  91.5254360
  16.3223530  57.0064540  89.6818840  15.9638470  57.6718390  90.2692180
  16.0278090  56.1748090  90.0531460  19.5236650  57.4648780  92.5658390
  19.2236790  57.6105960  91.6686210  20.2947890  56.9054070  92.4731780
  24.8665100  62.2617780  90.5613520  24.8809640  61.3298740  90.3432430
  24.1590200  62.3477540  91.2003290  31.0776310  58.9025120  89.9082100
  30.3524500  59.4953900  89.7111490  31.6051770  58.8948660  89.1095470
  31.0289420  63.2999860  79.5594260  30.3865580  62.6455480  79.8337980
  30.6420080  63.7054950  78.7834930  26.6075900  60.6285290  83.4065950
  26.9599720  60.0313420  82.7467320  25.7238230  60.3029520  83.5774200
  24.2999000  63.9035350  87.6554020  24.9441220  64.1094730  88.3327440
  24.6628440  63.1423750  87.2024870  25.5731080  61.9067700  86.3731470
  26.2153310  61.2060860  86.4863640  26.0980430  62.6866140  86.1928360
  27.3468700  62.7062600  89.5767530  27.6824940  63.2929290  90.2545450
  26.4269040  62.5755310  89.8065320  14.8972100  50.4957780  90.3590940
  14.1830620  50.6954700  90.9643550  15.3167140  49.7197350  90.7305740
  15.1844690  64.4838040  91.3457470  15.2935810  63.5432780  91.2052860
  14.5325250  64.7492790  90.6971200  23.1757280  62.7553930  92.7455590
  22.8554150  62.0363170  93.2901280  22.5015640  63.4309000  92.8191650
  26.3910880  52.9880090  88.1092390  26.7591700  52.1675300  88.4371960
  25.5309080  53.0481980  88.5248040  23.3512870  55.6419680  88.3330360
  23.8498120  56.1165500  88.9982210  23.4935820  54.7183200  88.5400390
  30.5579730  51.8587640  89.1758750  30.0553330  52.5993040  89.5152560
  31.3736390  52.2471640  88.8595540  30.8527320  64.2729670  84.2974370
  30.9774740  65.0960840  84.7698180  31.7192880  64.0620400  83.9498520
  18.3244850  66.3660880  83.9691500  19.0607330  65.8176340  84.2400070
  18.7085770  67.2316890  83.8297490  17.3303130  65.5506950  93.1577080
  18.1315860  65.8719000  93.5712480  16.8154950  65.1902530  93.8796990
  26.1667760  61.6586820  93.1052490  25.5605920  61.6818420  92.3648240
  25.8621870  60.9269860  93.6419740  27.5968130  65.3867110  91.7161900
  28.5489880  65.3025130  91.6662140  27.4496350  66.0508820  92.3895690
  30.4877330  64.7661320  77.2153810  30.2018840  64.3526460  76.4007990
  30.2896880  65.6949030  77.0954330  15.0500940  58.0380410  92.1013130
  15.5539960  57.4587690  92.6729360  14.3108360  58.3220640  92.6389500
  22.1038880  59.4451400  91.6348650  21.3384550  60.0136400  91.5503320
  22.2854840  59.1527610  90.7416880  29.2462230  61.1756730  92.1923670
  29.9871700  61.5132490  91.6891130  28.4834910  61.3448790  91.6393440
  17.0824020  56.1810000  92.9963200  17.1229360  55.8823870  93.9048430
  17.9369520  56.5817610  92.8370720  19.0229830  54.7602100  90.9637690
  18.4926290  54.2693050  90.3361030  19.6917900  55.1886300  90.4295620
  27.9207890  59.2271560  90.7278880  28.3348910  59.3816640  91.5769300
  26.9858890  59.3526780  90.8904660  28.3930060  56.5667720  92.7318030
  28.9750830  55.8120040  92.6438510  28.5691830  57.0975160  91.9549510
  19.5102130  51.7264470  91.0434980  19.4159000  51.1085220  90.3185850
  18.9299520  52.4530760  90.8164890  22.2763570  50.2837710  88.0762370
  21.8280870  50.3061970  87.2307920  21.6428770  49.8856730  88.6732670
  22.6823120  59.1792040  88.6974810  23.1011230  60.0224770  88.5251050
  21.7631750  59.3164080  88.4681590  25.0187020  56.9108220  90.0812650
  25.1383230  56.3149360  90.8207490  25.8781020  56.9477910  89.6613950
  27.3574920  57.4645410  88.6575160  26.8310140  57.9888030  88.0540300
  27.7006260  58.0972800  89.2884890  20.5330540  65.4845050  89.8132540
  19.9951630  66.2091110  89.4941240  20.7864500  65.0075390  89.0229880
  21.7855790  53.4529570  91.3388470  22.3755480  53.1445420  92.0266290
  20.9676030  52.9809320  91.4948370  26.6049220  53.0695380  91.5721490
  25.9164740  52.4076920  91.5071480  27.3255240  52.6233650  92.0169950
  23.3892750  66.7196260  90.0719190  23.3151450  67.6231400  90.3791560
  22.4871590  66.4008160  90.0441260  15.2810250  64.9141440  86.1134440
  14.8441240  65.0942240  86.9458590  15.8487930  65.6716060  85.9716160
  30.9172430  64.4158440  90.4011750  30.3174420  64.4751000  89.6575670
  31.0466330  63.4763420  90.5308600  32.1573880  62.1576260  75.7381460
  31.3266840  62.2252910  76.2088690  32.3345710  63.0480380  75.4348320
  31.6130340  58.9023740  78.2415660  32.3749250  59.4720390  78.3475350
  31.6284710  58.3350940  79.0123970  32.6190310  59.7573840  83.0857590
  32.9899140  58.9741160  82.6793560  33.2592240  60.4462940  82.9074890
  29.6024070  61.1410420  88.4987910  28.7883910  61.5707580  88.7613700
  30.0098270  61.7528830  87.8856960  31.5614850  57.1327100  80.3917610
  31.1858450  56.3655030  79.9598900  30.8317970  57.5149800  80.8792540
  16.1510610  57.8114240  87.0126660  16.5183650  57.7241640  87.8922680
  15.5821430  57.0480790  86.9133520  30.9514470  56.2798620  90.0257130
  30.7200560  56.0511370  89.1255080  31.2119020  57.1998170  89.9802020
  15.7026610  54.7223330  90.9185080  14.8082660  54.6890090  91.2578790
  16.2424160  54.9210120  91.6836330  29.3902540  51.5055050  92.8036830
  30.2672720  51.5138450  93.1870830  29.4023380  50.7685890  92.1929180
  30.8365810  55.3584590  83.6924850  31.3603290  54.8647240  83.0615020
  31.4225230  55.4934950  84.4372420  31.0155530  55.4424460  87.2144400
  30.0658240  55.4088000  87.3289390  31.1968540  56.3524570  86.9794170
  16.2066320  48.9971660  85.2668300  16.8542510  48.4469040  84.8263460
  16.6268160  49.2514810  86.0884110  31.7552940  53.2518890  82.1654940
  31.6452220  53.0974930  83.1037210  32.5160530  52.7239830  81.9230350
  30.1018660  49.1913020  88.6237940  30.7390880  49.8047160  88.9897130
  30.2493550  49.2273680  87.6787170  29.6600120  65.8929020  82.0256180
  30.2559190  65.5713590  81.3490600  29.9178270  65.4200840  82.8169450
  15.9598320  49.1527330  88.0093620  15.6113140  49.6091150  88.7751800
  15.6286020  48.2584460  88.0916050  17.5662690  62.3246930  92.1746810
  17.5232320  61.9539840  93.0561270  17.6973700  63.2624500  92.3148630
  21.2668720  63.8806520  87.7756530  21.0260080  64.1481080  86.8887050
  22.2071360  64.0512250  87.8307390  23.4723140  50.3439210  91.5313040
  23.4112030  50.9361040  92.2808450  24.4123520  50.2365170  91.3863300
  26.1097700  50.0009270  91.1705330  26.7238110  50.3188560  90.5086410
  26.6547260  49.5157860  91.7901190  32.5272880  65.9000900  88.5767170
  32.0331160  66.2969770  87.8594300  31.9186170  65.2750110  88.9704450
  16.6318960  48.6803530  91.2844390  17.1801950  48.4991580  90.5210500
  16.6974270  47.8897640  91.8200700  17.4050720  65.2709180  89.2944590
  16.8111040  65.1393880  90.0334630  17.3974560  64.4347320  88.8286690
  26.8505740  48.5641410  87.4974620  25.9765580  48.8976520  87.2947550
  26.7416490  48.0914590  88.3226490  27.7577720  50.7712280  88.8816340
  27.4291080  49.9564040  88.5018070  28.7060020  50.7282090  88.7582030
  30.2112330  66.5424320  85.8553910  29.7515300  67.2940130  85.4811930
  29.5824790  65.8230790  85.7968710  17.0362950  62.6367560  88.2452630
  16.3097010  62.0172850  88.1778580  17.0972100  63.0308170  87.3750710
  20.6408050  64.8512560  85.0302040  21.1573070  64.2399920  84.5050300
  21.2905430  65.3541340  85.5213050  23.3803550  65.7421050  85.8571020
  23.6681360  65.4875350  84.9804030  23.8926770  65.1898410  86.4476590
  24.5980560  49.4811250  86.4367530  23.8152350  49.9556750  86.7164290
  24.3043490  48.5766080  86.3280710  29.1501630  50.1834350  84.4816620
  29.5909720  50.1279450  83.6338220  28.8809220  51.0992360  84.5526800
  31.0140200  49.8149590  82.4925440  30.9528600  48.8710810  82.3456460
  31.7932230  49.9229680  83.0378900  23.4475910  66.6637150  93.2239220
  24.3743220  66.4281420  93.2675180  23.4326340  67.4909150  92.7425250
  31.6820970  66.2062720  80.2213470  31.8573160  65.5200460  79.5774390
  30.9842540  66.7309770  79.8290140  20.6339520  49.3281900  92.9881100
  20.3523790  49.8315500  92.2241920  21.0159220  48.5303650  92.6223230
  27.2354980  48.7435480  93.5661570  27.1220430  49.0630090  94.4613090
  28.0524720  49.1447990  93.2698850  30.0153470  65.8907010  93.0480260
  30.8078790  65.3956240  92.8406220  30.3086620  66.5697150  93.6555870
  28.2938600  62.9467160  64.5904710  27.8320130  62.1754400  64.9191880
  29.1064150  62.9733230  65.0957160  24.5201910  65.2325170  64.2108700
  23.9013350  65.6882670  63.6403140  25.3753690  65.3876630  63.8098400
  23.7140160  61.2164160  65.8175740  23.6448440  60.2754100  65.6564870
  24.4760020  61.3065570  66.3898310  25.3865260  60.1164410  61.6040610
  24.7682530  60.5813860  61.0403330  25.8988510  60.8091890  62.0210120
  14.7548460  60.8020940  58.9780240  14.3776440  61.2908040  58.2465140
  15.0121530  61.4746220  59.6086770  30.3793710  63.0760490  68.0128030
  29.6957230  63.7459600  68.0044700  30.9188000  63.2741140  67.2472890
  27.9152450  64.9204620  66.7273210  27.9279610  64.5166910  65.8595470
  27.3627670  65.6951910  66.6234640  29.2097870  61.6420840  61.8163380
  29.0994200  60.6995170  61.9412800  29.2066120  62.0036480  62.7026140
  27.3137890  59.8234460  68.0555820  27.7306680  59.6094570  67.2209280
  28.0377710  60.0807250  68.6264440  24.7518150  57.2686160  61.1725870
  23.8247430  57.2023540  61.4014340  24.9042970  58.2066290  61.0581110
  24.7387230  53.5403160  58.1693030  23.7990900  53.7017120  58.2545490
  25.0570490  54.2588840  57.6229020  31.2599990  58.2221680  68.1472060
  30.4318620  58.2914770  67.6722190  31.8550470  58.8075990  67.6787890
  28.7815440  58.8306460  61.6761120  28.1627860  58.4926010  61.0287420
  28.7639890  58.1866220  62.3840310  20.8256490  61.4818460  66.1184810
  20.5284780  60.8763930  65.4392590  21.7756310  61.5195770  66.0074170
  28.9142100  65.0550330  69.7807910  28.4372660  65.8622520  69.5880520
  28.2303890  64.4028660  69.9334120  26.9580140  58.0693270  58.6833870
  27.3973420  57.2315700  58.5371690  27.6708560  58.7022670  58.7698010
  25.0675520  63.0089340  62.6515110  25.5071430  63.7513670  62.2370500
  25.0062410  63.2515910  63.5754070  30.5397280  49.3236080  56.9974910
  30.2269940  49.4162910  57.8973980  31.3009750  49.9017110  56.9472340
  32.4941310  64.8162270  74.8499300  32.9701030  65.2945160  75.5288380
  33.1148470  64.7479760  74.1244800  15.9412420  61.5611210  63.6727070
  15.5340500  61.7025800  62.8180670  16.8325430  61.2771370  63.4698280
  31.8974560  62.0075120  72.0099310  32.0237620  61.7687000  71.0916490
  31.9395940  61.1759660  72.4821390  25.7591300  65.7103120  70.5794120
  26.2735970  65.6211130  71.3816550  24.9160380  66.0562820  70.8722030
  27.7345700  65.9958460  60.0078120  27.5746840  65.7061400  60.9059950
  27.5692410  65.2198590  59.4723350  20.2134080  65.7756990  61.7849740
  20.0376560  64.8592530  61.5717540  19.3589820  66.1344280  62.0247540
  27.4371830  63.5046020  58.5676120  26.7436990  63.5023310  57.9078400
  28.1794690  63.0805340  58.1370290  27.0021760  65.1308730  62.6424610
  27.4578710  64.3498110  62.9563230  27.3414280  65.8415550  63.1865790
  14.3754330  54.3312350  56.6284020  14.2929000  55.2743110  56.7699010
  14.0237390  54.1887260  55.7496370  21.2494110  56.3764600  58.0844430
  20.6811010  55.9282850  57.4580340  21.9583110  56.7357380  57.5509580
  18.7941590  60.3722790  60.3570840  18.0203850  59.8320410  60.1969560
  19.5236220  59.8529400  60.0188600  29.5529570  59.3688150  66.1497230
  30.2728690  59.8643440  65.7593340  29.3511390  58.6906040  65.5051100
  27.7287900  55.1345760  58.5888780  28.6167520  55.4462990  58.4140120
  27.6992990  54.2618010  58.1969360  23.7248490  61.3069450  59.2676950
  24.0664190  62.0511680  58.7720270  22.8961200  61.6200570  59.6301780
  30.0002170  56.4457600  58.0568640  29.9165890  56.8771820  57.2065080
  30.7196360  56.9055950  58.4895460  31.0289420  63.2999860  60.7850770
  30.3865580  62.6455480  61.0594490  30.6420080  63.7054950  60.0091440
  26.6075900  60.6285290  64.6322460  26.9599720  60.0313420  63.9723830
  25.7238230  60.3029520  64.8030710  22.6939180  61.3882980  62.0392870
  23.3810310  61.9352190  62.4200460  21.9071600  61.9323710  62.0742480
  14.8331580  57.0055800  57.5309950  15.7026430  57.2880600  57.8145870
  14.3421900  57.8191670  57.4158760  24.2999000  63.9035350  68.8810530
  24.9441220  64.1094730  69.5583950  24.6628440  63.1423750  68.4281380
  25.5731080  61.9067700  67.5987980  26.2153310  61.2060860  67.7120150
  26.0980430  62.6866140  67.4184870  29.4186800  62.1916320  57.3227120
  29.1924380  61.4746760  57.9151760  29.0283000  61.9428760  56.4848870
  27.3468700  62.7062600  70.8024040  27.6824940  63.2929290  71.4801960
  26.4269040  62.5755310  71.0321830  15.2002830  66.2183180  58.0971580
  15.5600470  66.8172520  57.4428850  15.0595170  66.7643070  58.8706610
  29.0003050  60.1088260  58.9841280  28.7124750  60.5700950  59.7719160
  29.7955220  59.6486030  59.2525500  21.2171450  63.6014380  58.9145250
  21.2081550  64.3344070  58.2989760  20.2969810  63.3545960  59.0072210
  16.8178090  58.8229270  59.6592010  16.2106040  59.5628170  59.6687310
  17.2927440  58.9128630  58.8330210  24.2031050  63.6642620  57.5770440
  24.3043030  63.4606610  56.6472420  23.3032790  63.4100900  57.7818220
  22.8449160  66.1828940  62.2718110  23.0990660  66.1450330  61.3497480
  21.8961640  66.0562270  62.2646360  18.8283380  58.7840420  57.4080580
  19.5946650  58.6721780  57.9706010  18.9058070  58.0878390  56.7557350
  17.5230140  56.2165490  58.0913470  17.6033730  55.2693000  58.2030870
  18.4149890  56.5472370  58.1974130  30.8527320  64.2729670  65.5230880
  30.9774740  65.0960840  65.9954690  31.7192880  64.0620400  65.1755030
  18.3244850  66.3660880  65.1948010  19.0607330  65.8176340  65.4656580
  18.7085770  67.2316890  65.0554000  15.2090330  62.4334450  61.0689520
  14.2830110  62.6755590  61.0594930  15.6746760  63.2608710  60.9474270
  21.4347160  65.5391190  57.0173580  22.2275770  65.8280020  56.5655370
  20.9151510  65.1083360  56.3386060  27.5968130  65.3867110  72.9418410
  28.5489880  65.3025130  72.8918650  27.4496350  66.0508820  73.6152200
  30.4877330  64.7661320  58.4410320  30.2018840  64.3526460  57.6264500
  30.2896880  65.6949030  58.3210840  21.9524560  60.7594600  56.8815930
  21.8475200  60.1446950  57.6077310  21.7848780  60.2360490  56.0978940
  25.1927290  59.8214630  57.4857920  24.6437390  60.2683930  58.1300660
  25.8146550  59.3163880  58.0095590  20.8602410  58.7805550  59.3823220
  21.2818830  58.6145420  60.2254610  20.9853250  57.9705780  58.8878360
  23.3730050  57.8043160  56.6300320  23.8935710  57.0892180  56.2641470
  24.0198450  58.4429030  56.9300830  19.7561310  54.8538780  56.3281380
  19.5550370  53.9906140  56.6894720  19.5853360  54.7672140  55.3902980
  18.5544110  51.9539400  56.3159260  18.8570010  51.9606830  55.4078410
  19.2938700  51.6037260  56.8126920  23.3892750  66.7196260  71.2975700
  23.3151450  67.6231400  71.6048070  22.4871590  66.4008160  71.2697770
  23.9378080  65.8854770  58.9202060  24.8328870  66.2239740  58.9420820
  23.9695710  65.1634180  58.2926340  17.5774240  61.2581820  57.1489060
  18.0149110  61.8011490  57.8046640  18.0621970  60.4328770  57.1585400
  14.7920040  64.0470850  64.6009320  15.1223050  63.1791910  64.3687960
  15.2211040  64.2529370  65.4314280  19.3881960  62.3779860  62.2611290
  19.0877500  62.2544830  63.1615200  19.2819450  61.5188450  61.8527020
  15.2810250  64.9141440  67.3390950  14.8441240  65.0942240  68.1715100
  15.8487930  65.6716060  67.1972670  30.9172430  64.4158440  71.6268260
  30.3174420  64.4751000  70.8832180  31.0466330  63.4763420  71.7565110
  32.1573880  62.1576260  56.9637970  31.3266840  62.2252910  57.4345200
  32.3345710  63.0480380  56.6604830  31.6130340  58.9023740  59.4672170
  32.3749250  59.4720390  59.5731860  31.6284710  58.3350940  60.2380480
  15.1134680  57.4261670  63.6979830  14.4583520  57.1573310  63.0539530
  15.9512630  57.3166150  63.2481810  32.6190310  59.7573840  64.3114100
  32.9899140  58.9741160  63.9050070  33.2592240  60.4462940  64.1331400
  29.6024070  61.1410420  69.7244420  28.7883910  61.5707580  69.9870210
  30.0098270  61.7528830  69.1113470  31.6649510  59.1958110  56.6244690
  31.9398350  60.1036990  56.4963910  31.4760250  59.1320640  57.5606680
  28.0625120  52.2202960  57.9198320  28.4810000  52.0333940  57.0794980
  27.7561180  51.3682010  58.2301250  31.5614850  57.1327100  61.6174120
  31.1858450  56.3655030  61.1855410  30.8317970  57.5149800  62.1049050
  14.3272760  54.6360600  59.6405160  13.4236840  54.8990800  59.4656820
  14.8113380  54.9071770  58.8605120  16.8699970  53.6926140  57.5499540
  17.5791670  53.2709360  57.0646820  16.1539910  53.7601370  56.9182890
  16.5174130  49.7465470  56.5902190  17.2402260  50.2874410  56.9083410
  16.7898650  49.4728890  55.7143730  30.3265780  54.6157940  60.8573770
  30.8224900  54.3828810  61.6422650  30.1281850  53.7769780  60.4411410
  32.6443210  51.0826810  56.6317590  33.5692520  50.9507990  56.4235880
  32.6219000  51.1619630  57.5854040  32.7181700  51.8537470  59.2574300
  31.9233200  51.7882590  59.7867210  32.9224980  52.7888110  59.2459650
  29.6600120  65.8929020  63.2512690  30.2559190  65.5713590  62.5747110
  29.9178270  65.4200840  64.0425960  32.5272880  65.9000900  69.8023680
  32.0331160  66.2969770  69.0850810  31.9186170  65.2750110  70.1960960
  30.2112330  66.5424320  67.0810420  29.7515300  67.2940130  66.7068440
  29.5824790  65.8230790  67.0225220  20.6408050  64.8512560  66.2558550
  21.1573070  64.2399920  65.7306810  21.2905430  65.3541340  66.7469560
  23.3803550  65.7421050  67.0827530  23.6681360  65.4875350  66.2060540
  23.8926770  65.1898410  67.6733100  15.3192950  65.9541950  62.6805900
  15.1514990  65.3212630  63.3787790  14.4527460  66.1601350  62.3300090
  16.9255650  64.6475180  60.1256040  16.4003270  65.0283210  59.4218000
  16.8500230  65.2725950  60.8465750  31.6820970  66.2062720  61.4469980
  31.8573160  65.5200460  60.8030900  30.9842540  66.7309770  61.0546650
  19.5248620  66.5957560  59.0005290  20.2567440  66.3116840  58.4529180
  19.7842290  66.3570840  59.8904670  18.6863410  62.7122290  59.0051620
  18.0572290  63.1807390  59.5537450  18.8011240  61.8671510  59.4397810
  30.0153470  65.8907010  74.2736770  30.8078790  65.3956240  74.0662730
  30.3086620  66.5697150  74.8812380  26.1413130  56.7627950  45.1552820
  26.0607180  55.8482560  44.8844530  25.7277550  57.2595020  44.4492530
  24.2731170  58.5406970  47.0362090  23.4973270  58.0607410  47.3260660
  24.9244100  57.8612620  46.8618250  18.2897000  58.8526780  47.9137850
  17.4581880  58.5975490  48.3134360  18.8977980  58.9237550  48.6495770
  28.2938600  62.9467160  45.8161220  27.8320130  62.1754400  46.1448390
  29.1064150  62.9733230  46.3213670  18.2698260  62.8866870  48.1095870
  18.5726300  61.9964610  47.9306090  19.0141850  63.4437090  47.8818120
  16.6988950  53.8128670  41.6980240  15.8105650  54.1544640  41.5960120
  16.9830140  53.6128990  40.8061070  14.6621960  56.4134320  47.5819940
  15.2338070  55.6456520  47.5823580  14.6623500  56.7123080  46.6726550
  24.5201910  65.2325170  45.4365210  23.9013350  65.6882670  44.8659650
  25.3753690  65.3876630  45.0354910  23.7140160  61.2164160  47.0432250
  23.6448440  60.2754100  46.8821380  24.4760020  61.3065570  47.6154820
  15.9046830  51.8218680  49.3688870  15.7249670  50.9244430  49.6491630
  15.5026910  52.3690550  50.0435820  24.7445330  54.0234540  47.2701180
  25.1210150  53.1506420  47.1574850  24.6464840  54.3593240  46.3791620
  18.8750340  52.3960170  42.7318620  18.9817090  53.2963900  43.0387380
  17.9642700  52.3478140  42.4413270  28.5269450  51.5184980  44.2029520
  29.3479070  51.0281550  44.2455000  28.5603530  52.1082640  44.9561360
  16.5233500  54.3179180  47.9771210  17.2043610  54.5817550  48.5958610
  16.2081550  53.4780050  48.3109220  20.7158070  55.3646540  47.0643800
  21.2236290  55.8627510  47.7048820  21.2471310  54.5881740  46.8883160
  32.8169000  53.5351730  50.7673150  32.1121170  53.9233440  50.2488260
  33.0826920  54.2302020  51.3694080  18.9994170  50.0045100  51.3307220
  19.0012610  50.5217490  50.5253120  18.1698480  49.5275280  51.3077150
  25.3865260  60.1164410  42.8297120  24.7682530  60.5813860  42.2659840
  25.8988510  60.8091890  43.2466630  20.2497020  59.6440280  49.5080720
  19.9166400  60.2709200  50.1501790  20.4263700  60.1702160  48.7282390
  28.7630930  53.4585360  46.9757060  28.0586500  53.7470250  47.5560170
  29.1243090  54.2685470  46.6156620  18.6809500  51.7155060  49.3377670
  19.0226310  52.5597110  49.0431540  17.7425310  51.8638800  49.4543010
  19.4616120  61.6121080  51.3229900  20.0790120  62.2872160  51.0414350
  18.6009240  62.0209060  51.2317400  14.7548460  60.8020940  40.2036750
  14.3776440  61.2908040  39.4721650  15.0121530  61.4746220  40.8343280
  30.3793710  63.0760490  49.2384540  29.6957230  63.7459600  49.2301210
  30.9188000  63.2741140  48.4729400  31.8317850  52.9040150  47.3666270
  30.8842760  52.9379130  47.4981700  32.1567840  53.7179100  47.7515630
  22.3637390  49.2037330  45.6622260  22.6712370  48.6484220  44.9457760
  21.4338090  49.3381790  45.4795250  27.9152450  64.9204620  47.9529720
  27.9279610  64.5166910  47.0851980  27.3627670  65.6951910  47.8491150
  29.2097870  61.6420840  43.0419890  29.0994200  60.6995170  43.1669310
  29.2066120  62.0036480  43.9282650  27.3137890  59.8234460  49.2812330
  27.7306680  59.6094570  48.4465790  28.0377710  60.0807250  49.8520950
  24.7518150  57.2686160  42.3982380  23.8247430  57.2023540  42.6270850
  24.9042970  58.2066290  42.2837620  24.7387230  53.5403160  39.3949540
  23.7990900  53.7017120  39.4802000  25.0570490  54.2588840  38.8485530
  31.2599990  58.2221680  49.3728570  30.4318620  58.2914770  48.8978700
  31.8550470  58.8075990  48.9044400  28.7815440  58.8306460  42.9017630
  28.1627860  58.4926010  42.2543930  28.7639890  58.1866220  43.6096820
  28.2242000  55.0091000  50.3183440  27.8113180  55.8344710  50.5723430
  27.4917950  54.4236040  50.1259800  20.3574790  57.7950900  45.1802110
  19.9531790  57.0828150  44.6848010  20.4437910  57.4504140  46.0690150
  20.8256490  61.4818460  47.3441320  20.5284780  60.8763930  46.6649100
  21.7756310  61.5195770  47.2330680  19.0703410  54.5694110  48.9601150
  19.6218000  54.6789450  48.1854400  19.5846920  54.9431710  49.6756380
  28.9142100  65.0550330  51.0064420  28.4372660  65.8622520  50.8137030
  28.2303890  64.4028660  51.1590630  19.9174920  61.2200150  53.9949120
  19.0203450  61.4440120  54.2422520  19.9427790  61.3435090  53.0460520
  26.9580140  58.0693270  39.9090380  27.3973420  57.2315700  39.7628200
  27.6708560  58.7022670  39.9954520  18.7446140  58.0913470  52.5706490
  18.6053910  58.9636270  52.9393890  17.8627500  57.7486280  52.4254430
  25.0675520  63.0089340  43.8771620  25.5071430  63.7513670  43.4627010
  25.0062410  63.2515910  44.8010580  20.5426490  64.0335170  54.7791640
  20.5141920  64.4378120  53.9120070  20.3791460  63.1045530  54.6163240
  30.5397280  49.3236080  38.2231420  30.2269940  49.4162910  39.1230490
  31.3009750  49.9017110  38.1728850  17.0579420  56.6895880  42.6808760
  16.9377020  57.4157970  42.0690030  16.7480310  55.9198790  42.2036670
  32.4941310  64.8162270  56.0755810  32.9701030  65.2945160  56.7544890
  33.1148470  64.7479760  55.3501310  14.6964790  59.8611020  48.4877400
  14.7745210  59.9959790  47.5433120  15.3106470  59.1526910  48.6805520
  15.9412420  61.5611210  44.8983580  15.5340500  61.7025800  44.0437180
  16.8325430  61.2771370  44.6954790  31.8974560  62.0075120  53.2355820
  32.0237620  61.7687000  52.3173000  31.9395940  61.1759660  53.7077900
  25.7591300  65.7103120  51.8050630  26.2735970  65.6211130  52.6073060
  24.9160380  66.0562820  52.0978540  27.7345700  65.9958460  41.2334630
  27.5746840  65.7061400  42.1316460  27.5692410  65.2198590  40.6979860
  20.2134080  65.7756990  43.0106250  20.0376560  64.8592530  42.7974050
  19.3589820  66.1344280  43.2504050  27.4371830  63.5046020  39.7932630
  26.7436990  63.5023310  39.1334910  28.1794690  63.0805340  39.3626800
  27.0021760  65.1308730  43.8681120  27.4578710  64.3498110  44.1819740
  27.3414280  65.8415550  44.4122300  31.7498570  54.0607580  54.2005560
  31.1342840  54.5687250  53.6721020  31.4294990  53.1605910  54.1431500
  14.7524310  60.9025190  51.0271860  14.9155350  60.4330550  50.2091230
  15.2176760  60.3948750  51.6920700  19.5243080  50.0330950  46.0632430
  19.0811230  50.8140490  45.7316950  20.0828070  50.3560840  46.7703370
  23.8112890  52.8999470  51.6667750  23.3492260  53.1082490  52.4787690
  23.4091000  52.0858820  51.3638420  28.8117400  54.1208420  52.7964410
  27.9610990  53.8214170  53.1173480  28.6519190  54.3650430  51.8848230
  25.9067110  55.6210170  54.8963200  26.2320520  54.7873920  54.5565430
  26.6947440  56.1438690  55.0441530  22.6401900  49.6541650  40.9438260
  22.0156080  49.6501520  41.6691570  22.5532020  48.7872610  40.5474230
  21.5618980  50.5778280  47.9222030  21.8591310  51.4841110  47.8414050
  22.1104540  50.0897060  47.3081600  19.3157300  55.1564520  43.7913680
  19.0898220  54.9401690  44.6960300  18.5349830  55.5892980  43.4459650
  26.5455060  55.1627890  42.3904330  25.9463950  55.8863690  42.2067950
  27.0934670  55.1004670  41.6080780  21.7556510  56.0550100  54.4573950
  21.6600110  55.1144830  54.3074350  22.5988490  56.2765170  54.0622020
  25.1519930  53.7991430  44.4207610  25.5449500  54.1163630  43.6076300
  25.5136780  52.9203310  44.5352130  16.8867050  52.4663770  52.6107730
  16.4930440  53.3138980  52.8180510  16.1985450  51.8290140  52.8016370
  23.4612100  52.5498740  55.6804470  22.7710420  52.3570940  56.3150560
  24.2044400  52.8333380  56.2128770  14.1884100  50.3892230  46.6437810
  13.8997150  50.9595090  47.3562790  14.9329860  49.9096680  47.0069040
  14.3754330  54.3312350  37.8540530  14.2929000  55.2743110  37.9955520
  14.0237390  54.1887260  36.9752880  25.7375070  56.3897180  48.5158390
  25.0056190  56.8983990  48.8648490  25.3399410  55.5727160  48.2147170
  22.1752460  53.0651380  46.9210880  22.1788520  52.6241330  46.0715420
  23.0703580  53.3868710  47.0282700  18.0254840  52.9477870  45.8805090
  17.6854890  53.4253100  46.6372140  17.2632160  52.4942990  45.5206190
  22.2372610  54.0663460  39.9117640  22.3585430  54.0249940  40.8603460
  21.8521120  54.9287610  39.7564370  26.2000980  51.8430860  47.9281330
  26.2173720  52.2939510  48.7723180  25.9516560  50.9436500  48.1414770
  21.2494110  56.3764600  39.3100940  20.6811010  55.9282850  38.6836850
  21.9583110  56.7357380  38.7766090  29.6271730  49.2563040  53.7667710
  29.9517500  48.5252700  54.2925690  29.6628240  48.9376680  52.8648700
  16.3263290  60.2776620  53.1867670  15.9418080  59.6370290  53.7850630
  16.6375480  60.9812740  53.7562400  22.4760430  57.1253160  48.6676290
  22.8430560  56.6511730  49.4137630  22.2865490  57.9994730  49.0084630
  15.3400920  51.8696850  44.7969760  15.0547840  51.5052520  45.6348380
  15.2779780  51.1377310  44.1832900  20.2659800  56.1661800  50.9860500
  19.9616870  57.0453780  51.2110860  21.2206260  56.2261590  51.0217940
  18.7941590  60.3722790  41.5827350  18.0203850  59.8320410  41.4226070
  19.5236220  59.8529400  41.2445110  29.5529570  59.3688150  47.3753740
  30.2728690  59.8643440  46.9849850  29.3511390  58.6906040  46.7307610
  25.0139510  50.7626110  41.5183130  24.2004120  50.2639280  41.4428440
  24.8201460  51.6024360  41.1019480  24.9348370  59.4397210  53.2622740
  24.8685680  58.5192880  53.0080330  24.3053510  59.5372650  53.9767380
  27.7287900  55.1345760  39.8145290  28.6167520  55.4462990  39.6396630
  27.6992990  54.2618010  39.4225870  18.8378990  60.0403170  45.2206160
  19.3557660  59.2371430  45.1663050  18.3863010  59.9782310  46.0622990
  23.7248490  61.3069450  40.4933460  24.0664190  62.0511680  39.9976780
  22.8961200  61.6200570  40.8558290  16.3223530  57.0064540  52.1331860
  15.9638470  57.6718390  52.7205200  16.0278090  56.1748090  52.5044480
  19.5236650  57.4648780  55.0171410  19.2236790  57.6105960  54.1199230
  20.2947890  56.9054070  54.9244800  24.8665100  62.2617780  53.0126540
  24.8809640  61.3298740  52.7945450  24.1590200  62.3477540  53.6516310
  30.0002170  56.4457600  39.2825150  29.9165890  56.8771820  38.4321590
  30.7196360  56.9055950  39.7151970  31.0776310  58.9025120  52.3595120
  30.3524500  59.4953900  52.1624510  31.6051770  58.8948660  51.5608490
  31.0289420  63.2999860  42.0107280  30.3865580  62.6455480  42.2851000
  30.6420080  63.7054950  41.2347950  26.6075900  60.6285290  45.8578970
  26.9599720  60.0313420  45.1980340  25.7238230  60.3029520  46.0287220
  22.6939180  61.3882980  43.2649380  23.3810310  61.9352190  43.6456970
  21.9071600  61.9323710  43.2998990  14.8331580  57.0055800  38.7566460
  15.7026430  57.2880600  39.0402380  14.3421900  57.8191670  38.6415270
  21.9966390  58.3929010  42.8774740  22.4529170  59.2034260  43.1034930
  21.6454600  58.0752150  43.7093230  24.2999000  63.9035350  50.1067040
  24.9441220  64.1094730  50.7840460  24.6628440  63.1423750  49.6537890
  17.8978170  48.7366660  43.3497260  17.7692800  48.7284560  44.2982180
  17.0740190  49.0749750  42.9988270  25.5731080  61.9067700  48.8244490
  26.2153310  61.2060860  48.9376660  26.0980430  62.6866140  48.6441380
  29.4186800  62.1916320  38.5483630  29.1924380  61.4746760  39.1408270
  29.0283000  61.9428760  37.7105380  27.3468700  62.7062600  52.0280550
  27.6824940  63.2929290  52.7058470  26.4269040  62.5755310  52.2578340
  15.2002830  66.2183180  39.3228090  15.5600470  66.8172520  38.6685360
  15.0595170  66.7643070  40.0963120  14.8972100  50.4957780  52.8103960
  14.1830620  50.6954700  53.4156570  15.3167140  49.7197350  53.1818760
  29.0003050  60.1088260  40.2097790  28.7124750  60.5700950  40.9975670
  29.7955220  59.6486030  40.4782010  15.1844690  64.4838040  53.7970490
  15.2935810  63.5432780  53.6565880  14.5325250  64.7492790  53.1484220
  23.1757280  62.7553930  55.1968610  22.8554150  62.0363170  55.7414300
  22.5015640  63.4309000  55.2704670  21.2171450  63.6014380  40.1401760
  21.2081550  64.3344070  39.5246270  20.2969810  63.3545960  40.2328720
  16.8178090  58.8229270  40.8848520  16.2106040  59.5628170  40.8943820
  17.2927440  58.9128630  40.0586720  26.3910880  52.9880090  50.5605410
  26.7591700  52.1675300  50.8884980  25.5309080  53.0481980  50.9761060
  29.7572910  51.9437030  41.3692970  29.1286070  52.0482700  40.6551200
  29.2624830  52.1633810  42.1586850  24.2031050  63.6642620  38.8026950
  24.3043030  63.4606610  37.8728930  23.3032790  63.4100900  39.0074730
  21.7256940  54.2222980  42.7850850  21.0173090  54.6909320  43.2264460
  22.0101420  53.5644990  43.4196040  23.3512870  55.6419680  50.7843380
  23.8498120  56.1165500  51.4495230  23.4935820  54.7183200  50.9913410
  25.7572370  50.9473640  44.2246640  25.6340150  50.9659770  43.2756150
  26.7056930  50.9952580  44.3445040  22.8449160  66.1828940  43.4974620
  23.0990660  66.1450330  42.5753990  21.8961640  66.0562270  43.4902870
  19.9291960  52.5308060  40.1601560  20.7782490  52.9678210  40.0941750
  19.5623230  52.8428320  40.9873620  30.5579730  51.8587640  51.6271770
  30.0553330  52.5993040  51.9665580  31.3736390  52.2471640  51.3108560
  28.8501740  57.1020820  45.0733130  27.9091880  57.1171050  45.2480820
  29.1645810  56.3156780  45.5193430  18.8283380  58.7840420  38.6337090
  19.5946650  58.6721780  39.1962520  18.9058070  58.0878390  37.9813860
  17.5230140  56.2165490  39.3169980  17.6033730  55.2693000  39.4287380
  18.4149890  56.5472370  39.4230640  30.8527320  64.2729670  46.7487390
  30.9774740  65.0960840  47.2211200  31.7192880  64.0620400  46.4011540
  18.3244850  66.3660880  46.4204520  19.0607330  65.8176340  46.6913090
  18.7085770  67.2316890  46.2810510  15.2090330  62.4334450  42.2946030
  14.2830110  62.6755590  42.2851440  15.6746760  63.2608710  42.1730780
  17.3303130  65.5506950  55.6090100  18.1315860  65.8719000  56.0225500
  16.8154950  65.1902530  56.3310010  21.4347160  65.5391190  38.2430090
  22.2275770  65.8280020  37.7911880  20.9151510  65.1083360  37.5642570
  26.1667760  61.6586820  55.5565510  25.5605920  61.6818420  54.8161260
  25.8621870  60.9269860  56.0932760  27.5968130  65.3867110  54.1674920
  28.5489880  65.3025130  54.1175160  27.4496350  66.0508820  54.8408710
  30.4877330  64.7661320  39.6666830  30.2018840  64.3526460  38.8521010
  30.2896880  65.6949030  39.5467350  15.0500940  58.0380410  54.5526150
  15.5539960  57.4587690  55.1242380  14.3108360  58.3220640  55.0902520
  21.9524560  60.7594600  38.1072440  21.8475200  60.1446950  38.8333820
  21.7848780  60.2360490  37.3235450  22.1038880  59.4451400  54.0861670
  21.3384550  60.0136400  54.0016340  22.2854840  59.1527610  53.1929900
  25.1927290  59.8214630  38.7114430  24.6437390  60.2683930  39.3557170
  25.8146550  59.3163880  39.2352100  29.2462230  61.1756730  54.6436690
  29.9871700  61.5132490  54.1404150  28.4834910  61.3448790  54.0906460
  17.0824020  56.1810000  55.4476220  17.1229360  55.8823870  56.3561450
  17.9369520  56.5817610  55.2883740  20.8602410  58.7805550  40.6079730
  21.2818830  58.6145420  41.4511120  20.9853250  57.9705780  40.1134870
  19.0229830  54.7602100  53.4150710  18.4926290  54.2693050  52.7874050
  19.6917900  55.1886300  52.8808640  23.3730050  57.8043160  37.8556830
  23.8935710  57.0892180  37.4897980  24.0198450  58.4429030  38.1557340
  27.9207890  59.2271560  53.1791900  28.3348910  59.3816640  54.0282320
  26.9858890  59.3526780  53.3417680  28.3930060  56.5667720  55.1831050
  28.9750830  55.8120040  55.0951530  28.5691830  57.0975160  54.4062530
  19.5102130  51.7264470  53.4948000  19.4159000  51.1085220  52.7698870
  18.9299520  52.4530760  53.2677910  22.2763570  50.2837710  50.5275390
  21.8280870  50.3061970  49.6820940  21.6428770  49.8856730  51.1245690
  22.6823120  59.1792040  51.1487830  23.1011230  60.0224770  50.9764070
  21.7631750  59.3164080  50.9194610  25.0187020  56.9108220  52.5325670
  25.1383230  56.3149360  53.2720510  25.8781020  56.9477910  52.1126970
  27.3574920  57.4645410  51.1088180  26.8310140  57.9888030  50.5053320
  27.7006260  58.0972800  51.7397910  19.7561310  54.8538780  37.5537890
  19.5550370  53.9906140  37.9151230  19.5853360  54.7672140  36.6159490
  20.5330540  65.4845050  52.2645560  19.9951630  66.2091110  51.9454260
  20.7864500  65.0075390  51.4742900  21.7855790  53.4529570  53.7901490
  22.3755480  53.1445420  54.4779310  20.9676030  52.9809320  53.9461390
  26.6049220  53.0695380  54.0234510  25.9164740  52.4076920  53.9584500
  27.3255240  52.6233650  54.4682970  27.2349620  49.6647010  40.0824770
  27.5151910  48.8214910  40.4384190  26.4615350  49.8970120  40.5963520
  18.5544110  51.9539400  37.5415770  18.8570010  51.9606830  36.6334920
  19.2938700  51.6037260  38.0383430  23.3892750  66.7196260  52.5232210
  23.3151450  67.6231400  52.8304580  22.4871590  66.4008160  52.4954280
  21.7729040  50.8974020  38.5271970  21.4251040  50.2198010  37.9474420
  21.9741810  50.4363530  39.3415360  23.9378080  65.8854770  40.1458570
  24.8328870  66.2239740  40.1677330  23.9695710  65.1634180  39.5182850
  17.5774240  61.2581820  38.3745570  18.0149110  61.8011490  39.0303150
  18.0621970  60.4328770  38.3841910  14.7920040  64.0470850  45.8265830
  15.1223050  63.1791910  45.5944470  15.2211040  64.2529370  46.6570790
  19.3881960  62.3779860  43.4867800  19.0877500  62.2544830  44.3871710
  19.2819450  61.5188450  43.0783530  15.2810250  64.9141440  48.5647460
  14.8441240  65.0942240  49.3971610  15.8487930  65.6716060  48.4229180
  30.9172430  64.4158440  52.8524770  30.3174420  64.4751000  52.1088690
  31.0466330  63.4763420  52.9821620  32.1573880  62.1576260  38.1894480
  31.3266840  62.2252910  38.6601710  32.3345710  63.0480380  37.8861340
  31.6130340  58.9023740  40.6928680  32.3749250  59.4720390  40.7988370
  31.6284710  58.3350940  41.4636990  15.1134680  57.4261670  44.9236340
  14.4583520  57.1573310  44.2796040  15.9512630  57.3166150  44.4738320
  32.6190310  59.7573840  45.5370610  32.9899140  58.9741160  45.1306580
  33.2592240  60.4462940  45.3587910  29.6024070  61.1410420  50.9500930
  28.7883910  61.5707580  51.2126720  30.0098270  61.7528830  50.3369980
  31.6649510  59.1958110  37.8501200  31.9398350  60.1036990  37.7220420
  31.4760250  59.1320640  38.7863190  28.0625120  52.2202960  39.1454830
  28.4810000  52.0333940  38.3051490  27.7561180  51.3682010  39.4557760
  31.5614850  57.1327100  42.8430630  31.1858450  56.3655030  42.4111920
  30.8317970  57.5149800  43.3305560  16.1510610  57.8114240  49.4639680
  16.5183650  57.7241640  50.3435700  15.5821430  57.0480790  49.3646540
  30.9514470  56.2798620  52.4770150  30.7200560  56.0511370  51.5768100
  31.2119020  57.1998170  52.4315040  15.7026610  54.7223330  53.3698100
  14.8082660  54.6890090  53.7091810  16.2424160  54.9210120  54.1349350
  29.3902540  51.5055050  55.2549850  30.2672720  51.5138450  55.6383850
  29.4023380  50.7685890  54.6442200  14.3272760  54.6360600  40.8661670
  13.4236840  54.8990800  40.6913330  14.8113380  54.9071770  40.0861630
  30.8365810  55.3584590  46.1437870  31.3603290  54.8647240  45.5128040
  31.4225230  55.4934950  46.8885440  31.0155530  55.4424460  49.6657420
  30.0658240  55.4088000  49.7802410  31.1968540  56.3524570  49.4307190
  16.8699970  53.6926140  38.7756050  17.5791670  53.2709360  38.2903330
  16.1539910  53.7601370  38.1439400  16.5174130  49.7465470  37.8158700
  17.2402260  50.2874410  38.1339920  16.7898650  49.4728890  36.9400240
  30.3265780  54.6157940  42.0830280  30.8224900  54.3828810  42.8679160
  30.1281850  53.7769780  41.6667920  16.2066320  48.9971660  47.7181320
  16.8542510  48.4469040  47.2776480  16.6268160  49.2514810  48.5397130
  31.7552940  53.2518890  44.6167960  31.6452220  53.0974930  45.5550230
  32.5160530  52.7239830  44.3743370  30.1018660  49.1913020  51.0750960
  30.7390880  49.8047160  51.4410150  30.2493550  49.2273680  50.1300190
  32.6443210  51.0826810  37.8574100  33.5692520  50.9507990  37.6492390
  32.6219000  51.1619630  38.8110550  32.7181700  51.8537470  40.4830810
  31.9233200  51.7882590  41.0123720  32.9224980  52.7888110  40.4716160
  29.6600120  65.8929020  44.4769200  30.2559190  65.5713590  43.8003620
  29.9178270  65.4200840  45.2682470  15.9598320  49.1527330  50.4606640
  15.6113140  49.6091150  51.2264820  15.6286020  48.2584460  50.5429070
  17.5662690  62.3246930  54.6259830  17.5232320  61.9539840  55.5074290
  17.6973700  63.2624500  54.7661650  21.2668720  63.8806520  50.2269550
  21.0260080  64.1481080  49.3400070  22.2071360  64.0512250  50.2820410
  32.5272880  65.9000900  51.0280190  32.0331160  66.2969770  50.3107320
  31.9186170  65.2750110  51.4217470  16.6318960  48.6803530  53.7357410
  17.1801950  48.4991580  52.9723520  16.6974270  47.8897640  54.2713720
  17.4050720  65.2709180  51.7457610  16.8111040  65.1393880  52.4847650
  17.3974560  64.4347320  51.2799710  26.8505740  48.5641410  49.9487640
  25.9765580  48.8976520  49.7460570  26.7416490  48.0914590  50.7739510
  27.7577720  50.7712280  51.3329360  27.4291080  49.9564040  50.9531090
  28.7060020  50.7282090  51.2095050  30.2112330  66.5424320  48.3066930
  29.7515300  67.2940130  47.9324950  29.5824790  65.8230790  48.2481730
  17.0362950  62.6367560  50.6965650  16.3097010  62.0172850  50.6291600
  17.0972100  63.0308170  49.8263730  20.6408050  64.8512560  47.4815060
  21.1573070  64.2399920  46.9563320  21.2905430  65.3541340  47.9726070
  23.3803550  65.7421050  48.3084040  23.6681360  65.4875350  47.4317050
  23.8926770  65.1898410  48.8989610  24.5980560  49.4811250  48.8880550
  23.8152350  49.9556750  49.1677310  24.3043490  48.5766080  48.7793730
  29.1501630  50.1834350  46.9329640  29.5909720  50.1279450  46.0851240
  28.8809220  51.0992360  47.0039820  31.0140200  49.8149590  44.9438460
  30.9528600  48.8710810  44.7969480  31.7932230  49.9229680  45.4891920
  15.3192950  65.9541950  43.9062410  15.1514990  65.3212630  44.6044300
  14.4527460  66.1601350  43.5556600  15.9420970  49.7858730  41.4094270
  16.7000330  49.8987610  40.8358300  15.4798140  50.6227930  41.3637700
  22.4834780  51.8998000  44.3996580  21.6709290  51.5254890  44.0592460
  22.9876420  51.1443080  44.7017770  26.9859760  48.5640450  45.6379650
  27.5889130  49.1360660  46.1128170  26.2452750  49.1279890  45.4153550
  30.1294360  48.9662010  40.9119930  30.3244990  49.8645460  41.1787360
  29.3424230  48.7349090  41.4052880  16.9255650  64.6475180  41.3512550
  16.4003270  65.0283210  40.6474510  16.8500230  65.2725950  42.0722260
  18.3146120  50.3122780  39.9496240  18.8438880  49.5252580  39.8204190
  18.9474440  50.9913970  40.1831770  20.5083960  50.0497920  43.0041630
  19.8786700  49.3485230  43.1711760  19.9689100  50.8102050  42.7874790
  23.4475910  66.6637150  55.6752240  24.3743220  66.4281420  55.7188200
  23.4326340  67.4909150  55.1938270  31.6820970  66.2062720  42.6726490
  31.8573160  65.5200460  42.0287410  30.9842540  66.7309770  42.2803160
  19.5248620  66.5957560  40.2261800  20.2567440  66.3116840  39.6785690
  19.7842290  66.3570840  41.1161180  18.6863410  62.7122290  40.2308130
  18.0572290  63.1807390  40.7793960  18.8011240  61.8671510  40.6654320
  30.0153470  65.8907010  55.4993280  30.8078790  65.3956240  55.2919240
  30.3086620  66.5697150  56.1068890  26.1413130  56.7627950  26.3809330
  26.0607180  55.8482560  26.1101040  25.7277550  57.2595020  25.6749040
  24.2731170  58.5406970  28.2618600  23.4973270  58.0607410  28.5517170
  24.9244100  57.8612620  28.0874760  18.2897000  58.8526780  29.1394360
  17.4581880  58.5975490  29.5390870  18.8977980  58.9237550  29.8752280
  28.2938600  62.9467160  27.0417730  27.8320130  62.1754400  27.3704900
  29.1064150  62.9733230  27.5470180  18.2698260  62.8866870  29.3352380
  18.5726300  61.9964610  29.1562600  19.0141850  63.4437090  29.1074630
  16.6988950  53.8128670  22.9236750  15.8105650  54.1544640  22.8216630
  16.9830140  53.6128990  22.0317580  14.6621960  56.4134320  28.8076450
  15.2338070  55.6456520  28.8080090  14.6623500  56.7123080  27.8983060
  24.5201910  65.2325170  26.6621720  23.9013350  65.6882670  26.0916160
  25.3753690  65.3876630  26.2611420  23.7140160  61.2164160  28.2688760
  23.6448440  60.2754100  28.1077890  24.4760020  61.3065570  28.8411330
  15.9046830  51.8218680  30.5945380  15.7249670  50.9244430  30.8748140
  15.5026910  52.3690550  31.2692330  24.7445330  54.0234540  28.4957690
  25.1210150  53.1506420  28.3831360  24.6464840  54.3593240  27.6048130
  18.8750340  52.3960170  23.9575130  18.9817090  53.2963900  24.2643890
  17.9642700  52.3478140  23.6669780  28.5269450  51.5184980  25.4286030
  29.3479070  51.0281550  25.4711510  28.5603530  52.1082640  26.1817870
  16.5233500  54.3179180  29.2027720  17.2043610  54.5817550  29.8215120
  16.2081550  53.4780050  29.5365730  20.7158070  55.3646540  28.2900310
  21.2236290  55.8627510  28.9305330  21.2471310  54.5881740  28.1139670
  32.8169000  53.5351730  31.9929660  32.1121170  53.9233440  31.4744770
  33.0826920  54.2302020  32.5950590  18.9994170  50.0045100  32.5563730
  19.0012610  50.5217490  31.7509630  18.1698480  49.5275280  32.5333660
  25.3865260  60.1164410  24.0553630  24.7682530  60.5813860  23.4916350
  25.8988510  60.8091890  24.4723140  20.2497020  59.6440280  30.7337230
  19.9166400  60.2709200  31.3758300  20.4263700  60.1702160  29.9538900
  28.7630930  53.4585360  28.2013570  28.0586500  53.7470250  28.7816680
  29.1243090  54.2685470  27.8413130  18.6809500  51.7155060  30.5634180
  19.0226310  52.5597110  30.2688050  17.7425310  51.8638800  30.6799520
  19.4616120  61.6121080  32.5486410  20.0790120  62.2872160  32.2670860
  18.6009240  62.0209060  32.4573910  14.7548460  60.8020940  21.4293260
  14.3776440  61.2908040  20.6978160  15.0121530  61.4746220  22.0599790
  30.3793710  63.0760490  30.4641050  29.6957230  63.7459600  30.4557720
  30.9188000  63.2741140  29.6985910  31.8317850  52.9040150  28.5922780
  30.8842760  52.9379130  28.7238210  32.1567840  53.7179100  28.9772140
  22.3637390  49.2037330  26.8878770  22.6712370  48.6484220  26.1714270
  21.4338090  49.3381790  26.7051760  27.9152450  64.9204620  29.1786230
  27.9279610  64.5166910  28.3108490  27.3627670  65.6951910  29.0747660
  29.2097870  61.6420840  24.2676400  29.0994200  60.6995170  24.3925820
  29.2066120  62.0036480  25.1539160  27.3137890  59.8234460  30.5068840
  27.7306680  59.6094570  29.6722300  28.0377710  60.0807250  31.0777460
  24.7518150  57.2686160  23.6238890  23.8247430  57.2023540  23.8527360
  24.9042970  58.2066290  23.5094130  24.7387230  53.5403160  20.6206050
  23.7990900  53.7017120  20.7058510  25.0570490  54.2588840  20.0742040
  31.2599990  58.2221680  30.5985080  30.4318620  58.2914770  30.1235210
  31.8550470  58.8075990  30.1300910  28.7815440  58.8306460  24.1274140
  28.1627860  58.4926010  23.4800440  28.7639890  58.1866220  24.8353330
  28.2242000  55.0091000  31.5439950  27.8113180  55.8344710  31.7979940
  27.4917950  54.4236040  31.3516310  20.3574790  57.7950900  26.4058620
  19.9531790  57.0828150  25.9104520  20.4437910  57.4504140  27.2946660
  20.8256490  61.4818460  28.5697830  20.5284780  60.8763930  27.8905610
  21.7756310  61.5195770  28.4587190  19.0703410  54.5694110  30.1857660
  19.6218000  54.6789450  29.4110910  19.5846920  54.9431710  30.9012890
  28.9142100  65.0550330  32.2320930  28.4372660  65.8622520  32.0393540
  28.2303890  64.4028660  32.3847140  19.9174920  61.2200150  35.2205630
  19.0203450  61.4440120  35.4679030  19.9427790  61.3435090  34.2717030
  26.9580140  58.0693270  21.1346890  27.3973420  57.2315700  20.9884710
  27.6708560  58.7022670  21.2211030  18.7446140  58.0913470  33.7963000
  18.6053910  58.9636270  34.1650400  17.8627500  57.7486280  33.6510940
  25.0675520  63.0089340  25.1028130  25.5071430  63.7513670  24.6883520
  25.0062410  63.2515910  26.0267090  20.5426490  64.0335170  36.0048150
  20.5141920  64.4378120  35.1376580  20.3791460  63.1045530  35.8419750
  30.5397280  49.3236080  19.4487930  30.2269940  49.4162910  20.3487000
  31.3009750  49.9017110  19.3985360  17.0579420  56.6895880  23.9065270
  16.9377020  57.4157970  23.2946540  16.7480310  55.9198790  23.4293180
  32.4941310  64.8162270  37.3012320  32.9701030  65.2945160  37.9801400
  33.1148470  64.7479760  36.5757820  14.6964790  59.8611020  29.7133910
  14.7745210  59.9959790  28.7689630  15.3106470  59.1526910  29.9062030
  15.9412420  61.5611210  26.1240090  15.5340500  61.7025800  25.2693690
  16.8325430  61.2771370  25.9211300  31.8974560  62.0075120  34.4612330
  32.0237620  61.7687000  33.5429510  31.9395940  61.1759660  34.9334410
  25.7591300  65.7103120  33.0307140  26.2735970  65.6211130  33.8329570
  24.9160380  66.0562820  33.3235050  27.7345700  65.9958460  22.4591140
  27.5746840  65.7061400  23.3572970  27.5692410  65.2198590  21.9236370
  20.2134080  65.7756990  24.2362760  20.0376560  64.8592530  24.0230560
  19.3589820  66.1344280  24.4760560  27.4371830  63.5046020  21.0189140
  26.7436990  63.5023310  20.3591420  28.1794690  63.0805340  20.5883310
  27.0021760  65.1308730  25.0937630  27.4578710  64.3498110  25.4076250
  27.3414280  65.8415550  25.6378810  31.7498570  54.0607580  35.4262070
  31.1342840  54.5687250  34.8977530  31.4294990  53.1605910  35.3688010
  14.7524310  60.9025190  32.2528370  14.9155350  60.4330550  31.4347740
  15.2176760  60.3948750  32.9177210  19.5243080  50.0330950  27.2888940
  19.0811230  50.8140490  26.9573460  20.0828070  50.3560840  27.9959880
  23.8112890  52.8999470  32.8924260  23.3492260  53.1082490  33.7044200
  23.4091000  52.0858820  32.5894930  28.8117400  54.1208420  34.0220920
  27.9610990  53.8214170  34.3429990  28.6519190  54.3650430  33.1104740
  25.9067110  55.6210170  36.1219710  26.2320520  54.7873920  35.7821940
  26.6947440  56.1438690  36.2698040  22.6401900  49.6541650  22.1694770
  22.0156080  49.6501520  22.8948080  22.5532020  48.7872610  21.7730740
  21.5618980  50.5778280  29.1478540  21.8591310  51.4841110  29.0670560
  22.1104540  50.0897060  28.5338110  19.3157300  55.1564520  25.0170190
  19.0898220  54.9401690  25.9216810  18.5349830  55.5892980  24.6716160
  26.5455060  55.1627890  23.6160840  25.9463950  55.8863690  23.4324460
  27.0934670  55.1004670  22.8337290  21.7556510  56.0550100  35.6830460
  21.6600110  55.1144830  35.5330860  22.5988490  56.2765170  35.2878530
  25.1519930  53.7991430  25.6464120  25.5449500  54.1163630  24.8332810
  25.5136780  52.9203310  25.7608640  16.8867050  52.4663770  33.8364240
  16.4930440  53.3138980  34.0437020  16.1985450  51.8290140  34.0272880
  23.4612100  52.5498740  36.9060980  22.7710420  52.3570940  37.5407070
  24.2044400  52.8333380  37.4385280  14.1884100  50.3892230  27.8694320
  13.8997150  50.9595090  28.5819300  14.9329860  49.9096680  28.2325550
  14.3754330  54.3312350  19.0797040  14.2929000  55.2743110  19.2212030
  14.0237390  54.1887260  18.2009390  25.7375070  56.3897180  29.7414900
  25.0056190  56.8983990  30.0905000  25.3399410  55.5727160  29.4403680
  22.1752460  53.0651380  28.1467390  22.1788520  52.6241330  27.2971930
  23.0703580  53.3868710  28.2539210  18.0254840  52.9477870  27.1061600
  17.6854890  53.4253100  27.8628650  17.2632160  52.4942990  26.7462700
  22.2372610  54.0663460  21.1374150  22.3585430  54.0249940  22.0859970
  21.8521120  54.9287610  20.9820880  26.2000980  51.8430860  29.1537840
  26.2173720  52.2939510  29.9979690  25.9516560  50.9436500  29.3671280
  21.2494110  56.3764600  20.5357450  20.6811010  55.9282850  19.9093360
  21.9583110  56.7357380  20.0022600  29.6271730  49.2563040  34.9924220
  29.9517500  48.5252700  35.5182200  29.6628240  48.9376680  34.0905210
  16.3263290  60.2776620  34.4124180  15.9418080  59.6370290  35.0107140
  16.6375480  60.9812740  34.9818910  22.4760430  57.1253160  29.8932800
  22.8430560  56.6511730  30.6394140  22.2865490  57.9994730  30.2341140
  15.3400920  51.8696850  26.0226270  15.0547840  51.5052520  26.8604890
  15.2779780  51.1377310  25.4089410  20.2659800  56.1661800  32.2117010
  19.9616870  57.0453780  32.4367370  21.2206260  56.2261590  32.2474450
  18.7941590  60.3722790  22.8083860  18.0203850  59.8320410  22.6482580
  19.5236220  59.8529400  22.4701620  29.5529570  59.3688150  28.6010250
  30.2728690  59.8643440  28.2106360  29.3511390  58.6906040  27.9564120
  25.0139510  50.7626110  22.7439640  24.2004120  50.2639280  22.6684950
  24.8201460  51.6024360  22.3275990  24.9348370  59.4397210  34.4879250
  24.8685680  58.5192880  34.2336840  24.3053510  59.5372650  35.2023890
  27.7287900  55.1345760  21.0401800  28.6167520  55.4462990  20.8653140
  27.6992990  54.2618010  20.6482380  18.8378990  60.0403170  26.4462670
  19.3557660  59.2371430  26.3919560  18.3863010  59.9782310  27.2879500
  23.7248490  61.3069450  21.7189970  24.0664190  62.0511680  21.2233290
  22.8961200  61.6200570  22.0814800  16.3223530  57.0064540  33.3588370
  15.9638470  57.6718390  33.9461710  16.0278090  56.1748090  33.7300990
  19.5236650  57.4648780  36.2427920  19.2236790  57.6105960  35.3455740
  20.2947890  56.9054070  36.1501310  24.8665100  62.2617780  34.2383050
  24.8809640  61.3298740  34.0201960  24.1590200  62.3477540  34.8772820
  30.0002170  56.4457600  20.5081660  29.9165890  56.8771820  19.6578100
  30.7196360  56.9055950  20.9408480  31.0776310  58.9025120  33.5851630
  30.3524500  59.4953900  33.3881020  31.6051770  58.8948660  32.7865000
  31.0289420  63.2999860  23.2363790  30.3865580  62.6455480  23.5107510
  30.6420080  63.7054950  22.4604460  26.6075900  60.6285290  27.0835480
  26.9599720  60.0313420  26.4236850  25.7238230  60.3029520  27.2543730
  22.6939180  61.3882980  24.4905890  23.3810310  61.9352190  24.8713480
  21.9071600  61.9323710  24.5255500  14.8331580  57.0055800  19.9822970
  15.7026430  57.2880600  20.2658890  14.3421900  57.8191670  19.8671780
  21.9966390  58.3929010  24.1031250  22.4529170  59.2034260  24.3291440
  21.6454600  58.0752150  24.9349740  24.2999000  63.9035350  31.3323550
  24.9441220  64.1094730  32.0096970  24.6628440  63.1423750  30.8794400
  17.8978170  48.7366660  24.5753770  17.7692800  48.7284560  25.5238690
  17.0740190  49.0749750  24.2244780  25.5731080  61.9067700  30.0501000
  26.2153310  61.2060860  30.1633170  26.0980430  62.6866140  29.8697890
  29.4186800  62.1916320  19.7740140  29.1924380  61.4746760  20.3664780
  29.0283000  61.9428760  18.9361890  27.3468700  62.7062600  33.2537060
  27.6824940  63.2929290  33.9314980  26.4269040  62.5755310  33.4834850
  15.2002830  66.2183180  20.5484600  15.5600470  66.8172520  19.8941870
  15.0595170  66.7643070  21.3219630  14.8972100  50.4957780  34.0360470
  14.1830620  50.6954700  34.6413080  15.3167140  49.7197350  34.4075270
  29.0003050  60.1088260  21.4354300  28.7124750  60.5700950  22.2232180
  29.7955220  59.6486030  21.7038520  15.1844690  64.4838040  35.0227000
  15.2935810  63.5432780  34.8822390  14.5325250  64.7492790  34.3740730
  23.1757280  62.7553930  36.4225120  22.8554150  62.0363170  36.9670810
  22.5015640  63.4309000  36.4961180  21.2171450  63.6014380  21.3658270
  21.2081550  64.3344070  20.7502780  20.2969810  63.3545960  21.4585230
  16.8178090  58.8229270  22.1105030  16.2106040  59.5628170  22.1200330
  17.2927440  58.9128630  21.2843230  26.3910880  52.9880090  31.7861920
  26.7591700  52.1675300  32.1141490  25.5309080  53.0481980  32.2017570
  29.7572910  51.9437030  22.5949480  29.1286070  52.0482700  21.8807710
  29.2624830  52.1633810  23.3843360  24.2031050  63.6642620  20.0283460
  24.3043030  63.4606610  19.0985440  23.3032790  63.4100900  20.2331240
  21.7256940  54.2222980  24.0107360  21.0173090  54.6909320  24.4520970
  22.0101420  53.5644990  24.6452550  23.3512870  55.6419680  32.0099890
  23.8498120  56.1165500  32.6751740  23.4935820  54.7183200  32.2169920
  25.7572370  50.9473640  25.4503150  25.6340150  50.9659770  24.5012660
  26.7056930  50.9952580  25.5701550  22.8449160  66.1828940  24.7231130
  23.0990660  66.1450330  23.8010500  21.8961640  66.0562270  24.7159380
  19.9291960  52.5308060  21.3858070  20.7782490  52.9678210  21.3198260
  19.5623230  52.8428320  22.2130130  30.5579730  51.8587640  32.8528280
  30.0553330  52.5993040  33.1922090  31.3736390  52.2471640  32.5365070
  28.8501740  57.1020820  26.2989640  27.9091880  57.1171050  26.4737330
  29.1645810  56.3156780  26.7449940  18.8283380  58.7840420  19.8593600
  19.5946650  58.6721780  20.4219030  18.9058070  58.0878390  19.2070370
  17.5230140  56.2165490  20.5426490  17.6033730  55.2693000  20.6543890
  18.4149890  56.5472370  20.6487150  30.8527320  64.2729670  27.9743900
  30.9774740  65.0960840  28.4467710  31.7192880  64.0620400  27.6268050
  18.3244850  66.3660880  27.6461030  19.0607330  65.8176340  27.9169600
  18.7085770  67.2316890  27.5067020  15.2090330  62.4334450  23.5202540
  14.2830110  62.6755590  23.5107950  15.6746760  63.2608710  23.3987290
  17.3303130  65.5506950  36.8346610  18.1315860  65.8719000  37.2482010
  16.8154950  65.1902530  37.5566520  21.4347160  65.5391190  19.4686600
  22.2275770  65.8280020  19.0168390  20.9151510  65.1083360  18.7899080
  26.1667760  61.6586820  36.7822020  25.5605920  61.6818420  36.0417770
  25.8621870  60.9269860  37.3189270  27.5968130  65.3867110  35.3931430
  28.5489880  65.3025130  35.3431670  27.4496350  66.0508820  36.0665220
  30.4877330  64.7661320  20.8923340  30.2018840  64.3526460  20.0777520
  30.2896880  65.6949030  20.7723860  15.0500940  58.0380410  35.7782660
  15.5539960  57.4587690  36.3498890  14.3108360  58.3220640  36.3159030
  21.9524560  60.7594600  19.3328950  21.8475200  60.1446950  20.0590330
  21.7848780  60.2360490  18.5491960  22.1038880  59.4451400  35.3118180
  21.3384550  60.0136400  35.2272850  22.2854840  59.1527610  34.4186410
  25.1927290  59.8214630  19.9370940  24.6437390  60.2683930  20.5813680
  25.8146550  59.3163880  20.4608610  29.2462230  61.1756730  35.8693200
  29.9871700  61.5132490  35.3660660  28.4834910  61.3448790  35.3162970
  17.0824020  56.1810000  36.6732730  17.1229360  55.8823870  37.5817960
  17.9369520  56.5817610  36.5140250  20.8602410  58.7805550  21.8336240
  21.2818830  58.6145420  22.6767630  20.9853250  57.9705780  21.3391380
  19.0229830  54.7602100  34.6407220  18.4926290  54.2693050  34.0130560
  19.6917900  55.1886300  34.1065150  23.3730050  57.8043160  19.0813340
  23.8935710  57.0892180  18.7154490  24.0198450  58.4429030  19.3813850
  27.9207890  59.2271560  34.4048410  28.3348910  59.3816640  35.2538830
  26.9858890  59.3526780  34.5674190  28.3930060  56.5667720  36.4087560
  28.9750830  55.8120040  36.3208040  28.5691830  57.0975160  35.6319040
  19.5102130  51.7264470  34.7204510  19.4159000  51.1085220  33.9955380
  18.9299520  52.4530760  34.4934420  22.2763570  50.2837710  31.7531900
  21.8280870  50.3061970  30.9077450  21.6428770  49.8856730  32.3502200
  22.6823120  59.1792040  32.3744340  23.1011230  60.0224770  32.2020580
  21.7631750  59.3164080  32.1451120  25.0187020  56.9108220  33.7582180
  25.1383230  56.3149360  34.4977020  25.8781020  56.9477910  33.3383480
  27.3574920  57.4645410  32.3344690  26.8310140  57.9888030  31.7309830
  27.7006260  58.0972800  32.9654420  19.7561310  54.8538780  18.7794400
  19.5550370  53.9906140  19.1407740  19.5853360  54.7672140  17.8416000
  20.5330540  65.4845050  33.4902070  19.9951630  66.2091110  33.1710770
  20.7864500  65.0075390  32.6999410  21.7855790  53.4529570  35.0158000
  22.3755480  53.1445420  35.7035820  20.9676030  52.9809320  35.1717900
  26.6049220  53.0695380  35.2491020  25.9164740  52.4076920  35.1841010
  27.3255240  52.6233650  35.6939480  27.2349620  49.6647010  21.3081280
  27.5151910  48.8214910  21.6640700  26.4615350  49.8970120  21.8220030
  18.5544110  51.9539400  18.7672280  18.8570010  51.9606830  17.8591430
  19.2938700  51.6037260  19.2639940  23.3892750  66.7196260  33.7488720
  23.3151450  67.6231400  34.0561090  22.4871590  66.4008160  33.7210790
  21.7729040  50.8974020  19.7528480  21.4251040  50.2198010  19.1730930
  21.9741810  50.4363530  20.5671870  23.9378080  65.8854770  21.3715080
  24.8328870  66.2239740  21.3933840  23.9695710  65.1634180  20.7439360
  17.5774240  61.2581820  19.6002080  18.0149110  61.8011490  20.2559660
  18.0621970  60.4328770  19.6098420  14.7920040  64.0470850  27.0522340
  15.1223050  63.1791910  26.8200980  15.2211040  64.2529370  27.8827300
  19.3881960  62.3779860  24.7124310  19.0877500  62.2544830  25.6128220
  19.2819450  61.5188450  24.3040040  15.2810250  64.9141440  29.7903970
  14.8441240  65.0942240  30.6228120  15.8487930  65.6716060  29.6485690
  30.9172430  64.4158440  34.0781280  30.3174420  64.4751000  33.3345200
  31.0466330  63.4763420  34.2078130  32.1573880  62.1576260  19.4150990
  31.3266840  62.2252910  19.8858220  32.3345710  63.0480380  19.1117850
  31.6130340  58.9023740  21.9185190  32.3749250  59.4720390  22.0244880
  31.6284710  58.3350940  22.6893500  15.1134680  57.4261670  26.1492850
  14.4583520  57.1573310  25.5052550  15.9512630  57.3166150  25.6994830
  32.6190310  59.7573840  26.7627120  32.9899140  58.9741160  26.3563090
  33.2592240  60.4462940  26.5844420  29.6024070  61.1410420  32.1757440
  28.7883910  61.5707580  32.4383230  30.0098270  61.7528830  31.5626490
  31.6649510  59.1958110  19.0757710  31.9398350  60.1036990  18.9476930
  31.4760250  59.1320640  20.0119700  28.0625120  52.2202960  20.3711340
  28.4810000  52.0333940  19.5308000  27.7561180  51.3682010  20.6814270
  31.5614850  57.1327100  24.0687140  31.1858450  56.3655030  23.6368430
  30.8317970  57.5149800  24.5562070  16.1510610  57.8114240  30.6896190
  16.5183650  57.7241640  31.5692210  15.5821430  57.0480790  30.5903050
  30.9514470  56.2798620  33.7026660  30.7200560  56.0511370  32.8024610
  31.2119020  57.1998170  33.6571550  15.7026610  54.7223330  34.5954610
  14.8082660  54.6890090  34.9348320  16.2424160  54.9210120  35.3605860
  29.3902540  51.5055050  36.4806360  30.2672720  51.5138450  36.8640360
  29.4023380  50.7685890  35.8698710  14.3272760  54.6360600  22.0918180
  13.4236840  54.8990800  21.9169840  14.8113380  54.9071770  21.3118140
  30.8365810  55.3584590  27.3694380  31.3603290  54.8647240  26.7384550
  31.4225230  55.4934950  28.1141950  31.0155530  55.4424460  30.8913930
  30.0658240  55.4088000  31.0058920  31.1968540  56.3524570  30.6563700
  16.8699970  53.6926140  20.0012560  17.5791670  53.2709360  19.5159840
  16.1539910  53.7601370  19.3695910  16.5174130  49.7465470  19.0415210
  17.2402260  50.2874410  19.3596430  16.7898650  49.4728890  18.1656750
  30.3265780  54.6157940  23.3086790  30.8224900  54.3828810  24.0935670
  30.1281850  53.7769780  22.8924430  16.2066320  48.9971660  28.9437830
  16.8542510  48.4469040  28.5032990  16.6268160  49.2514810  29.7653640
  31.7552940  53.2518890  25.8424470  31.6452220  53.0974930  26.7806740
  32.5160530  52.7239830  25.5999880  30.1018660  49.1913020  32.3007470
  30.7390880  49.8047160  32.6666660  30.2493550  49.2273680  31.3556700
  32.6443210  51.0826810  19.0830610  33.5692520  50.9507990  18.8748900
  32.6219000  51.1619630  20.0367060  32.7181700  51.8537470  21.7087320
  31.9233200  51.7882590  22.2380230  32.9224980  52.7888110  21.6972670
  29.6600120  65.8929020  25.7025710  30.2559190  65.5713590  25.0260130
  29.9178270  65.4200840  26.4938980  15.9598320  49.1527330  31.6863150
  15.6113140  49.6091150  32.4521330  15.6286020  48.2584460  31.7685580
  17.5662690  62.3246930  35.8516340  17.5232320  61.9539840  36.7330800
  17.6973700  63.2624500  35.9918160  21.2668720  63.8806520  31.4526060
  21.0260080  64.1481080  30.5656580  22.2071360  64.0512250  31.5076920
  23.4723140  50.3439210  35.2082570  23.4112030  50.9361040  35.9577980
  24.4123520  50.2365170  35.0632830  26.1097700  50.0009270  34.8474860
  26.7238110  50.3188560  34.1855940  26.6547260  49.5157860  35.4670720
  32.5272880  65.9000900  32.2536700  32.0331160  66.2969770  31.5363830
  31.9186170  65.2750110  32.6473980  16.6318960  48.6803530  34.9613920
  17.1801950  48.4991580  34.1980030  16.6974270  47.8897640  35.4970230
  17.4050720  65.2709180  32.9714120  16.8111040  65.1393880  33.7104160
  17.3974560  64.4347320  32.5056220  26.8505740  48.5641410  31.1744150
  25.9765580  48.8976520  30.9717080  26.7416490  48.0914590  31.9996020
  27.7577720  50.7712280  32.5585870  27.4291080  49.9564040  32.1787600
  28.7060020  50.7282090  32.4351560  30.2112330  66.5424320  29.5323440
  29.7515300  67.2940130  29.1581460  29.5824790  65.8230790  29.4738240
  17.0362950  62.6367560  31.9222160  16.3097010  62.0172850  31.8548110
  17.0972100  63.0308170  31.0520240  20.6408050  64.8512560  28.7071570
  21.1573070  64.2399920  28.1819830  21.2905430  65.3541340  29.1982580
  23.3803550  65.7421050  29.5340550  23.6681360  65.4875350  28.6573560
  23.8926770  65.1898410  30.1246120  24.5980560  49.4811250  30.1137060
  23.8152350  49.9556750  30.3933820  24.3043490  48.5766080  30.0050240
  29.1501630  50.1834350  28.1586150  29.5909720  50.1279450  27.3107750
  28.8809220  51.0992360  28.2296330  31.0140200  49.8149590  26.1694970
  30.9528600  48.8710810  26.0225990  31.7932230  49.9229680  26.7148430
  15.3192950  65.9541950  25.1318920  15.1514990  65.3212630  25.8300810
  14.4527460  66.1601350  24.7813110  15.9420970  49.7858730  22.6350780
  16.7000330  49.8987610  22.0614810  15.4798140  50.6227930  22.5894210
  22.4834780  51.8998000  25.6253090  21.6709290  51.5254890  25.2848970
  22.9876420  51.1443080  25.9274280  26.9859760  48.5640450  26.8636160
  27.5889130  49.1360660  27.3384680  26.2452750  49.1279890  26.6410060
  30.1294360  48.9662010  22.1376440  30.3244990  49.8645460  22.4043870
  29.3424230  48.7349090  22.6309390  16.9255650  64.6475180  22.5769060
  16.4003270  65.0283210  21.8731020  16.8500230  65.2725950  23.2978770
  18.3146120  50.3122780  21.1752750  18.8438880  49.5252580  21.0460700
  18.9474440  50.9913970  21.4088280  20.5083960  50.0497920  24.2298140
  19.8786700  49.3485230  24.3968270  19.9689100  50.8102050  24.0131300
  23.4475910  66.6637150  36.9008750  24.3743220  66.4281420  36.9444710
  23.4326340  67.4909150  36.4194780  31.6820970  66.2062720  23.8983000
  31.8573160  65.5200460  23.2543920  30.9842540  66.7309770  23.5059670
  20.6339520  49.3281900  36.6650630  20.3523790  49.8315500  35.9011450
  21.0159220  48.5303650  36.2992760  19.5248620  66.5957560  21.4518310
  20.2567440  66.3116840  20.9042200  19.7842290  66.3570840  22.3417690
  18.6863410  62.7122290  21.4564640  18.0572290  63.1807390  22.0050470
  18.8011240  61.8671510  21.8910830  27.2354980  48.7435480  37.2431100
  27.1220430  49.0630090  38.1382620  28.0524720  49.1447990  36.9468380
  30.0153470  65.8907010  36.7249790  30.8078790  65.3956240  36.5175750
  30.3086620  66.5697150  37.3325400  26.1413130  56.7627950   7.6065840
  26.0607180  55.8482560   7.3357550  25.7277550  57.2595020   6.9005550
  24.2731170  58.5406970   9.4875110  23.4973270  58.0607410   9.7773680
  24.9244100  57.8612620   9.3131270  18.2897000  58.8526780  10.3650870
  17.4581880  58.5975490  10.7647380  18.8977980  58.9237550  11.1008790
  28.2938600  62.9467160   8.2674240  27.8320130  62.1754400   8.5961410
  29.1064150  62.9733230   8.7726690  18.2698260  62.8866870  10.5608890
  18.5726300  61.9964610  10.3819110  19.0141850  63.4437090  10.3331140
  16.6988950  53.8128670   4.1493260  15.8105650  54.1544640   4.0473140
  16.9830140  53.6128990   3.2574090  14.6621960  56.4134320  10.0332960
  15.2338070  55.6456520  10.0336600  14.6623500  56.7123080   9.1239570
  24.5201910  65.2325170   7.8878230  23.9013350  65.6882670   7.3172670
  25.3753690  65.3876630   7.4867930  23.7140160  61.2164160   9.4945270
  23.6448440  60.2754100   9.3334400  24.4760020  61.3065570  10.0667840
  15.9046830  51.8218680  11.8201890  15.7249670  50.9244430  12.1004650
  15.5026910  52.3690550  12.4948840  24.7445330  54.0234540   9.7214200
  25.1210150  53.1506420   9.6087870  24.6464840  54.3593240   8.8304640
  18.8750340  52.3960170   5.1831640  18.9817090  53.2963900   5.4900400
  17.9642700  52.3478140   4.8926290  28.5269450  51.5184980   6.6542540
  29.3479070  51.0281550   6.6968020  28.5603530  52.1082640   7.4074380
  16.5233500  54.3179180  10.4284230  17.2043610  54.5817550  11.0471630
  16.2081550  53.4780050  10.7622240  20.7158070  55.3646540   9.5156820
  21.2236290  55.8627510  10.1561840  21.2471310  54.5881740   9.3396180
  32.8169000  53.5351730  13.2186170  32.1121170  53.9233440  12.7001280
  33.0826920  54.2302020  13.8207100  18.9994170  50.0045100  13.7820240
  19.0012610  50.5217490  12.9766140  18.1698480  49.5275280  13.7590170
  25.3865260  60.1164410   5.2810140  24.7682530  60.5813860   4.7172860
  25.8988510  60.8091890   5.6979650  20.2497020  59.6440280  11.9593740
  19.9166400  60.2709200  12.6014810  20.4263700  60.1702160  11.1795410
  28.7630930  53.4585360   9.4270080  28.0586500  53.7470250  10.0073190
  29.1243090  54.2685470   9.0669640  18.6809500  51.7155060  11.7890690
  19.0226310  52.5597110  11.4944560  17.7425310  51.8638800  11.9056030
  19.4616120  61.6121080  13.7742920  20.0790120  62.2872160  13.4927370
  18.6009240  62.0209060  13.6830420  14.7548460  60.8020940   2.6549770
  14.3776440  61.2908040   1.9234670  15.0121530  61.4746220   3.2856300
  30.3793710  63.0760490  11.6897560  29.6957230  63.7459600  11.6814230
  30.9188000  63.2741140  10.9242420  31.8317850  52.9040150   9.8179290
  30.8842760  52.9379130   9.9494720  32.1567840  53.7179100  10.2028650
  22.3637390  49.2037330   8.1135280  22.6712370  48.6484220   7.3970780
  21.4338090  49.3381790   7.9308270  27.9152450  64.9204620  10.4042740
  27.9279610  64.5166910   9.5365000  27.3627670  65.6951910  10.3004170
  29.2097870  61.6420840   5.4932910  29.0994200  60.6995170   5.6182330
  29.2066120  62.0036480   6.3795670  27.3137890  59.8234460  11.7325350
  27.7306680  59.6094570  10.8978810  28.0377710  60.0807250  12.3033970
  24.7518150  57.2686160   4.8495400  23.8247430  57.2023540   5.0783870
  24.9042970  58.2066290   4.7350640  24.7387230  53.5403160   1.8462560
  23.7990900  53.7017120   1.9315020  25.0570490  54.2588840   1.2998550
  31.2599990  58.2221680  11.8241590  30.4318620  58.2914770  11.3491720
  31.8550470  58.8075990  11.3557420  28.7815440  58.8306460   5.3530650
  28.1627860  58.4926010   4.7056950  28.7639890  58.1866220   6.0609840
  28.2242000  55.0091000  12.7696460  27.8113180  55.8344710  13.0236450
  27.4917950  54.4236040  12.5772820  20.3574790  57.7950900   7.6315130
  19.9531790  57.0828150   7.1361030  20.4437910  57.4504140   8.5203170
  20.8256490  61.4818460   9.7954340  20.5284780  60.8763930   9.1162120
  21.7756310  61.5195770   9.6843700  19.0703410  54.5694110  11.4114170
  19.6218000  54.6789450  10.6367420  19.5846920  54.9431710  12.1269400
  28.9142100  65.0550330  13.4577440  28.4372660  65.8622520  13.2650050
  28.2303890  64.4028660  13.6103650  19.9174920  61.2200150  16.4462140
  19.0203450  61.4440120  16.6935540  19.9427790  61.3435090  15.4973540
  26.9580140  58.0693270   2.3603400  27.3973420  57.2315700   2.2141220
  27.6708560  58.7022670   2.4467540  18.7446140  58.0913470  15.0219510
  18.6053910  58.9636270  15.3906910  17.8627500  57.7486280  14.8767450
  25.0675520  63.0089340   6.3284640  25.5071430  63.7513670   5.9140030
  25.0062410  63.2515910   7.2523600  20.5426490  64.0335170  17.2304660
  20.5141920  64.4378120  16.3633090  20.3791460  63.1045530  17.0676260
  17.0579420  56.6895880   5.1321780  16.9377020  57.4157970   4.5203050
  16.7480310  55.9198790   4.6549690  32.4941310  64.8162270  18.5268830
  32.9701030  65.2945160  19.2057910  33.1148470  64.7479760  17.8014330
  14.6964790  59.8611020  10.9390420  14.7745210  59.9959790   9.9946140
  15.3106470  59.1526910  11.1318540  15.9412420  61.5611210   7.3496600
  15.5340500  61.7025800   6.4950200  16.8325430  61.2771370   7.1467810
  31.8974560  62.0075120  15.6868840  32.0237620  61.7687000  14.7686020
  31.9395940  61.1759660  16.1590920  25.7591300  65.7103120  14.2563650
  26.2735970  65.6211130  15.0586080  24.9160380  66.0562820  14.5491560
  27.7345700  65.9958460   3.6847650  27.5746840  65.7061400   4.5829480
  27.5692410  65.2198590   3.1492880  20.2134080  65.7756990   5.4619270
  20.0376560  64.8592530   5.2487070  19.3589820  66.1344280   5.7017070
  27.4371830  63.5046020   2.2445650  26.7436990  63.5023310   1.5847930
  28.1794690  63.0805340   1.8139820  27.0021760  65.1308730   6.3194140
  27.4578710  64.3498110   6.6332760  27.3414280  65.8415550   6.8635320
  31.7498570  54.0607580  16.6518580  31.1342840  54.5687250  16.1234040
  31.4294990  53.1605910  16.5944520  14.7524310  60.9025190  13.4784880
  14.9155350  60.4330550  12.6604250  15.2176760  60.3948750  14.1433720
  19.5243080  50.0330950   8.5145450  19.0811230  50.8140490   8.1829970
  20.0828070  50.3560840   9.2216390  23.8112890  52.8999470  14.1180770
  23.3492260  53.1082490  14.9300710  23.4091000  52.0858820  13.8151440
  28.8117400  54.1208420  15.2477430  27.9610990  53.8214170  15.5686500
  28.6519190  54.3650430  14.3361250  25.9067110  55.6210170  17.3476220
  26.2320520  54.7873920  17.0078450  26.6947440  56.1438690  17.4954550
  22.6401900  49.6541650   3.3951280  22.0156080  49.6501520   4.1204590
  22.5532020  48.7872610   2.9987250  21.5618980  50.5778280  10.3735050
  21.8591310  51.4841110  10.2927070  22.1104540  50.0897060   9.7594620
  19.3157300  55.1564520   6.2426700  19.0898220  54.9401690   7.1473320
  18.5349830  55.5892980   5.8972670  26.5455060  55.1627890   4.8417350
  25.9463950  55.8863690   4.6580970  27.0934670  55.1004670   4.0593800
  21.7556510  56.0550100  16.9086970  21.6600110  55.1144830  16.7587370
  22.5988490  56.2765170  16.5135040  25.1519930  53.7991430   6.8720630
  25.5449500  54.1163630   6.0589320  25.5136780  52.9203310   6.9865150
  16.8867050  52.4663770  15.0620750  16.4930440  53.3138980  15.2693530
  16.1985450  51.8290140  15.2529390  23.4612100  52.5498740  18.1317490
  22.7710420  52.3570940  18.7663580  24.2044400  52.8333380  18.6641790
  14.1884100  50.3892230   9.0950830  13.8997150  50.9595090   9.8075810
  14.9329860  49.9096680   9.4582060  25.7375070  56.3897180  10.9671410
  25.0056190  56.8983990  11.3161510  25.3399410  55.5727160  10.6660190
  22.1752460  53.0651380   9.3723900  22.1788520  52.6241330   8.5228440
  23.0703580  53.3868710   9.4795720  18.0254840  52.9477870   8.3318110
  17.6854890  53.4253100   9.0885160  17.2632160  52.4942990   7.9719210
  22.2372610  54.0663460   2.3630660  22.3585430  54.0249940   3.3116480
  21.8521120  54.9287610   2.2077390  26.2000980  51.8430860  10.3794350
  26.2173720  52.2939510  11.2236200  25.9516560  50.9436500  10.5927790
  29.6271730  49.2563040  16.2180730  29.9517500  48.5252700  16.7438710
  29.6628240  48.9376680  15.3161720  16.3263290  60.2776620  15.6380690
  15.9418080  59.6370290  16.2363650  16.6375480  60.9812740  16.2075420
  22.4760430  57.1253160  11.1189310  22.8430560  56.6511730  11.8650650
  22.2865490  57.9994730  11.4597650  15.3400920  51.8696850   7.2482780
  15.0547840  51.5052520   8.0861400  15.2779780  51.1377310   6.6345920
  20.2659800  56.1661800  13.4373520  19.9616870  57.0453780  13.6623880
  21.2206260  56.2261590  13.4730960  18.7941590  60.3722790   4.0340370
  18.0203850  59.8320410   3.8739090  19.5236220  59.8529400   3.6958130
  29.5529570  59.3688150   9.8266760  30.2728690  59.8643440   9.4362870
  29.3511390  58.6906040   9.1820630  25.0139510  50.7626110   3.9696150
  24.2004120  50.2639280   3.8941460  24.8201460  51.6024360   3.5532500
  24.9348370  59.4397210  15.7135760  24.8685680  58.5192880  15.4593350
  24.3053510  59.5372650  16.4280400  27.7287900  55.1345760   2.2658310
  28.6167520  55.4462990   2.0909650  27.6992990  54.2618010   1.8738890
  18.8378990  60.0403170   7.6719180  19.3557660  59.2371430   7.6176070
  18.3863010  59.9782310   8.5136010  23.7248490  61.3069450   2.9446480
  24.0664190  62.0511680   2.4489800  22.8961200  61.6200570   3.3071310
  16.3223530  57.0064540  14.5844880  15.9638470  57.6718390  15.1718220
  16.0278090  56.1748090  14.9557500  19.5236650  57.4648780  17.4684430
  19.2236790  57.6105960  16.5712250  20.2947890  56.9054070  17.3757820
  24.8665100  62.2617780  15.4639560  24.8809640  61.3298740  15.2458470
  24.1590200  62.3477540  16.1029330  31.0776310  58.9025120  14.8108140
  30.3524500  59.4953900  14.6137530  31.6051770  58.8948660  14.0121510
  31.0289420  63.2999860   4.4620300  30.3865580  62.6455480   4.7364020
  30.6420080  63.7054950   3.6860970  26.6075900  60.6285290   8.3091990
  26.9599720  60.0313420   7.6493360  25.7238230  60.3029520   8.4800240
  22.6939180  61.3882980   5.7162400  23.3810310  61.9352190   6.0969990
  21.9071600  61.9323710   5.7512010  21.9966390  58.3929010   5.3287760
  22.4529170  59.2034260   5.5547950  21.6454600  58.0752150   6.1606250
  24.2999000  63.9035350  12.5580060  24.9441220  64.1094730  13.2353480
  24.6628440  63.1423750  12.1050910  17.8978170  48.7366660   5.8010280
  17.7692800  48.7284560   6.7495200  17.0740190  49.0749750   5.4501290
  25.5731080  61.9067700  11.2757510  26.2153310  61.2060860  11.3889680
  26.0980430  62.6866140  11.0954400  27.3468700  62.7062600  14.4793570
  27.6824940  63.2929290  15.1571490  26.4269040  62.5755310  14.7091360
  14.8972100  50.4957780  15.2616980  14.1830620  50.6954700  15.8669590
  15.3167140  49.7197350  15.6331780  29.0003050  60.1088260   2.6610810
  28.7124750  60.5700950   3.4488690  29.7955220  59.6486030   2.9295030
  15.1844690  64.4838040  16.2483510  15.2935810  63.5432780  16.1078900
  14.5325250  64.7492790  15.5997240  23.1757280  62.7553930  17.6481630
  22.8554150  62.0363170  18.1927320  22.5015640  63.4309000  17.7217690
  21.2171450  63.6014380   2.5914780  21.2081550  64.3344070   1.9759290
  20.2969810  63.3545960   2.6841740  16.8178090  58.8229270   3.3361540
  16.2106040  59.5628170   3.3456840  17.2927440  58.9128630   2.5099740
  26.3910880  52.9880090  13.0118430  26.7591700  52.1675300  13.3398000
  25.5309080  53.0481980  13.4274080  29.7572910  51.9437030   3.8205990
  29.1286070  52.0482700   3.1064220  29.2624830  52.1633810   4.6099870
  21.7256940  54.2222980   5.2363870  21.0173090  54.6909320   5.6777480
  22.0101420  53.5644990   5.8709060  23.3512870  55.6419680  13.2356400
  23.8498120  56.1165500  13.9008250  23.4935820  54.7183200  13.4426430
  25.7572370  50.9473640   6.6759660  25.6340150  50.9659770   5.7269170
  26.7056930  50.9952580   6.7958060  22.8449160  66.1828940   5.9487640
  23.0990660  66.1450330   5.0267010  21.8961640  66.0562270   5.9415890
  19.9291960  52.5308060   2.6114580  20.7782490  52.9678210   2.5454770
  19.5623230  52.8428320   3.4386640  30.5579730  51.8587640  14.0784790
  30.0553330  52.5993040  14.4178600  31.3736390  52.2471640  13.7621580
  28.8501740  57.1020820   7.5246150  27.9091880  57.1171050   7.6993840
  29.1645810  56.3156780   7.9706450  17.5230140  56.2165490   1.7683000
  17.6033730  55.2693000   1.8800400  18.4149890  56.5472370   1.8743660
  30.8527320  64.2729670   9.2000410  30.9774740  65.0960840   9.6724220
  31.7192880  64.0620400   8.8524560  18.3244850  66.3660880   8.8717540
  19.0607330  65.8176340   9.1426110  18.7085770  67.2316890   8.7323530
  15.2090330  62.4334450   4.7459050  14.2830110  62.6755590   4.7364460
  15.6746760  63.2608710   4.6243800  17.3303130  65.5506950  18.0603120
  18.1315860  65.8719000  18.4738520  16.8154950  65.1902530  18.7823030
  26.1667760  61.6586820  18.0078530  25.5605920  61.6818420  17.2674280
  25.8621870  60.9269860  18.5445780  27.5968130  65.3867110  16.6187940
  28.5489880  65.3025130  16.5688180  27.4496350  66.0508820  17.2921730
  30.4877330  64.7661320   2.1179850  30.2018840  64.3526460   1.3034030
  30.2896880  65.6949030   1.9980370  15.0500940  58.0380410  17.0039170
  15.5539960  57.4587690  17.5755400  14.3108360  58.3220640  17.5415540
  22.1038880  59.4451400  16.5374690  21.3384550  60.0136400  16.4529360
  22.2854840  59.1527610  15.6442920  29.2462230  61.1756730  17.0949710
  29.9871700  61.5132490  16.5917170  28.4834910  61.3448790  16.5419480
  17.0824020  56.1810000  17.8989240  17.1229360  55.8823870  18.8074470
  17.9369520  56.5817610  17.7396760  20.8602410  58.7805550   3.0592750
  21.2818830  58.6145420   3.9024140  20.9853250  57.9705780   2.5647890
  19.0229830  54.7602100  15.8663730  18.4926290  54.2693050  15.2387070
  19.6917900  55.1886300  15.3321660  27.9207890  59.2271560  15.6304920
  28.3348910  59.3816640  16.4795340  26.9858890  59.3526780  15.7930700
  28.3930060  56.5667720  17.6344070  28.9750830  55.8120040  17.5464550
  28.5691830  57.0975160  16.8575550  19.5102130  51.7264470  15.9461020
  19.4159000  51.1085220  15.2211890  18.9299520  52.4530760  15.7190930
  22.2763570  50.2837710  12.9788410  21.8280870  50.3061970  12.1333960
  21.6428770  49.8856730  13.5758710  22.6823120  59.1792040  13.6000850
  23.1011230  60.0224770  13.4277090  21.7631750  59.3164080  13.3707630
  25.0187020  56.9108220  14.9838690  25.1383230  56.3149360  15.7233530
  25.8781020  56.9477910  14.5639990  27.3574920  57.4645410  13.5601200
  26.8310140  57.9888030  12.9566340  27.7006260  58.0972800  14.1910930
  20.5330540  65.4845050  14.7158580  19.9951630  66.2091110  14.3967280
  20.7864500  65.0075390  13.9255920  21.7855790  53.4529570  16.2414510
  22.3755480  53.1445420  16.9292330  20.9676030  52.9809320  16.3974410
  26.6049220  53.0695380  16.4747530  25.9164740  52.4076920  16.4097520
  27.3255240  52.6233650  16.9195990  27.2349620  49.6647010   2.5337790
  27.5151910  48.8214910   2.8897210  26.4615350  49.8970120   3.0476540
  23.3892750  66.7196260  14.9745230  23.3151450  67.6231400  15.2817600
  22.4871590  66.4008160  14.9467300  23.9378080  65.8854770   2.5971590
  24.8328870  66.2239740   2.6190350  23.9695710  65.1634180   1.9695870
  14.7920040  64.0470850   8.2778850  15.1223050  63.1791910   8.0457490
  15.2211040  64.2529370   9.1083810  19.3881960  62.3779860   5.9380820
  19.0877500  62.2544830   6.8384730  19.2819450  61.5188450   5.5296550
  15.2810250  64.9141440  11.0160480  14.8441240  65.0942240  11.8484630
  15.8487930  65.6716060  10.8742200  30.9172430  64.4158440  15.3037790
  30.3174420  64.4751000  14.5601710  31.0466330  63.4763420  15.4334640
  31.6130340  58.9023740   3.1441700  32.3749250  59.4720390   3.2501390
  31.6284710  58.3350940   3.9150010  15.1134680  57.4261670   7.3749360
  14.4583520  57.1573310   6.7309060  15.9512630  57.3166150   6.9251340
  32.6190310  59.7573840   7.9883630  32.9899140  58.9741160   7.5819600
  33.2592240  60.4462940   7.8100930  29.6024070  61.1410420  13.4013950
  28.7883910  61.5707580  13.6639740  30.0098270  61.7528830  12.7883000
  31.5614850  57.1327100   5.2943650  31.1858450  56.3655030   4.8624940
  30.8317970  57.5149800   5.7818580  16.1510610  57.8114240  11.9152700
  16.5183650  57.7241640  12.7948720  15.5821430  57.0480790  11.8159560
  30.9514470  56.2798620  14.9283170  30.7200560  56.0511370  14.0281120
  31.2119020  57.1998170  14.8828060  15.7026610  54.7223330  15.8211120
  14.8082660  54.6890090  16.1604830  16.2424160  54.9210120  16.5862370
  29.3902540  51.5055050  17.7062870  30.2672720  51.5138450  18.0896870
  29.4023380  50.7685890  17.0955220  14.3272760  54.6360600   3.3174690
  13.4236840  54.8990800   3.1426350  14.8113380  54.9071770   2.5374650
  30.8365810  55.3584590   8.5950890  31.3603290  54.8647240   7.9641060
  31.4225230  55.4934950   9.3398460  31.0155530  55.4424460  12.1170440
  30.0658240  55.4088000  12.2315430  31.1968540  56.3524570  11.8820210
  30.3265780  54.6157940   4.5343300  30.8224900  54.3828810   5.3192180
  30.1281850  53.7769780   4.1180940  16.2066320  48.9971660  10.1694340
  16.8542510  48.4469040   9.7289500  16.6268160  49.2514810  10.9910150
  31.7552940  53.2518890   7.0680980  31.6452220  53.0974930   8.0063250
  32.5160530  52.7239830   6.8256390  30.1018660  49.1913020  13.5263980
  30.7390880  49.8047160  13.8923170  30.2493550  49.2273680  12.5813210
  32.7181700  51.8537470   2.9343830  31.9233200  51.7882590   3.4636740
  32.9224980  52.7888110   2.9229180  29.6600120  65.8929020   6.9282220
  30.2559190  65.5713590   6.2516640  29.9178270  65.4200840   7.7195490
  15.9598320  49.1527330  12.9119660  15.6113140  49.6091150  13.6777840
  15.6286020  48.2584460  12.9942090  17.5662690  62.3246930  17.0772850
  17.5232320  61.9539840  17.9587310  17.6973700  63.2624500  17.2174670
  21.2668720  63.8806520  12.6782570  21.0260080  64.1481080  11.7913090
  22.2071360  64.0512250  12.7333430  23.4723140  50.3439210  16.4339080
  23.4112030  50.9361040  17.1834490  24.4123520  50.2365170  16.2889340
  26.1097700  50.0009270  16.0731370  26.7238110  50.3188560  15.4112450
  26.6547260  49.5157860  16.6927230  32.5272880  65.9000900  13.4793210
  32.0331160  66.2969770  12.7620340  31.9186170  65.2750110  13.8730490
  16.6318960  48.6803530  16.1870430  17.1801950  48.4991580  15.4236540
  16.6974270  47.8897640  16.7226740  17.4050720  65.2709180  14.1970630
  16.8111040  65.1393880  14.9360670  17.3974560  64.4347320  13.7312730
  26.8505740  48.5641410  12.4000660  25.9765580  48.8976520  12.1973590
  26.7416490  48.0914590  13.2252530  27.7577720  50.7712280  13.7842380
  27.4291080  49.9564040  13.4044110  28.7060020  50.7282090  13.6608070
  30.2112330  66.5424320  10.7579950  29.7515300  67.2940130  10.3837970
  29.5824790  65.8230790  10.6994750  17.0362950  62.6367560  13.1478670
  16.3097010  62.0172850  13.0804620  17.0972100  63.0308170  12.2776750
  20.6408050  64.8512560   9.9328080  21.1573070  64.2399920   9.4076340
  21.2905430  65.3541340  10.4239090  23.3803550  65.7421050  10.7597060
  23.6681360  65.4875350   9.8830070  23.8926770  65.1898410  11.3502630
  24.5980560  49.4811250  11.3393570  23.8152350  49.9556750  11.6190330
  24.3043490  48.5766080  11.2306750  29.1501630  50.1834350   9.3842660
  29.5909720  50.1279450   8.5364260  28.8809220  51.0992360   9.4552840
  31.0140200  49.8149590   7.3951480  30.9528600  48.8710810   7.2482500
  31.7932230  49.9229680   7.9404940  15.3192950  65.9541950   6.3575430
  15.1514990  65.3212630   7.0557320  14.4527460  66.1601350   6.0069620
  15.9420970  49.7858730   3.8607290  16.7000330  49.8987610   3.2871320
  15.4798140  50.6227930   3.8150720  22.4834780  51.8998000   6.8509600
  21.6709290  51.5254890   6.5105480  22.9876420  51.1443080   7.1530790
  26.9859760  48.5640450   8.0892670  27.5889130  49.1360660   8.5641190
  26.2452750  49.1279890   7.8666570  30.1294360  48.9662010   3.3632950
  30.3244990  49.8645460   3.6300380  29.3424230  48.7349090   3.8565900
  16.9255650  64.6475180   3.8025570  16.4003270  65.0283210   3.0987530
  16.8500230  65.2725950   4.5235280  18.3146120  50.3122780   2.4009260
  18.8438880  49.5252580   2.2717210  18.9474440  50.9913970   2.6344790
  20.5083960  50.0497920   5.4554650  19.8786700  49.3485230   5.6224780
  19.9689100  50.8102050   5.2387810  23.4475910  66.6637150  18.1265260
  24.3743220  66.4281420  18.1701220  23.4326340  67.4909150  17.6451290
  31.6820970  66.2062720   5.1239510  31.8573160  65.5200460   4.4800430
  30.9842540  66.7309770   4.7316180  20.6339520  49.3281900  17.8907140
  20.3523790  49.8315500  17.1267960  21.0159220  48.5303650  17.5249270
  19.5248620  66.5957560   2.6774820  20.2567440  66.3116840   2.1298710
  19.7842290  66.3570840   3.5674200  18.6863410  62.7122290   2.6821150
  18.0572290  63.1807390   3.2306980  18.8011240  61.8671510   3.1167340
  27.2354980  48.7435480  18.4687610  27.1220430  49.0630090  19.3639130
  28.0524720  49.1447990  18.1724890  30.0153470  65.8907010  17.9506300
  30.8078790  65.3956240  17.7432260  30.3086620  66.5697150  18.5581910
  26.1413130  37.9884460 101.4783290  26.0607180  37.0739070 101.2075000
  25.7277550  38.4851530 100.7723000  24.2731170  39.7663480 103.3592560
  23.4973270  39.2863920 103.6491130  24.9244100  39.0869130 103.1848720
  18.2897000  40.0783290 104.2368320  17.4581880  39.8232000 104.6364830
  18.8977980  40.1494060 104.9726240  28.2938600  44.1723670 102.1391690
  27.8320130  43.4010910 102.4678860  29.1064150  44.1989740 102.6444140
  18.2698260  44.1123380 104.4326340  18.5726300  43.2221120 104.2536560
  19.0141850  44.6693600 104.2048590  16.6988950  35.0385180  98.0210710
  15.8105650  35.3801150  97.9190590  16.9830140  34.8385500  97.1291540
  14.6621960  37.6390830 103.9050410  15.2338070  36.8713030 103.9054050
  14.6623500  37.9379590 102.9957020  24.5201910  46.4581680 101.7595680
  23.9013350  46.9139180 101.1890120  25.3753690  46.6133140 101.3585380
  23.7140160  42.4420670 103.3662720  23.6448440  41.5010610 103.2051850
  24.4760020  42.5322080 103.9385290  15.9046830  33.0475190 105.6919340
  15.7249670  32.1500940 105.9722100  15.5026910  33.5947060 106.3666290
  24.7445330  35.2491050 103.5931650  25.1210150  34.3762930 103.4805320
  24.6464840  35.5849750 102.7022090
 121.8401430 115.5175140 112.7350160  90.0000000  90.0000000  90.0000000
